                               Psi4 1.4a2.dev629

  ==> Input File <==

--------------------------------------------------------------------------
import os
memory 14 GB

molecule {
 C   -0.3233315708   -0.0002417389    0.0049992973
 C    0.0611108617   -1.3946651821   -2.4221147005
 C    0.0621321789    2.8016209923   -0.0062297527
 C    0.0600622140   -1.4069134381    2.4308730213
 H    2.0859865894   -1.6323958013   -2.8415078089
 H   -0.7675149816   -0.3807661036   -4.0208063102
 H   -0.7632607933   -3.2869124107   -2.3488794219
 H    2.0900304782    3.2941807948   -0.0111720987
 H   -0.7612497005    3.6844922537    1.6669363234
 H   -0.7667643263    3.6693128363   -1.6857943342
 H    2.0846400827   -1.6499657622    2.8496900962
 H   -0.7678526237   -3.2984528488    2.3492980687
 H   -0.7665962854   -0.3993179049    4.0347076202
units bohr
0 2
}

basis {

assign 6-31g_2dfp_

[ 6-31g_2dfp_ ]

spherical

!----------------------------------------------------------------------
! Basis Set Exchange
! Version v0.8.13
! https://www.basissetexchange.org
!----------------------------------------------------------------------
!   Basis set: 6-31G(2df,p)
! Description: 6-31G(2df,p)
!        Role: orbital
!     Version: 0  (Data from the original Basis Set Exchange)
!----------------------------------------------------------------------

****
H     0
S    3   1.00
     18.7311370              0.03349460
      2.8253937              0.23472695
      0.6401217              0.81375733
S    1   1.00
      0.1612778              1.00000000
P    1   1.00
      1.5000000              1.0000000
P    1   1.00
      0.3750000              1.0000000
****
B     0
S    6   1.00
   2068.8823000              0.0018663
    310.6495700              0.0142515
     70.6830330              0.0695516
     19.8610800              0.2325729
      6.2993048              0.4670787
      2.1270270              0.3634314
SP   3   1.00
      4.7279710             -0.1303938              0.0745976
      1.1903377             -0.1307889              0.3078467
      0.3594117              1.1309444              0.7434568
SP   1   1.00
      0.1267512              1.0000000              1.0000000
D    1   1.00
      0.8020000              1.0000000
D    1   1.00
      0.2005000              1.0000000
F    1   1.00
      0.5000000              1.0000000
****
C     0
S    6   1.00
   3047.5249000              0.0018347
    457.3695100              0.0140373
    103.9486900              0.0688426
     29.2101550              0.2321844
      9.2866630              0.4679413
      3.1639270              0.3623120
SP   3   1.00
      7.8682724             -0.1193324              0.0689991
      1.8812885             -0.1608542              0.3164240
      0.5442493              1.1434564              0.7443083
SP   1   1.00
      0.1687144              1.0000000              1.0000000
D    1   1.00
      1.2520000              1.0000000
D    1   1.00
      0.3130000              1.0000000
F    1   1.00
      0.8000000              1.0000000
****
N     0
S    6   1.00
   4173.5110000              0.0018348
    627.4579000              0.0139950
    142.9021000              0.0685870
     40.2343300              0.2322410
     12.8202100              0.4690700
      4.3904370              0.3604550
SP   3   1.00
     11.6263580             -0.1149610              0.0675800
      2.7162800             -0.1691180              0.3239070
      0.7722180              1.1458520              0.7408950
SP   1   1.00
      0.2120313              1.0000000              1.0000000
D    1   1.00
      1.8260000              1.0000000
D    1   1.00
      0.4565000              1.0000000
F    1   1.00
      1.0000000              1.0000000
****
O     0
S    6   1.00
   5484.6717000              0.0018311
    825.2349500              0.0139501
    188.0469600              0.0684451
     52.9645000              0.2327143
     16.8975700              0.4701930
      5.7996353              0.3585209
SP   3   1.00
     15.5396160             -0.1107775              0.0708743
      3.5999336             -0.1480263              0.3397528
      1.0137618              1.1307670              0.7271586
SP   1   1.00
      0.2700058              1.0000000              1.0000000
D    1   1.00
      2.5840000              1.0000000
D    1   1.00
      0.6460000              1.0000000
F    1   1.00
      1.4000000              1.0000000
****
F     0
S    6   1.00
   7001.7130900              0.0018196169
   1051.3660900              0.0139160796
    239.2856900              0.0684053245
     67.3974453              0.233185760
     21.5199573              0.471267439
      7.40310130             0.356618546
SP   3   1.00
     20.8479528             -0.108506975            0.0716287243
      4.80830834            -0.146451658            0.3459121030
      1.34406986             1.128688580            0.7224699570
SP   1   1.00
      0.358151393            1.0000000              1.0000000
D    1   1.00
      3.5000000              1.0000000
D    1   1.00
      0.8750000              1.0000000
F    1   1.00
      1.8500000              1.0000000
****
Al     0
S    6   1.00
  13983.1000000              0.00194267
   2098.7500000              0.0148599
    477.7050000              0.0728494
    134.3600000              0.2468300
     42.8709000              0.4872580
     14.5189000              0.3234960
SP   6   1.00
    239.6680000             -0.00292619             0.00460285
     57.4419000             -0.0374080              0.0331990
     18.2859000             -0.1144870              0.1362820
      6.5991400              0.1156350              0.3304760
      2.4904900              0.6125950              0.4491460
      0.9445400              0.3937990              0.2657040
SP   3   1.00
      1.2779000             -0.2276060             -0.0175130
      0.3975900              0.00144583             0.2445330
      0.1600950              1.0927900              0.8049340
SP   1   1.00
      0.0556577              1.0000000              1.0000000
D    1   1.00
      0.6500000              1.0000000
D    1   1.00
      0.1625000              1.0000000
F    1   1.00
      0.2500000              1.0000000
****
Si     0
S    6   1.00
  16115.9000000              0.00195948
   2425.5800000              0.01492880
    553.8670000              0.07284780
    156.3400000              0.24613000
     50.0683000              0.48591400
     17.0178000              0.32500200
SP   6   1.00
    292.7180000             -0.00278094             0.00443826
     69.8731000             -0.03571460             0.03266790
     22.3363000             -0.11498500             0.13472100
      8.1503900              0.09356340             0.32867800
      3.1345800              0.60301700             0.44964000
      1.2254300              0.41895900             0.26137200
SP   3   1.00
      1.7273800             -0.24463000            -0.01779510
      0.5729220              0.00431572             0.25353900
      0.2221920              1.09818000             0.80066900
SP   1   1.00
      0.0778369              1.00000000             1.00000000
D    1   1.00
      0.9000000              1.0000000
D    1   1.00
      0.2250000              1.0000000
F    1   1.00
      0.3200000              1.0000000
****
P     0
S    6   1.00
  19413.3000000              0.0018516
   2909.4200000              0.0142062
    661.3640000              0.0699995
    185.7590000              0.2400790
     59.1943000              0.4847620
     20.0310000              0.3352000
SP   6   1.00
    339.4780000             -0.00278217             0.00456462
     81.0101000             -0.0360499              0.03369360
     25.8780000             -0.1166310              0.13975500
      9.4522100              0.0968328              0.33936200
      3.6656600              0.6144180              0.45092100
      1.4674600              0.4037980              0.23858600
SP   3   1.00
      2.1562300             -0.2529230             -0.01776530
      0.7489970              0.0328517              0.27405800
      0.2831450              1.0812500              0.78542100
SP   1   1.00
      0.0998317              1.0000000              1.00000000
D    1   1.00
      1.1000000              1.0000000
D    1   1.00
      0.2750000              1.0000000
F    1   1.00
      0.4500000              1.0000000
****
S     0
S    6   1.00
  21917.1000000              0.0018690
   3301.4900000              0.0142300
    754.1460000              0.0696960
    212.7110000              0.2384870
     67.9896000              0.4833070
     23.0515000              0.3380740
SP   6   1.00
    423.7350000             -0.0023767              0.0040610
    100.7100000             -0.0316930              0.0306810
     32.1599000             -0.1133170              0.1304520
     11.8079000              0.0560900              0.3272050
      4.6311000              0.5922550              0.4528510
      1.8702500              0.4550060              0.2560420
SP   3   1.00
      2.6158400             -0.2503740             -0.0145110
      0.9221670              0.0669570              0.3102630
      0.3412870              1.0545100              0.7544830
SP   1   1.00
      0.1171670              1.0000000              1.0000000
D    1   1.00
      1.3000000              1.0000000
D    1   1.00
      0.3250000              1.0000000
F    1   1.00
      0.5500000              1.0000000
****
Cl     0
S    6   1.00
  25180.1000000              0.0018330
   3780.3500000              0.0140340
    860.4740000              0.0690970
    242.1450000              0.2374520
     77.3349000              0.4830340
     26.2470000              0.3398560
SP   6   1.00
    491.7650000             -0.0022974              0.0039894
    116.9840000             -0.0307140              0.0303180
     37.4153000             -0.1125280              0.1298800
     13.7834000              0.0450160              0.3279510
      5.4521500              0.5893530              0.4535270
      2.2258800              0.4652060              0.2521540
SP   3   1.00
      3.1864900             -0.2518300             -0.0142990
      1.1442700              0.0615890              0.3235720
      0.4203770              1.0601800              0.7435070
SP   1   1.00
      0.1426570              1.0000000              1.0000000
D    1   1.00
      1.5000000              1.0000000
D    1   1.00
      0.3750000              1.0000000
F    1   1.00
      0.7000000              1.0000000
****
}

set {
reference uhf
freeze_core true
e_convergence 10
d_convergence 10
dft_spherical_points 1202
dft_radial_points 99
}

e = energy('b3lyp')

print_out('Grab this energy {0}'.format(e))
--------------------------------------------------------------------------

    Molecular point group: c1

    Geometry (in Bohr), charge = 0, multiplicity = 2:

       Center              X                  Y                   Z               Mass
    ------------   -----------------  -----------------  -----------------  -----------------
         C           -0.323334203479    -0.000202910058     0.003549376204    12.000000000000
         C            0.061108229021    -1.394626353258    -2.423564621596    12.000000000000
         C            0.062129546221     2.801659821142    -0.007679673796    12.000000000000
         C            0.060059581321    -1.406874609258     2.429423100204    12.000000000000
         H            2.085983956721    -1.632356972458    -2.842957729996     1.007825032230
         H           -0.767517614279    -0.380727274758    -4.022256231296     1.007825032230
         H           -0.763263425979    -3.286873581858    -2.350329342996     1.007825032230
         H            2.090027845521     3.294219623642    -0.012622019796     1.007825032230
         H           -0.761252333179     3.684531082542     1.665486402304     1.007825032230
         H           -0.766766958979     3.669351665142    -1.687244255296     1.007825032230
         H            2.084637450021    -1.649926933358     2.848240175104     1.007825032230
         H           -0.767855256379    -3.298414019958     2.347848147604     1.007825032230
         H           -0.766598918079    -0.399279076058     4.033257699104     1.007825032230

  Charge       = 0
  Multiplicity = 2
  Basis Set: ANONYMOUS2D1B46BE
    Blend: 6-31G_2DFP_
  Basis Set: (ANONYMOUS2D1B46BE AUX)
    Blend: DEF2-UNIVERSAL-JKFIT

    Orbital Energies [Eh]
    ---------------------

    Alpha Occupied:

       1A    -10.180342     2A    -10.167304     3A    -10.166982
       4A    -10.166760     5A     -0.797770     6A     -0.686409
       7A     -0.685963     8A     -0.530776     9A     -0.441128
      10A     -0.434951    11A     -0.434392    12A     -0.382866
      13A     -0.382329    14A     -0.363610    15A     -0.338313
      16A     -0.337683    17A     -0.168961

    Alpha Virtual:

      18A      0.076072    19A      0.133910    20A      0.134400
      21A      0.142380    22A      0.142874    23A      0.154881
      24A      0.178515    25A      0.179040    26A      0.203548
      27A      0.214807    28A      0.275814    29A      0.276158
      30A      0.398990    31A      0.399402    32A      0.403412
      33A      0.423932    34A      0.424273    35A      0.456597
      36A      0.494985    37A      0.495784    38A      0.512173
      39A      0.513989    40A      0.578511    41A      0.579085
      42A      0.591366    43A      0.591893    44A      0.602603
      45A      0.624769    46A      0.631741    47A      0.635956
      48A      0.636572    49A      0.663193    50A      0.663636
      51A      0.683587    52A      0.684122    53A      0.734992
      54A      0.824573    55A      0.826227    56A      0.853914
      57A      0.914631    58A      0.915420    59A      0.944028
      60A      0.944525    61A      0.961184    62A      0.961629
      63A      1.003468    64A      1.126892    65A      1.129346
      66A      1.142198    67A      1.162758    68A      1.163788
      69A      1.223333    70A      1.273948    71A      1.275034
      72A      1.279366    73A      1.324241    74A      1.324462
      75A      1.355975    76A      1.365323    77A      1.366742
      78A      1.392428    79A      1.403144    80A      1.405021
      81A      1.416519    82A      1.417706    83A      1.427943
      84A      1.491443    85A      1.499047    86A      1.542485
      87A      1.543199    88A      1.572577    89A      1.576439
      90A      1.669825    91A      1.738349    92A      1.740435
      93A      1.768363    94A      1.830737    95A      1.832074
      96A      1.971719    97A      2.017591    98A      2.018289
      99A      2.020487   100A      2.050111   101A      2.055270
     102A      2.738219   103A      2.738755   104A      2.790924
     105A      2.811442   106A      2.889765   107A      2.890099
     108A      2.894981   109A      2.929138   110A      2.929846
     111A      2.958979   112A      2.963494   113A      2.965302
     114A      3.034005   115A      3.070081   116A      3.072465
     117A      3.084380   118A      3.167988   119A      3.169622
     120A      3.180554   121A      3.284583   122A      3.286031
     123A      3.325875   124A      3.328468   125A      3.375664
     126A      3.488949   127A      3.491294   128A      3.514027
     129A      3.525311   130A      3.567283   131A      3.569168
     132A      3.575564   133A      3.665891   134A      3.666861
     135A      3.679666   136A      3.693308   137A      3.694890
     138A      3.775892   139A      3.777615   140A      3.789339
     141A      3.910810   142A      3.913658   143A      4.034468
     144A      4.110014   145A      4.112741   146A      4.146435
     147A      4.149756   148A      4.173234   149A      4.201337
     150A      4.202559   151A      4.204855   152A      4.210968
     153A      4.315738   154A      4.316160   155A      4.358999
     156A      4.424215   157A      4.424601   158A      4.443521
     159A      4.515779   160A      4.517899   161A      4.577216
     162A      4.579332   163A      4.617584   164A      4.709388
     165A      4.773185   166A      4.776036   167A      4.836951
     168A      4.962862   169A      5.001820   170A      5.004105
     171A      5.228051   172A      5.246247   173A      5.247400
     174A      5.354804   175A      5.356210   176A      5.479327

    Beta Occupied:

       1A    -10.168058     2A    -10.167745     3A    -10.167522
       4A    -10.166519     5A     -0.781095     6A     -0.684215
       7A     -0.683763     8A     -0.511747     9A     -0.431334
      10A     -0.430752    11A     -0.421825    12A     -0.376962
      13A     -0.376403    14A     -0.362594    15A     -0.333433
      16A     -0.332808

    Beta Virtual:

      17A     -0.025743    18A      0.077081    19A      0.134791
      20A      0.135298    21A      0.144273    22A      0.144723
      23A      0.163340    24A      0.182176    25A      0.182722
      26A      0.215037    27A      0.218929    28A      0.282150
      29A      0.282518    30A      0.400224    31A      0.400562
      32A      0.419799    33A      0.426731    34A      0.427097
      35A      0.468507    36A      0.497242    37A      0.498053
      38A      0.513909    39A      0.556329    40A      0.584087
      41A      0.584614    42A      0.597541    43A      0.598077
      44A      0.610018    45A      0.628151    46A      0.631910
      47A      0.639225    48A      0.639862    49A      0.666728
      50A      0.667226    51A      0.686180    52A      0.686801
      53A      0.757515    54A      0.829731    55A      0.831405
      56A      0.855268    57A      0.922614    58A      0.923379
      59A      0.945895    60A      0.953429    61A      0.966439
      62A      0.966983    63A      1.008706    64A      1.130941
      65A      1.133355    66A      1.155563    67A      1.167788
      68A      1.168915    69A      1.232302    70A      1.279546
      71A      1.280633    72A      1.285118    73A      1.329214
      74A      1.329468    75A      1.365375    76A      1.370476
      77A      1.372085    78A      1.393492    79A      1.406636
      80A      1.408466    81A      1.421566    82A      1.422734
      83A      1.428232    84A      1.492495    85A      1.509487
      86A      1.546774    87A      1.547730    88A      1.580562
      89A      1.584195    90A      1.674671    91A      1.744114
      92A      1.746197    93A      1.779139    94A      1.834582
      95A      1.835941    96A      1.972582    97A      2.023948
      98A      2.026948    99A      2.039632   100A      2.056925
     101A      2.061897   102A      2.746509   103A      2.747136
     104A      2.811854   105A      2.816059   106A      2.902444
     107A      2.902826   108A      2.924652   109A      2.931672
     110A      2.932284   111A      2.960054   112A      2.968057
     113A      2.969815   114A      3.041941   115A      3.079798
     116A      3.082463   117A      3.086312   118A      3.183838
     119A      3.185258   120A      3.188235   121A      3.289443
     122A      3.290773   123A      3.329683   124A      3.332271
     125A      3.383480   126A      3.491696   127A      3.494001
     128A      3.512403   129A      3.528365   130A      3.574707
     131A      3.580633   132A      3.583207   133A      3.670651
     134A      3.671598   135A      3.692956   136A      3.725159
     137A      3.726307   138A      3.780470   139A      3.782172
     140A      3.817794   141A      3.920626   142A      3.923475
     143A      4.045356   144A      4.116838   145A      4.119549
     146A      4.153696   147A      4.156914   148A      4.187293
     149A      4.207267   150A      4.210072   151A      4.211216
     152A      4.215480   153A      4.323202   154A      4.323578
     155A      4.362361   156A      4.432397   157A      4.432805
     158A      4.446452   159A      4.523651   160A      4.525600
     161A      4.587737   162A      4.590013   163A      4.624777
     164A      4.719732   165A      4.780092   166A      4.783035
     167A      4.839871   168A      4.967656   169A      5.005868
     170A      5.008137   171A      5.233764   172A      5.248032
     173A      5.249186   174A      5.361266   175A      5.362708
     176A      5.481649

    Final Occupation by Irrep:
              A
    DOCC [    16 ]
    SOCC [     1 ]

  @DF-UKS Final Energy:  -157.81305866304092

   => Energetics <=

    Nuclear Repulsion Energy =            125.3948605098807292
    One-Electron Energy =                -458.7493556837299593
    Two-Electron Energy =                 195.8485829039786950
    DFT Exchange-Correlation Energy =     -20.3071463931704059
    Empirical Dispersion Energy =           0.0000000000000000
    VV10 Nonlocal Energy =                  0.0000000000000000
    Total Energy =                       -157.8130586630409198

  UHF NO Occupations:
  HONO-2 :   15  A 1.9996008
  HONO-1 :   16  A 1.9989804
  HONO-0 :   17  A 1.0000000
  LUNO+0 :   18  A 0.0010196
  LUNO+1 :   19  A 0.0003992
  LUNO+2 :   20  A 0.0001979
  LUNO+3 :   21  A 0.0001972

Computation Completed

Properties will be evaluated at   0.000000,   0.000000,   0.000000 [a0]

Properties computed using the SCF density matrix

  Nuclear Dipole Moment: [e a0]
     X:     0.8272      Y:     0.0003      Z:    -0.0102

  Electronic Dipole Moment: [e a0]
     X:    -0.7493      Y:    -0.0010      Z:     0.0110

  Dipole Moment: [e a0]
     X:     0.0779      Y:    -0.0008      Z:     0.0008     Total:     0.0779

  Dipole Moment: [D]
     X:     0.1980      Y:    -0.0020      Z:     0.0019     Total:     0.1980

*** tstop() called on n033 at Fri Nov  5 15:26:01 2021
Module time:
	user time   =     639.24 seconds =      10.65 minutes
	system time =      12.20 seconds =       0.20 minutes
	total time  =        163 seconds =       2.72 minutes
Total time:
	user time   =     639.24 seconds =      10.65 minutes
	system time =      12.20 seconds =       0.20 minutes
	total time  =        163 seconds =       2.72 minutes
Grab this energy -157.81305866304092
    Psi4 stopped on: Friday, 05 November 2021 03:26PM
    Psi4 wall time for execution: 0:02:43.75

*** Psi4 exiting successfully. Buy a developer a beer!
