                               Psi4 1.4a2.dev629

  ==> Input File <==

--------------------------------------------------------------------------
import os
memory 14 GB

molecule {
 C   -0.3236406500   -0.0000015509   -0.0002240460
 C    0.0611339657   -1.4024079969   -2.4295146278
 C    0.0611589097    2.8072051720   -0.0004828141
 C    0.0614234413   -1.4047915848    2.4326779924
 H    2.0871556959   -1.6477717331   -2.8536201659
 H   -0.7654874889   -0.3913373730   -4.0312835950
 H   -0.7655893115   -3.2955405606   -2.3545322198
 H    2.0870904894    3.2946975106    0.0001851309
 H   -0.7657505920    3.6862453331    1.6769778039
 H   -0.7658734787    3.6862683876   -1.6767924489
 H    2.0872993091   -1.6470190461    2.8526865207
 H   -0.7658764200   -3.2951258781    2.3534609527
 H   -0.7656517466   -0.3904449933    4.0304615168
units bohr
0 2
}

basis {

assign 6-31g_2dfp_

[ 6-31g_2dfp_ ]

spherical

!----------------------------------------------------------------------
! Basis Set Exchange
! Version v0.8.13
! https://www.basissetexchange.org
!----------------------------------------------------------------------
!   Basis set: 6-31G(2df,p)
! Description: 6-31G(2df,p)
!        Role: orbital
!     Version: 0  (Data from the original Basis Set Exchange)
!----------------------------------------------------------------------

****
H     0
S    3   1.00
     18.7311370              0.03349460
      2.8253937              0.23472695
      0.6401217              0.81375733
S    1   1.00
      0.1612778              1.00000000
P    1   1.00
      1.5000000              1.0000000
P    1   1.00
      0.3750000              1.0000000
****
B     0
S    6   1.00
   2068.8823000              0.0018663
    310.6495700              0.0142515
     70.6830330              0.0695516
     19.8610800              0.2325729
      6.2993048              0.4670787
      2.1270270              0.3634314
SP   3   1.00
      4.7279710             -0.1303938              0.0745976
      1.1903377             -0.1307889              0.3078467
      0.3594117              1.1309444              0.7434568
SP   1   1.00
      0.1267512              1.0000000              1.0000000
D    1   1.00
      0.8020000              1.0000000
D    1   1.00
      0.2005000              1.0000000
F    1   1.00
      0.5000000              1.0000000
****
C     0
S    6   1.00
   3047.5249000              0.0018347
    457.3695100              0.0140373
    103.9486900              0.0688426
     29.2101550              0.2321844
      9.2866630              0.4679413
      3.1639270              0.3623120
SP   3   1.00
      7.8682724             -0.1193324              0.0689991
      1.8812885             -0.1608542              0.3164240
      0.5442493              1.1434564              0.7443083
SP   1   1.00
      0.1687144              1.0000000              1.0000000
D    1   1.00
      1.2520000              1.0000000
D    1   1.00
      0.3130000              1.0000000
F    1   1.00
      0.8000000              1.0000000
****
N     0
S    6   1.00
   4173.5110000              0.0018348
    627.4579000              0.0139950
    142.9021000              0.0685870
     40.2343300              0.2322410
     12.8202100              0.4690700
      4.3904370              0.3604550
SP   3   1.00
     11.6263580             -0.1149610              0.0675800
      2.7162800             -0.1691180              0.3239070
      0.7722180              1.1458520              0.7408950
SP   1   1.00
      0.2120313              1.0000000              1.0000000
D    1   1.00
      1.8260000              1.0000000
D    1   1.00
      0.4565000              1.0000000
F    1   1.00
      1.0000000              1.0000000
****
O     0
S    6   1.00
   5484.6717000              0.0018311
    825.2349500              0.0139501
    188.0469600              0.0684451
     52.9645000              0.2327143
     16.8975700              0.4701930
      5.7996353              0.3585209
SP   3   1.00
     15.5396160             -0.1107775              0.0708743
      3.5999336             -0.1480263              0.3397528
      1.0137618              1.1307670              0.7271586
SP   1   1.00
      0.2700058              1.0000000              1.0000000
D    1   1.00
      2.5840000              1.0000000
D    1   1.00
      0.6460000              1.0000000
F    1   1.00
      1.4000000              1.0000000
****
F     0
S    6   1.00
   7001.7130900              0.0018196169
   1051.3660900              0.0139160796
    239.2856900              0.0684053245
     67.3974453              0.233185760
     21.5199573              0.471267439
      7.40310130             0.356618546
SP   3   1.00
     20.8479528             -0.108506975            0.0716287243
      4.80830834            -0.146451658            0.3459121030
      1.34406986             1.128688580            0.7224699570
SP   1   1.00
      0.358151393            1.0000000              1.0000000
D    1   1.00
      3.5000000              1.0000000
D    1   1.00
      0.8750000              1.0000000
F    1   1.00
      1.8500000              1.0000000
****
Al     0
S    6   1.00
  13983.1000000              0.00194267
   2098.7500000              0.0148599
    477.7050000              0.0728494
    134.3600000              0.2468300
     42.8709000              0.4872580
     14.5189000              0.3234960
SP   6   1.00
    239.6680000             -0.00292619             0.00460285
     57.4419000             -0.0374080              0.0331990
     18.2859000             -0.1144870              0.1362820
      6.5991400              0.1156350              0.3304760
      2.4904900              0.6125950              0.4491460
      0.9445400              0.3937990              0.2657040
SP   3   1.00
      1.2779000             -0.2276060             -0.0175130
      0.3975900              0.00144583             0.2445330
      0.1600950              1.0927900              0.8049340
SP   1   1.00
      0.0556577              1.0000000              1.0000000
D    1   1.00
      0.6500000              1.0000000
D    1   1.00
      0.1625000              1.0000000
F    1   1.00
      0.2500000              1.0000000
****
Si     0
S    6   1.00
  16115.9000000              0.00195948
   2425.5800000              0.01492880
    553.8670000              0.07284780
    156.3400000              0.24613000
     50.0683000              0.48591400
     17.0178000              0.32500200
SP   6   1.00
    292.7180000             -0.00278094             0.00443826
     69.8731000             -0.03571460             0.03266790
     22.3363000             -0.11498500             0.13472100
      8.1503900              0.09356340             0.32867800
      3.1345800              0.60301700             0.44964000
      1.2254300              0.41895900             0.26137200
SP   3   1.00
      1.7273800             -0.24463000            -0.01779510
      0.5729220              0.00431572             0.25353900
      0.2221920              1.09818000             0.80066900
SP   1   1.00
      0.0778369              1.00000000             1.00000000
D    1   1.00
      0.9000000              1.0000000
D    1   1.00
      0.2250000              1.0000000
F    1   1.00
      0.3200000              1.0000000
****
P     0
S    6   1.00
  19413.3000000              0.0018516
   2909.4200000              0.0142062
    661.3640000              0.0699995
    185.7590000              0.2400790
     59.1943000              0.4847620
     20.0310000              0.3352000
SP   6   1.00
    339.4780000             -0.00278217             0.00456462
     81.0101000             -0.0360499              0.03369360
     25.8780000             -0.1166310              0.13975500
      9.4522100              0.0968328              0.33936200
      3.6656600              0.6144180              0.45092100
      1.4674600              0.4037980              0.23858600
SP   3   1.00
      2.1562300             -0.2529230             -0.01776530
      0.7489970              0.0328517              0.27405800
      0.2831450              1.0812500              0.78542100
SP   1   1.00
      0.0998317              1.0000000              1.00000000
D    1   1.00
      1.1000000              1.0000000
D    1   1.00
      0.2750000              1.0000000
F    1   1.00
      0.4500000              1.0000000
****
S     0
S    6   1.00
  21917.1000000              0.0018690
   3301.4900000              0.0142300
    754.1460000              0.0696960
    212.7110000              0.2384870
     67.9896000              0.4833070
     23.0515000              0.3380740
SP   6   1.00
    423.7350000             -0.0023767              0.0040610
    100.7100000             -0.0316930              0.0306810
     32.1599000             -0.1133170              0.1304520
     11.8079000              0.0560900              0.3272050
      4.6311000              0.5922550              0.4528510
      1.8702500              0.4550060              0.2560420
SP   3   1.00
      2.6158400             -0.2503740             -0.0145110
      0.9221670              0.0669570              0.3102630
      0.3412870              1.0545100              0.7544830
SP   1   1.00
      0.1171670              1.0000000              1.0000000
D    1   1.00
      1.3000000              1.0000000
D    1   1.00
      0.3250000              1.0000000
F    1   1.00
      0.5500000              1.0000000
****
Cl     0
S    6   1.00
  25180.1000000              0.0018330
   3780.3500000              0.0140340
    860.4740000              0.0690970
    242.1450000              0.2374520
     77.3349000              0.4830340
     26.2470000              0.3398560
SP   6   1.00
    491.7650000             -0.0022974              0.0039894
    116.9840000             -0.0307140              0.0303180
     37.4153000             -0.1125280              0.1298800
     13.7834000              0.0450160              0.3279510
      5.4521500              0.5893530              0.4535270
      2.2258800              0.4652060              0.2521540
SP   3   1.00
      3.1864900             -0.2518300             -0.0142990
      1.1442700              0.0615890              0.3235720
      0.4203770              1.0601800              0.7435070
SP   1   1.00
      0.1426570              1.0000000              1.0000000
D    1   1.00
      1.5000000              1.0000000
D    1   1.00
      0.3750000              1.0000000
F    1   1.00
      0.7000000              1.0000000
****
}

set {
reference uhf
freeze_core true
e_convergence 10
d_convergence 10
dft_spherical_points 1202
dft_radial_points 99
}

e = energy('b3lyp')

print_out('Grab this energy {0}'.format(e))
--------------------------------------------------------------------------

    Molecular point group: c1

    Geometry (in Bohr), charge = 0, multiplicity = 2:

       Center              X                  Y                   Z               Mass
    ------------   -----------------  -----------------  -----------------  -----------------
         C           -0.323662925322    -0.000001899558    -0.000697186458    12.000000000000
         C            0.061111690378    -1.402408345558    -2.429987768258    12.000000000000
         C            0.061136634378     2.807204823342    -0.000955954558    12.000000000000
         C            0.061401165978    -1.404791933458     2.432204851942    12.000000000000
         H            2.087133420578    -1.647772081758    -2.854093306358     1.007825032230
         H           -0.765509764222    -0.391337721658    -4.031756735458     1.007825032230
         H           -0.765611586822    -3.295540909258    -2.355005360258     1.007825032230
         H            2.087068214078     3.294697161942    -0.000288009558     1.007825032230
         H           -0.765772867322     3.686244984442     1.676504663442     1.007825032230
         H           -0.765895754022     3.686268038942    -1.677265589358     1.007825032230
         H            2.087277033778    -1.647019394758     2.852213380242     1.007825032230
         H           -0.765898695322    -3.295126226758     2.352987812242     1.007825032230
         H           -0.765674021922    -0.390445341958     4.029988376342     1.007825032230

  Charge       = 0
  Multiplicity = 2
  Basis Set: ANONYMOUSCCB76AD1
    Blend: 6-31G_2DFP_
  Basis Set: (ANONYMOUSCCB76AD1 AUX)
    Blend: DEF2-UNIVERSAL-JKFIT

    Orbital Energies [Eh]
    ---------------------

    Alpha Occupied:

       1A    -10.181113     2A    -10.167419     3A    -10.167380
       4A    -10.167329     5A     -0.796721     6A     -0.685911
       7A     -0.685864     8A     -0.530778     9A     -0.440531
      10A     -0.434274    11A     -0.434110    12A     -0.382615
      13A     -0.382434    14A     -0.363730    15A     -0.338019
      16A     -0.337603    17A     -0.169286

    Alpha Virtual:

      18A      0.076102    19A      0.134094    20A      0.134134
      21A      0.142360    22A      0.142493    23A      0.154818
      24A      0.178521    25A      0.178685    26A      0.202435
      27A      0.214457    28A      0.275228    29A      0.275680
      30A      0.399241    31A      0.399253    32A      0.403550
      33A      0.424337    34A      0.424429    35A      0.456031
      36A      0.495142    37A      0.495185    38A      0.511827
      39A      0.513571    40A      0.578075    41A      0.578161
      42A      0.591028    43A      0.591155    44A      0.602125
      45A      0.624355    46A      0.631418    47A      0.635289
      48A      0.635616    49A      0.662869    50A      0.662994
      51A      0.683388    52A      0.683434    53A      0.735194
      54A      0.825507    55A      0.825617    56A      0.852910
      57A      0.914285    58A      0.914317    59A      0.942802
      60A      0.945183    61A      0.960301    62A      0.960369
      63A      1.002333    64A      1.127141    65A      1.127290
      66A      1.141886    67A      1.162206    68A      1.162775
      69A      1.222435    70A      1.273275    71A      1.273880
      72A      1.278852    73A      1.323955    74A      1.324087
      75A      1.355821    76A      1.364086    77A      1.364382
      78A      1.390934    79A      1.404126    80A      1.404507
      81A      1.416581    82A      1.416925    83A      1.426495
      84A      1.490295    85A      1.498509    86A      1.542018
      87A      1.542160    88A      1.573084    89A      1.573474
      90A      1.669893    91A      1.738653    92A      1.738919
      93A      1.766804    94A      1.829695    95A      1.830703
      96A      1.970360    97A      2.015978    98A      2.017419
      99A      2.018476   100A      2.047516   101A      2.048865
     102A      2.737758   103A      2.738006   104A      2.789761
     105A      2.808704   106A      2.888708   107A      2.888860
     108A      2.893425   109A      2.929268   110A      2.929386
     111A      2.958757   112A      2.964593   113A      2.964761
     114A      3.034038   115A      3.070205   116A      3.070487
     117A      3.082783   118A      3.167732   119A      3.168113
     120A      3.178754   121A      3.284787   122A      3.284789
     123A      3.326550   124A      3.326933   125A      3.376972
     126A      3.488033   127A      3.488673   128A      3.513233
     129A      3.522980   130A      3.568377   131A      3.568563
     132A      3.573028   133A      3.665734   134A      3.667095
     135A      3.677747   136A      3.692575   137A      3.692829
     138A      3.772151   139A      3.772518   140A      3.788418
     141A      3.909385   142A      3.910891   143A      4.032618
     144A      4.108344   145A      4.108611   146A      4.147100
     147A      4.147749   148A      4.172034   149A      4.200258
     150A      4.200950   151A      4.201519   152A      4.209245
     153A      4.313695   154A      4.315135   155A      4.356488
     156A      4.421418   157A      4.423295   158A      4.441117
     159A      4.513215   160A      4.514515   161A      4.574690
     162A      4.574747   163A      4.610247   164A      4.704685
     165A      4.767837   166A      4.768459   167A      4.832963
     168A      4.959813   169A      5.000644   170A      5.002073
     171A      5.227026   172A      5.245201   173A      5.245599
     174A      5.352847   175A      5.352964   176A      5.473648

    Beta Occupied:

       1A    -10.168176     2A    -10.168137     3A    -10.168095
       4A    -10.167260     5A     -0.780069     6A     -0.683739
       7A     -0.683681     8A     -0.511649     9A     -0.430666
      10A     -0.430498    11A     -0.421325    12A     -0.376756
      13A     -0.376536    14A     -0.362725    15A     -0.333138
      16A     -0.332720

    Beta Virtual:

      17A     -0.025775    18A      0.077100    19A      0.135009
      20A      0.135012    21A      0.144219    22A      0.144318
      23A      0.163234    24A      0.182178    25A      0.182318
      26A      0.214680    27A      0.217998    28A      0.281654
      29A      0.282089    30A      0.400381    31A      0.400389
      32A      0.420092    33A      0.427156    34A      0.427250
      35A      0.467584    36A      0.497383    37A      0.497438
      38A      0.513546    39A      0.555986    40A      0.583615
      41A      0.583710    42A      0.597267    43A      0.597392
      44A      0.609513    45A      0.627670    46A      0.631566
      47A      0.638506    48A      0.638824    49A      0.666467
      50A      0.666604    51A      0.685957    52A      0.685979
      53A      0.757895    54A      0.830653    55A      0.830774
      56A      0.854227    57A      0.922241    58A      0.922278
      59A      0.944635    60A      0.954202    61A      0.965586
      62A      0.965647    63A      1.007651    64A      1.131176
      65A      1.131317    66A      1.155246    67A      1.167260
      68A      1.167864    69A      1.231267    70A      1.278830
      71A      1.279442    72A      1.284671    73A      1.328961
      74A      1.329066    75A      1.365208    76A      1.369363
      77A      1.369606    78A      1.391984    79A      1.407678
      80A      1.407953    81A      1.421591    82A      1.421893
      83A      1.426739    84A      1.491344    85A      1.508889
      86A      1.546474    87A      1.546633    88A      1.580882
      89A      1.581283    90A      1.674732    91A      1.744407
      92A      1.744681    93A      1.777562    94A      1.833542
      95A      1.834530    96A      1.971215    97A      2.023789
      98A      2.024868    99A      2.037306   100A      2.054205
     101A      2.055554   102A      2.746212   103A      2.746414
     104A      2.809111   105A      2.814916   106A      2.901640
     107A      2.901745   108A      2.923061   109A      2.931606
     110A      2.931695   111A      2.959807   112A      2.969066
     113A      2.969261   114A      3.041885   115A      3.080033
     116A      3.080302   117A      3.084586   118A      3.183539
     119A      3.183951   120A      3.186560   121A      3.289386
     122A      3.289437   123A      3.330439   124A      3.330804
     125A      3.384808   126A      3.490756   127A      3.491443
     128A      3.511607   129A      3.526077   130A      3.572862
     131A      3.581686   132A      3.581901   133A      3.670556
     134A      3.671987   135A      3.691054   136A      3.724382
     137A      3.724642   138A      3.776592   139A      3.777045
     140A      3.817097   141A      3.919245   142A      3.920650
     143A      4.043574   144A      4.115331   145A      4.115799
     146A      4.154222   147A      4.154679   148A      4.185979
     149A      4.206252   150A      4.207052   151A      4.209206
     152A      4.213646   153A      4.321076   154A      4.322571
     155A      4.359871   156A      4.429546   157A      4.431358
     158A      4.444015   159A      4.520884   160A      4.522172
     161A      4.585256   162A      4.585344   163A      4.617456
     164A      4.714948   165A      4.774806   166A      4.775389
     167A      4.835883   168A      4.964586   169A      5.004659
     170A      5.006058   171A      5.232703   172A      5.246981
     173A      5.247364   174A      5.359253   175A      5.359411
     176A      5.475947

    Final Occupation by Irrep:
              A
    DOCC [    16 ]
    SOCC [     1 ]

  @DF-UKS Final Energy:  -157.81307175902433

   => Energetics <=

    Nuclear Repulsion Energy =            125.2136452093814967
    One-Electron Energy =                -458.3925641209817741
    Two-Electron Energy =                 195.6691976641156714
    DFT Exchange-Correlation Energy =     -20.3033505115397439
    Empirical Dispersion Energy =           0.0000000000000000
    VV10 Nonlocal Energy =                  0.0000000000000000
    Total Energy =                       -157.8130717590243250

  UHF NO Occupations:
  HONO-2 :   15  A 1.9996026
  HONO-1 :   16  A 1.9989734
  HONO-0 :   17  A 1.0000000
  LUNO+0 :   18  A 0.0010266
  LUNO+1 :   19  A 0.0003974
  LUNO+2 :   20  A 0.0002001
  LUNO+3 :   21  A 0.0001994

Computation Completed

Properties will be evaluated at   0.000000,   0.000000,   0.000000 [a0]

Properties computed using the SCF density matrix

  Nuclear Dipole Moment: [e a0]
     X:     0.8270      Y:    -0.0000      Z:    -0.0033

  Electronic Dipole Moment: [e a0]
     X:    -0.7483      Y:     0.0000      Z:     0.0034

  Dipole Moment: [e a0]
     X:     0.0788      Y:     0.0000      Z:     0.0001     Total:     0.0788

  Dipole Moment: [D]
     X:     0.2002      Y:     0.0000      Z:     0.0002     Total:     0.2002

*** tstop() called on n082 at Fri Nov  5 13:17:01 2021
Module time:
	user time   =     466.92 seconds =       7.78 minutes
	system time =       4.30 seconds =       0.07 minutes
	total time  =        119 seconds =       1.98 minutes
Total time:
	user time   =     466.92 seconds =       7.78 minutes
	system time =       4.30 seconds =       0.07 minutes
	total time  =        119 seconds =       1.98 minutes
Grab this energy -157.81307175902433
    Psi4 stopped on: Friday, 05 November 2021 01:17PM
    Psi4 wall time for execution: 0:01:58.52

*** Psi4 exiting successfully. Buy a developer a beer!
