                               Psi4 1.4a2.dev629

  ==> Input File <==

--------------------------------------------------------------------------
import os
memory 14 GB

molecule {
 C   -0.3233524424   -0.0000021274   -0.0000000000
 C    0.0609568737   -1.4000576116   -2.4249600901
 C    0.0608372479    2.8001205750   -0.0000000000
 C    0.0609568737   -1.4000576116    2.4249600901
 H    2.0868842021   -1.6443477333   -2.8478741214
 H   -0.7652852376   -0.3885551625   -4.0258490697
 H   -0.7654485075   -3.2921509433   -2.3494606445
 H    2.0867453143    3.2886026880    0.0000000000
 H   -0.7655263289    3.6807387261    1.6763948656
 H   -0.7655263289    3.6807387261   -1.6763948656
 H    2.0868842021   -1.6443477333    2.8478741214
 H   -0.7654485075   -3.2921509433    2.3494606445
 H   -0.7652852376   -0.3885551625    4.0258490697
units bohr
0 2
}

basis {

assign 6-31g_2dfp_

[ 6-31g_2dfp_ ]

spherical

!----------------------------------------------------------------------
! Basis Set Exchange
! Version v0.8.13
! https://www.basissetexchange.org
!----------------------------------------------------------------------
!   Basis set: 6-31G(2df,p)
! Description: 6-31G(2df,p)
!        Role: orbital
!     Version: 0  (Data from the original Basis Set Exchange)
!----------------------------------------------------------------------

****
H     0
S    3   1.00
     18.7311370              0.03349460
      2.8253937              0.23472695
      0.6401217              0.81375733
S    1   1.00
      0.1612778              1.00000000
P    1   1.00
      1.5000000              1.0000000
P    1   1.00
      0.3750000              1.0000000
****
B     0
S    6   1.00
   2068.8823000              0.0018663
    310.6495700              0.0142515
     70.6830330              0.0695516
     19.8610800              0.2325729
      6.2993048              0.4670787
      2.1270270              0.3634314
SP   3   1.00
      4.7279710             -0.1303938              0.0745976
      1.1903377             -0.1307889              0.3078467
      0.3594117              1.1309444              0.7434568
SP   1   1.00
      0.1267512              1.0000000              1.0000000
D    1   1.00
      0.8020000              1.0000000
D    1   1.00
      0.2005000              1.0000000
F    1   1.00
      0.5000000              1.0000000
****
C     0
S    6   1.00
   3047.5249000              0.0018347
    457.3695100              0.0140373
    103.9486900              0.0688426
     29.2101550              0.2321844
      9.2866630              0.4679413
      3.1639270              0.3623120
SP   3   1.00
      7.8682724             -0.1193324              0.0689991
      1.8812885             -0.1608542              0.3164240
      0.5442493              1.1434564              0.7443083
SP   1   1.00
      0.1687144              1.0000000              1.0000000
D    1   1.00
      1.2520000              1.0000000
D    1   1.00
      0.3130000              1.0000000
F    1   1.00
      0.8000000              1.0000000
****
N     0
S    6   1.00
   4173.5110000              0.0018348
    627.4579000              0.0139950
    142.9021000              0.0685870
     40.2343300              0.2322410
     12.8202100              0.4690700
      4.3904370              0.3604550
SP   3   1.00
     11.6263580             -0.1149610              0.0675800
      2.7162800             -0.1691180              0.3239070
      0.7722180              1.1458520              0.7408950
SP   1   1.00
      0.2120313              1.0000000              1.0000000
D    1   1.00
      1.8260000              1.0000000
D    1   1.00
      0.4565000              1.0000000
F    1   1.00
      1.0000000              1.0000000
****
O     0
S    6   1.00
   5484.6717000              0.0018311
    825.2349500              0.0139501
    188.0469600              0.0684451
     52.9645000              0.2327143
     16.8975700              0.4701930
      5.7996353              0.3585209
SP   3   1.00
     15.5396160             -0.1107775              0.0708743
      3.5999336             -0.1480263              0.3397528
      1.0137618              1.1307670              0.7271586
SP   1   1.00
      0.2700058              1.0000000              1.0000000
D    1   1.00
      2.5840000              1.0000000
D    1   1.00
      0.6460000              1.0000000
F    1   1.00
      1.4000000              1.0000000
****
F     0
S    6   1.00
   7001.7130900              0.0018196169
   1051.3660900              0.0139160796
    239.2856900              0.0684053245
     67.3974453              0.233185760
     21.5199573              0.471267439
      7.40310130             0.356618546
SP   3   1.00
     20.8479528             -0.108506975            0.0716287243
      4.80830834            -0.146451658            0.3459121030
      1.34406986             1.128688580            0.7224699570
SP   1   1.00
      0.358151393            1.0000000              1.0000000
D    1   1.00
      3.5000000              1.0000000
D    1   1.00
      0.8750000              1.0000000
F    1   1.00
      1.8500000              1.0000000
****
Al     0
S    6   1.00
  13983.1000000              0.00194267
   2098.7500000              0.0148599
    477.7050000              0.0728494
    134.3600000              0.2468300
     42.8709000              0.4872580
     14.5189000              0.3234960
SP   6   1.00
    239.6680000             -0.00292619             0.00460285
     57.4419000             -0.0374080              0.0331990
     18.2859000             -0.1144870              0.1362820
      6.5991400              0.1156350              0.3304760
      2.4904900              0.6125950              0.4491460
      0.9445400              0.3937990              0.2657040
SP   3   1.00
      1.2779000             -0.2276060             -0.0175130
      0.3975900              0.00144583             0.2445330
      0.1600950              1.0927900              0.8049340
SP   1   1.00
      0.0556577              1.0000000              1.0000000
D    1   1.00
      0.6500000              1.0000000
D    1   1.00
      0.1625000              1.0000000
F    1   1.00
      0.2500000              1.0000000
****
Si     0
S    6   1.00
  16115.9000000              0.00195948
   2425.5800000              0.01492880
    553.8670000              0.07284780
    156.3400000              0.24613000
     50.0683000              0.48591400
     17.0178000              0.32500200
SP   6   1.00
    292.7180000             -0.00278094             0.00443826
     69.8731000             -0.03571460             0.03266790
     22.3363000             -0.11498500             0.13472100
      8.1503900              0.09356340             0.32867800
      3.1345800              0.60301700             0.44964000
      1.2254300              0.41895900             0.26137200
SP   3   1.00
      1.7273800             -0.24463000            -0.01779510
      0.5729220              0.00431572             0.25353900
      0.2221920              1.09818000             0.80066900
SP   1   1.00
      0.0778369              1.00000000             1.00000000
D    1   1.00
      0.9000000              1.0000000
D    1   1.00
      0.2250000              1.0000000
F    1   1.00
      0.3200000              1.0000000
****
P     0
S    6   1.00
  19413.3000000              0.0018516
   2909.4200000              0.0142062
    661.3640000              0.0699995
    185.7590000              0.2400790
     59.1943000              0.4847620
     20.0310000              0.3352000
SP   6   1.00
    339.4780000             -0.00278217             0.00456462
     81.0101000             -0.0360499              0.03369360
     25.8780000             -0.1166310              0.13975500
      9.4522100              0.0968328              0.33936200
      3.6656600              0.6144180              0.45092100
      1.4674600              0.4037980              0.23858600
SP   3   1.00
      2.1562300             -0.2529230             -0.01776530
      0.7489970              0.0328517              0.27405800
      0.2831450              1.0812500              0.78542100
SP   1   1.00
      0.0998317              1.0000000              1.00000000
D    1   1.00
      1.1000000              1.0000000
D    1   1.00
      0.2750000              1.0000000
F    1   1.00
      0.4500000              1.0000000
****
S     0
S    6   1.00
  21917.1000000              0.0018690
   3301.4900000              0.0142300
    754.1460000              0.0696960
    212.7110000              0.2384870
     67.9896000              0.4833070
     23.0515000              0.3380740
SP   6   1.00
    423.7350000             -0.0023767              0.0040610
    100.7100000             -0.0316930              0.0306810
     32.1599000             -0.1133170              0.1304520
     11.8079000              0.0560900              0.3272050
      4.6311000              0.5922550              0.4528510
      1.8702500              0.4550060              0.2560420
SP   3   1.00
      2.6158400             -0.2503740             -0.0145110
      0.9221670              0.0669570              0.3102630
      0.3412870              1.0545100              0.7544830
SP   1   1.00
      0.1171670              1.0000000              1.0000000
D    1   1.00
      1.3000000              1.0000000
D    1   1.00
      0.3250000              1.0000000
F    1   1.00
      0.5500000              1.0000000
****
Cl     0
S    6   1.00
  25180.1000000              0.0018330
   3780.3500000              0.0140340
    860.4740000              0.0690970
    242.1450000              0.2374520
     77.3349000              0.4830340
     26.2470000              0.3398560
SP   6   1.00
    491.7650000             -0.0022974              0.0039894
    116.9840000             -0.0307140              0.0303180
     37.4153000             -0.1125280              0.1298800
     13.7834000              0.0450160              0.3279510
      5.4521500              0.5893530              0.4535270
      2.2258800              0.4652060              0.2521540
SP   3   1.00
      3.1864900             -0.2518300             -0.0142990
      1.1442700              0.0615890              0.3235720
      0.4203770              1.0601800              0.7435070
SP   1   1.00
      0.1426570              1.0000000              1.0000000
D    1   1.00
      1.5000000              1.0000000
D    1   1.00
      0.3750000              1.0000000
F    1   1.00
      0.7000000              1.0000000
****
}

set {
reference uhf
freeze_core true
e_convergence 10
d_convergence 10
dft_spherical_points 1202
dft_radial_points 99
}

e = energy('b3lyp')

print_out('Grab this energy {0}'.format(e))
--------------------------------------------------------------------------

    Molecular point group: cs

    Geometry (in Bohr), charge = 0, multiplicity = 2:

       Center              X                  Y                   Z               Mass
    ------------   -----------------  -----------------  -----------------  -----------------
         C           -0.323244300727    -0.000002319081     0.000000000000    12.000000000000
         C            0.061065015373    -1.400057803281    -2.424960090100    12.000000000000
         C            0.060945389573     2.800120383319     0.000000000000    12.000000000000
         C            0.061065015373    -1.400057803281     2.424960090100    12.000000000000
         H            2.086992343773    -1.644347924981    -2.847874121400     1.007825032230
         H           -0.765177095927    -0.388555354181    -4.025849069700     1.007825032230
         H           -0.765340365827    -3.292151134981    -2.349460644500     1.007825032230
         H            2.086853455973     3.288602496319     0.000000000000     1.007825032230
         H           -0.765418187227     3.680738534419     1.676394865600     1.007825032230
         H           -0.765418187227     3.680738534419    -1.676394865600     1.007825032230
         H            2.086992343773    -1.644347924981     2.847874121400     1.007825032230
         H           -0.765340365827    -3.292151134981     2.349460644500     1.007825032230
         H           -0.765177095927    -0.388555354181     4.025849069700     1.007825032230

  Charge       = 0
  Multiplicity = 2
  Basis Set: ANONYMOUSE133C7B5
    Blend: 6-31G_2DFP_
  Basis Set: (ANONYMOUSE133C7B5 AUX)
    Blend: DEF2-UNIVERSAL-JKFIT

    Orbital Energies [Eh]
    ---------------------

    Alpha Occupied:

       1Ap   -10.180290     2Ap   -10.167083     1App  -10.167083
       3Ap   -10.167037     4Ap    -0.798023     5Ap    -0.686196
       2App   -0.686195     6Ap    -0.530942     7Ap    -0.441133
       3App   -0.434739     8Ap    -0.434739     9Ap    -0.382462
       4App   -0.382460     5App   -0.363410     6App   -0.338159
      10Ap    -0.338159    11Ap    -0.168982

    Alpha Virtual:

      12Ap     0.076065    13Ap     0.134098     7App    0.134099
      14Ap     0.142495     8App    0.142495    15Ap     0.154985
      16Ap     0.178613     9App    0.178613    17Ap     0.203836
      10App    0.214678    11App    0.276226    18Ap     0.276227
      19Ap     0.399221    12App    0.399225    20Ap     0.403253
      13App    0.424043    21Ap     0.424043    22Ap     0.456774
      23Ap     0.495380    14App    0.495381    15App    0.512105
      24Ap     0.513921    25Ap     0.578770    16App    0.578779
      17App    0.591533    26Ap     0.591535    27Ap     0.602527
      28Ap     0.624643    18App    0.631546    19App    0.636301
      29Ap     0.636305    30Ap     0.663527    20App    0.663527
      31Ap     0.683837    21App    0.683838    32Ap     0.734862
      22App    0.825427    33Ap     0.825430    23App    0.854052
      24App    0.914982    34Ap     0.914987    25App    0.944172
      35Ap     0.944926    26App    0.961217    36Ap     0.961234
      37Ap     1.003284    38Ap     1.128182    27App    1.128195
      39Ap     1.142638    40Ap     1.162652    28App    1.162665
      41Ap     1.223753    42Ap     1.274618    29App    1.274621
      43Ap     1.279517    30App    1.324557    44Ap     1.324559
      45Ap     1.356331    31App    1.366194    46Ap     1.366198
      32App    1.391964    47Ap     1.403332    33App    1.403334
      34App    1.417088    48Ap     1.417094    35App    1.427656
      36App    1.492017    49Ap     1.498495    37App    1.542985
      50Ap     1.542988    51Ap     1.574546    38App    1.574548
      52Ap     1.669040    53Ap     1.739914    39App    1.739925
      54Ap     1.768290    40App    1.830969    55Ap     1.830970
      41App    1.972325    56Ap     2.018081    57Ap     2.019787
      42App    2.019792    58Ap     2.053071    43App    2.053072
      44App    2.738660    59Ap     2.738661    60Ap     2.791146
      45App    2.811514    61Ap     2.890058    46App    2.890065
      62Ap     2.895347    63Ap     2.929332    47App    2.929340
      48App    2.958945    64Ap     2.964339    49App    2.964353
      65Ap     3.034182    50App    3.071226    66Ap     3.071240
      51App    3.084755    67Ap     3.168880    52App    3.168888
      68Ap     3.181179    53App    3.284983    69Ap     3.284983
      70Ap     3.327401    54App    3.327407    71Ap     3.375519
      55App    3.490240    72Ap     3.490259    56App    3.514162
      73Ap     3.525676    57App    3.568624    74Ap     3.568645
      58App    3.575003    75Ap     3.665594    59App    3.665602
      76Ap     3.679082    60App    3.694019    77Ap     3.694036
      78Ap     3.776847    61App    3.776873    79Ap     3.788822
      80Ap     3.913321    62App    3.913327    81Ap     4.035017
      82Ap     4.111095    63App    4.111100    83Ap     4.148120
      64App    4.148128    84Ap     4.173924    85Ap     4.203525
      65App    4.203740    86Ap     4.203743    66App    4.211202
      87Ap     4.315824    67App    4.315844    68App    4.358339
      88Ap     4.423285    69App    4.423288    70App    4.441465
      71App    4.517177    89Ap     4.517177    72App    4.578988
      90Ap     4.579000    91Ap     4.617907    92Ap     4.710735
      93Ap     4.775376    73App    4.775384    74App    4.838221
      94Ap     4.961553    75App    5.002068    95Ap     5.002081
      96Ap     5.227514    76App    5.246526    97Ap     5.246526
      98Ap     5.355656    77App    5.355669    78App    5.480568

    Beta Occupied:

       1Ap   -10.167838     1App  -10.167837     2Ap   -10.167811
       3Ap   -10.166478     4Ap    -0.781333     5Ap    -0.683993
       2App   -0.683992     6Ap    -0.511959     3App   -0.431091
       7Ap    -0.431091     8Ap    -0.421789     9Ap    -0.376531
       4App   -0.376529     5App   -0.362390     6App   -0.333297
      10Ap    -0.333296

    Beta Virtual:

      11Ap    -0.025912    12Ap     0.077077    13Ap     0.134996
       7App    0.134997    14Ap     0.144367     8App    0.144367
      15Ap     0.163487    16Ap     0.182299     9App    0.182299
      10App    0.214910    17Ap     0.219170    11App    0.282554
      18Ap     0.282556    19Ap     0.400397    12App    0.400401
      20Ap     0.419708    13App    0.426856    21Ap     0.426856
      22Ap     0.468758    23Ap     0.497647    14App    0.497648
      15App    0.513849    24Ap     0.556236    25Ap     0.584320
      16App    0.584328    17App    0.597703    26Ap     0.597704
      27Ap     0.609946    28Ap     0.628055    18App    0.631705
      19App    0.639605    29Ap     0.639608    30Ap     0.667092
      20App    0.667093    31Ap     0.686482    21App    0.686484
      32Ap     0.757309    22App    0.830611    33Ap     0.830613
      23App    0.855417    24App    0.922950    34Ap     0.922956
      25App    0.946016    35Ap     0.953868    26App    0.966532
      36Ap     0.966548    37Ap     1.008514    38Ap     1.132204
      27App    1.132216    39Ap     1.156057    40Ap     1.167715
      28App    1.167728    41Ap     1.232667    42Ap     1.280247
      29App    1.280251    43Ap     1.285246    30App    1.329569
      44Ap     1.329571    45Ap     1.365758    31App    1.371374
      46Ap     1.371379    32App    1.393029    47Ap     1.406831
      33App    1.406833    34App    1.422140    48Ap     1.422146
      35App    1.427912    36App    1.493078    49Ap     1.508960
      50Ap     1.547416    37App    1.547416    38App    1.582401
      51Ap     1.582401    52Ap     1.673881    53Ap     1.745672
      39App    1.745684    54Ap     1.779111    40App    1.834849
      55Ap     1.834850    41App    1.973192    56Ap     2.026250
      42App    2.026255    57Ap     2.039464    58Ap     2.059746
      43App    2.059746    44App    2.746964    59Ap     2.746966
      45App    2.811924    60Ap     2.816248    61Ap     2.902707
      46App    2.902713    62Ap     2.925096    63Ap     2.931840
      47App    2.931849    48App    2.960005    64Ap     2.968914
      49App    2.968928    65Ap     3.042160    50App    3.081182
      66Ap     3.081193    51App    3.086578    67Ap     3.184542
      52App    3.184547    68Ap     3.188825    69Ap     3.289830
      53App    3.289830    70Ap     3.331200    54App    3.331206
      71Ap     3.383371    55App    3.492979    72Ap     3.492998
      56App    3.512524    73Ap     3.528684    57App    3.574868
      58App    3.581892    74Ap     3.581914    75Ap     3.670166
      59App    3.670177    76Ap     3.692376    60App    3.725759
      77Ap     3.725775    78Ap     3.781433    61App    3.781460
      79Ap     3.817314    80Ap     3.923099    62App    3.923106
      81Ap     4.045825    82Ap     4.118008    63App    4.118010
      83Ap     4.155275    64App    4.155284    84Ap     4.188040
      65App    4.209677    85Ap     4.209680    86Ap     4.211532
      66App    4.215691    87Ap     4.323172    67App    4.323193
      68App    4.361722    88Ap     4.431568    69App    4.431571
      70App    4.444346    71App    4.525030    89Ap     4.525031
      72App    4.589609    90Ap     4.589621    91Ap     4.625119
      92Ap     4.721083    93Ap     4.782328    73App    4.782335
      74App    4.841135    94Ap     4.966370    75App    5.006130
      95Ap     5.006143    96Ap     5.233247    76App    5.248320
      97Ap     5.248320    98Ap     5.362165    77App    5.362178
      78App    5.482897

    Final Occupation by Irrep:
             Ap   App
    DOCC [    10,    6 ]
    SOCC [     1,    0 ]

  @DF-UKS Final Energy:  -157.81309449650888

   => Energetics <=

    Nuclear Repulsion Energy =            125.4225364935209939
    One-Electron Energy =                -458.8038444833327958
    Two-Electron Energy =                 195.8752392277525303
    DFT Exchange-Correlation Energy =     -20.3070257344495921
    Empirical Dispersion Energy =           0.0000000000000000
    VV10 Nonlocal Energy =                  0.0000000000000000
    Total Energy =                       -157.8130944965088815

  UHF NO Occupations:
  HONO-2 :    9 Ap 1.9995993
  HONO-1 :   10 Ap 1.9989827
  HONO-0 :   11 Ap 1.0000000
  LUNO+0 :   12 Ap 0.0010173
  LUNO+1 :   13 Ap 0.0004007
  LUNO+2 :    7App 0.0001968
  LUNO+3 :   14 Ap 0.0001968

Computation Completed

Properties will be evaluated at   0.000000,   0.000000,   0.000000 [a0]

Properties computed using the SCF density matrix

  Nuclear Dipole Moment: [e a0]
     X:     0.8280      Y:    -0.0000      Z:     0.0000

  Electronic Dipole Moment: [e a0]
     X:    -0.7502      Y:     0.0000      Z:     0.0000

  Dipole Moment: [e a0]
     X:     0.0778      Y:     0.0000      Z:     0.0000     Total:     0.0778

  Dipole Moment: [D]
     X:     0.1977      Y:     0.0000      Z:     0.0000     Total:     0.1977

*** tstop() called on n091 at Fri Nov  5 13:18:44 2021
Module time:
	user time   =     578.96 seconds =       9.65 minutes
	system time =       5.41 seconds =       0.09 minutes
	total time  =        147 seconds =       2.45 minutes
Total time:
	user time   =     578.96 seconds =       9.65 minutes
	system time =       5.41 seconds =       0.09 minutes
	total time  =        147 seconds =       2.45 minutes
Grab this energy -157.81309449650888
    Psi4 stopped on: Friday, 05 November 2021 01:18PM
    Psi4 wall time for execution: 0:02:26.88

*** Psi4 exiting successfully. Buy a developer a beer!
