                               Psi4 1.4a2.dev629

  ==> Input File <==

--------------------------------------------------------------------------
import os
memory 14 GB

molecule {
 C   -0.3201511688   -0.0000020037   -0.0000000000
 C    0.0625578829   -1.4011167443   -2.4267949908
 C    0.0624380674    2.8022377996   -0.0000000000
 C    0.0625578829   -1.4011167443    2.4267949908
 H    2.0834519289   -1.6441436521   -2.8475206828
 H   -0.7649033317   -0.3910046377   -4.0239223425
 H   -0.7650662200   -3.2892577561   -2.3506184754
 H    2.0833132878    3.2881948095   -0.0000000000
 H   -0.7651442916    3.6802953307    1.6733104547
 H   -0.7651442916    3.6802953307   -1.6733104547
 H    2.0834519289   -1.6441436521    2.8475206828
 H   -0.7650662200   -3.2892577561    2.3506184754
 H   -0.7649033317   -0.3910046377    4.0239223425
units bohr
0 2
}

basis {

assign 6-31g_2dfp_

[ 6-31g_2dfp_ ]

spherical

!----------------------------------------------------------------------
! Basis Set Exchange
! Version v0.8.13
! https://www.basissetexchange.org
!----------------------------------------------------------------------
!   Basis set: 6-31G(2df,p)
! Description: 6-31G(2df,p)
!        Role: orbital
!     Version: 0  (Data from the original Basis Set Exchange)
!----------------------------------------------------------------------

****
H     0
S    3   1.00
     18.7311370              0.03349460
      2.8253937              0.23472695
      0.6401217              0.81375733
S    1   1.00
      0.1612778              1.00000000
P    1   1.00
      1.5000000              1.0000000
P    1   1.00
      0.3750000              1.0000000
****
B     0
S    6   1.00
   2068.8823000              0.0018663
    310.6495700              0.0142515
     70.6830330              0.0695516
     19.8610800              0.2325729
      6.2993048              0.4670787
      2.1270270              0.3634314
SP   3   1.00
      4.7279710             -0.1303938              0.0745976
      1.1903377             -0.1307889              0.3078467
      0.3594117              1.1309444              0.7434568
SP   1   1.00
      0.1267512              1.0000000              1.0000000
D    1   1.00
      0.8020000              1.0000000
D    1   1.00
      0.2005000              1.0000000
F    1   1.00
      0.5000000              1.0000000
****
C     0
S    6   1.00
   3047.5249000              0.0018347
    457.3695100              0.0140373
    103.9486900              0.0688426
     29.2101550              0.2321844
      9.2866630              0.4679413
      3.1639270              0.3623120
SP   3   1.00
      7.8682724             -0.1193324              0.0689991
      1.8812885             -0.1608542              0.3164240
      0.5442493              1.1434564              0.7443083
SP   1   1.00
      0.1687144              1.0000000              1.0000000
D    1   1.00
      1.2520000              1.0000000
D    1   1.00
      0.3130000              1.0000000
F    1   1.00
      0.8000000              1.0000000
****
N     0
S    6   1.00
   4173.5110000              0.0018348
    627.4579000              0.0139950
    142.9021000              0.0685870
     40.2343300              0.2322410
     12.8202100              0.4690700
      4.3904370              0.3604550
SP   3   1.00
     11.6263580             -0.1149610              0.0675800
      2.7162800             -0.1691180              0.3239070
      0.7722180              1.1458520              0.7408950
SP   1   1.00
      0.2120313              1.0000000              1.0000000
D    1   1.00
      1.8260000              1.0000000
D    1   1.00
      0.4565000              1.0000000
F    1   1.00
      1.0000000              1.0000000
****
O     0
S    6   1.00
   5484.6717000              0.0018311
    825.2349500              0.0139501
    188.0469600              0.0684451
     52.9645000              0.2327143
     16.8975700              0.4701930
      5.7996353              0.3585209
SP   3   1.00
     15.5396160             -0.1107775              0.0708743
      3.5999336             -0.1480263              0.3397528
      1.0137618              1.1307670              0.7271586
SP   1   1.00
      0.2700058              1.0000000              1.0000000
D    1   1.00
      2.5840000              1.0000000
D    1   1.00
      0.6460000              1.0000000
F    1   1.00
      1.4000000              1.0000000
****
F     0
S    6   1.00
   7001.7130900              0.0018196169
   1051.3660900              0.0139160796
    239.2856900              0.0684053245
     67.3974453              0.233185760
     21.5199573              0.471267439
      7.40310130             0.356618546
SP   3   1.00
     20.8479528             -0.108506975            0.0716287243
      4.80830834            -0.146451658            0.3459121030
      1.34406986             1.128688580            0.7224699570
SP   1   1.00
      0.358151393            1.0000000              1.0000000
D    1   1.00
      3.5000000              1.0000000
D    1   1.00
      0.8750000              1.0000000
F    1   1.00
      1.8500000              1.0000000
****
Al     0
S    6   1.00
  13983.1000000              0.00194267
   2098.7500000              0.0148599
    477.7050000              0.0728494
    134.3600000              0.2468300
     42.8709000              0.4872580
     14.5189000              0.3234960
SP   6   1.00
    239.6680000             -0.00292619             0.00460285
     57.4419000             -0.0374080              0.0331990
     18.2859000             -0.1144870              0.1362820
      6.5991400              0.1156350              0.3304760
      2.4904900              0.6125950              0.4491460
      0.9445400              0.3937990              0.2657040
SP   3   1.00
      1.2779000             -0.2276060             -0.0175130
      0.3975900              0.00144583             0.2445330
      0.1600950              1.0927900              0.8049340
SP   1   1.00
      0.0556577              1.0000000              1.0000000
D    1   1.00
      0.6500000              1.0000000
D    1   1.00
      0.1625000              1.0000000
F    1   1.00
      0.2500000              1.0000000
****
Si     0
S    6   1.00
  16115.9000000              0.00195948
   2425.5800000              0.01492880
    553.8670000              0.07284780
    156.3400000              0.24613000
     50.0683000              0.48591400
     17.0178000              0.32500200
SP   6   1.00
    292.7180000             -0.00278094             0.00443826
     69.8731000             -0.03571460             0.03266790
     22.3363000             -0.11498500             0.13472100
      8.1503900              0.09356340             0.32867800
      3.1345800              0.60301700             0.44964000
      1.2254300              0.41895900             0.26137200
SP   3   1.00
      1.7273800             -0.24463000            -0.01779510
      0.5729220              0.00431572             0.25353900
      0.2221920              1.09818000             0.80066900
SP   1   1.00
      0.0778369              1.00000000             1.00000000
D    1   1.00
      0.9000000              1.0000000
D    1   1.00
      0.2250000              1.0000000
F    1   1.00
      0.3200000              1.0000000
****
P     0
S    6   1.00
  19413.3000000              0.0018516
   2909.4200000              0.0142062
    661.3640000              0.0699995
    185.7590000              0.2400790
     59.1943000              0.4847620
     20.0310000              0.3352000
SP   6   1.00
    339.4780000             -0.00278217             0.00456462
     81.0101000             -0.0360499              0.03369360
     25.8780000             -0.1166310              0.13975500
      9.4522100              0.0968328              0.33936200
      3.6656600              0.6144180              0.45092100
      1.4674600              0.4037980              0.23858600
SP   3   1.00
      2.1562300             -0.2529230             -0.01776530
      0.7489970              0.0328517              0.27405800
      0.2831450              1.0812500              0.78542100
SP   1   1.00
      0.0998317              1.0000000              1.00000000
D    1   1.00
      1.1000000              1.0000000
D    1   1.00
      0.2750000              1.0000000
F    1   1.00
      0.4500000              1.0000000
****
S     0
S    6   1.00
  21917.1000000              0.0018690
   3301.4900000              0.0142300
    754.1460000              0.0696960
    212.7110000              0.2384870
     67.9896000              0.4833070
     23.0515000              0.3380740
SP   6   1.00
    423.7350000             -0.0023767              0.0040610
    100.7100000             -0.0316930              0.0306810
     32.1599000             -0.1133170              0.1304520
     11.8079000              0.0560900              0.3272050
      4.6311000              0.5922550              0.4528510
      1.8702500              0.4550060              0.2560420
SP   3   1.00
      2.6158400             -0.2503740             -0.0145110
      0.9221670              0.0669570              0.3102630
      0.3412870              1.0545100              0.7544830
SP   1   1.00
      0.1171670              1.0000000              1.0000000
D    1   1.00
      1.3000000              1.0000000
D    1   1.00
      0.3250000              1.0000000
F    1   1.00
      0.5500000              1.0000000
****
Cl     0
S    6   1.00
  25180.1000000              0.0018330
   3780.3500000              0.0140340
    860.4740000              0.0690970
    242.1450000              0.2374520
     77.3349000              0.4830340
     26.2470000              0.3398560
SP   6   1.00
    491.7650000             -0.0022974              0.0039894
    116.9840000             -0.0307140              0.0303180
     37.4153000             -0.1125280              0.1298800
     13.7834000              0.0450160              0.3279510
      5.4521500              0.5893530              0.4535270
      2.2258800              0.4652060              0.2521540
SP   3   1.00
      3.1864900             -0.2518300             -0.0142990
      1.1442700              0.0615890              0.3235720
      0.4203770              1.0601800              0.7435070
SP   1   1.00
      0.1426570              1.0000000              1.0000000
D    1   1.00
      1.5000000              1.0000000
D    1   1.00
      0.3750000              1.0000000
F    1   1.00
      0.7000000              1.0000000
****
}

set {
reference uhf
freeze_core true
e_convergence 10
d_convergence 10
dft_spherical_points 1202
dft_radial_points 99
}

e = energy('b3lyp')

print_out('Grab this energy {0}'.format(e))
--------------------------------------------------------------------------

    Molecular point group: cs

    Geometry (in Bohr), charge = 0, multiplicity = 2:

       Center              X                  Y                   Z               Mass
    ------------   -----------------  -----------------  -----------------  -----------------
         C           -0.321584676653    -0.000002018741     0.000000000000    12.000000000000
         C            0.061124375047    -1.401116759341    -2.426794990800    12.000000000000
         C            0.061004559547     2.802237784559     0.000000000000    12.000000000000
         C            0.061124375047    -1.401116759341     2.426794990800    12.000000000000
         H            2.082018421047    -1.644143667141    -2.847520682800     1.007825032230
         H           -0.766336839553    -0.391004652741    -4.023922342500     1.007825032230
         H           -0.766499727853    -3.289257771141    -2.350618475400     1.007825032230
         H            2.081879779947     3.288194794459     0.000000000000     1.007825032230
         H           -0.766577799453     3.680295315659     1.673310454700     1.007825032230
         H           -0.766577799453     3.680295315659    -1.673310454700     1.007825032230
         H            2.082018421047    -1.644143667141     2.847520682800     1.007825032230
         H           -0.766499727853    -3.289257771141     2.350618475400     1.007825032230
         H           -0.766336839553    -0.391004652741     4.023922342500     1.007825032230

  Charge       = 0
  Multiplicity = 2
  Basis Set: ANONYMOUS1903868E
    Blend: 6-31G_2DFP_
  Basis Set: (ANONYMOUS1903868E AUX)
    Blend: DEF2-UNIVERSAL-JKFIT

    Orbital Energies [Eh]
    ---------------------

    Alpha Occupied:

       1Ap   -10.180161     2Ap   -10.166470     1App  -10.166470
       3Ap   -10.166425     4Ap    -0.797781     5Ap    -0.686560
       2App   -0.686559     6Ap    -0.531065     7Ap    -0.441460
       3App   -0.434664     8Ap    -0.434664     9Ap    -0.383107
       4App   -0.383105     5App   -0.363645     6App   -0.337956
      10Ap    -0.337955    11Ap    -0.168784

    Alpha Virtual:

      12Ap     0.076387    13Ap     0.134515     7App    0.134516
      14Ap     0.142955     8App    0.142955    15Ap     0.155242
      16Ap     0.179390     9App    0.179390    17Ap     0.203483
      10App    0.215126    11App    0.276146    18Ap     0.276148
      19Ap     0.399190    12App    0.399194    20Ap     0.403589
      13App    0.424377    21Ap     0.424377    22Ap     0.456729
      23Ap     0.495563    14App    0.495564    15App    0.512536
      24Ap     0.514109    25Ap     0.579058    16App    0.579067
      17App    0.592541    26Ap     0.592543    27Ap     0.603538
      28Ap     0.625600    18App    0.632337    19App    0.636675
      29Ap     0.636679    30Ap     0.663925    20App    0.663925
      31Ap     0.684379    21App    0.684380    32Ap     0.735433
      22App    0.826397    33Ap     0.826400    23App    0.854384
      24App    0.915902    34Ap     0.915908    25App    0.944856
      35Ap     0.945420    26App    0.961847    36Ap     0.961864
      37Ap     1.002675    38Ap     1.128291    27App    1.128303
      39Ap     1.143463    40Ap     1.163670    28App    1.163682
      41Ap     1.224186    42Ap     1.275314    29App    1.275317
      43Ap     1.279044    30App    1.324949    44Ap     1.324952
      45Ap     1.357887    31App    1.366203    46Ap     1.366207
      32App    1.392952    47Ap     1.405702    33App    1.405704
      34App    1.418644    48Ap     1.418650    35App    1.428857
      36App    1.491918    49Ap     1.500933    37App    1.542885
      50Ap     1.542886    51Ap     1.574594    38App    1.574595
      52Ap     1.671445    53Ap     1.741056    39App    1.741067
      54Ap     1.770062    40App    1.833563    55Ap     1.833564
      41App    1.972793    56Ap     2.019658    57Ap     2.020541
      42App    2.020545    58Ap     2.054100    43App    2.054100
      44App    2.739798    59Ap     2.739799    60Ap     2.791361
      45App    2.811663    61Ap     2.890690    46App    2.890696
      62Ap     2.894981    63Ap     2.929728    47App    2.929736
      48App    2.959461    64Ap     2.965062    49App    2.965075
      65Ap     3.034968    50App    3.072852    66Ap     3.072866
      51App    3.085220    67Ap     3.168140    52App    3.168148
      68Ap     3.180682    53App    3.284935    69Ap     3.284936
      70Ap     3.325726    54App    3.325731    71Ap     3.375211
      55App    3.489341    72Ap     3.489361    56App    3.514180
      73Ap     3.524560    57App    3.568976    74Ap     3.568996
      58App    3.573932    75Ap     3.667089    59App    3.667097
      76Ap     3.680428    60App    3.695276    77Ap     3.695291
      78Ap     3.778215    61App    3.778241    79Ap     3.791000
      80Ap     3.913057    62App    3.913064    81Ap     4.037971
      82Ap     4.113465    63App    4.113470    83Ap     4.151211
      64App    4.151219    84Ap     4.176358    85Ap     4.204465
      65App    4.204828    86Ap     4.204832    66App    4.214646
      87Ap     4.318418    67App    4.318438    68App    4.361274
      88Ap     4.427638    69App    4.427641    70App    4.444570
      71App    4.519146    89Ap     4.519148    72App    4.579653
      90Ap     4.579665    91Ap     4.619052    92Ap     4.711920
      93Ap     4.776608    73App    4.776616    74App    4.839457
      94Ap     4.963603    75App    5.004753    95Ap     5.004766
      96Ap     5.233419    76App    5.252084    97Ap     5.252085
      98Ap     5.359660    77App    5.359674    78App    5.483101

    Beta Occupied:

       1Ap   -10.167221     1App  -10.167221     2Ap   -10.167203
       3Ap   -10.166318     4Ap    -0.781117     5Ap    -0.684357
       2App   -0.684356     6Ap    -0.511974     3App   -0.431032
       7Ap    -0.431032     8Ap    -0.422200     9Ap    -0.377212
       4App   -0.377211     5App   -0.362630     6App   -0.333072
      10Ap    -0.333072

    Beta Virtual:

      11Ap    -0.025362    12Ap     0.077391    13Ap     0.135381
       7App    0.135382    14Ap     0.144807     8App    0.144808
      15Ap     0.163607    16Ap     0.183062     9App    0.183062
      10App    0.215357    17Ap     0.218907    11App    0.282491
      18Ap     0.282494    19Ap     0.400350    12App    0.400354
      20Ap     0.419992    13App    0.427193    21Ap     0.427193
      22Ap     0.468683    23Ap     0.497822    14App    0.497823
      15App    0.514260    24Ap     0.556560    25Ap     0.584635
      16App    0.584643    17App    0.598725    26Ap     0.598726
      27Ap     0.610923    28Ap     0.628997    18App    0.632486
      19App    0.639956    29Ap     0.639960    30Ap     0.667466
      20App    0.667466    31Ap     0.686981    21App    0.686982
      32Ap     0.757975    22App    0.831543    33Ap     0.831546
      23App    0.855711    24App    0.923854    34Ap     0.923861
      25App    0.946692    35Ap     0.954407    26App    0.967164
      36Ap     0.967180    37Ap     1.007877    38Ap     1.132411
      27App    1.132423    39Ap     1.156823    40Ap     1.168710
      28App    1.168722    41Ap     1.233148    42Ap     1.280882
      29App    1.280885    43Ap     1.284793    30App    1.329907
      44Ap     1.329909    45Ap     1.367345    31App    1.371441
      46Ap     1.371446    32App    1.393991    47Ap     1.409182
      33App    1.409184    34App    1.423708    48Ap     1.423715
      35App    1.429132    36App    1.492968    49Ap     1.511399
      50Ap     1.547063    37App    1.547064    38App    1.582668
      51Ap     1.582669    52Ap     1.676383    53Ap     1.746815
      39App    1.746826    54Ap     1.780779    40App    1.837394
      55Ap     1.837395    41App    1.973651    56Ap     2.026965
      42App    2.026969    57Ap     2.040988    58Ap     2.060788
      43App    2.060789    44App    2.748143    59Ap     2.748144
      45App    2.812077    60Ap     2.816574    61Ap     2.903410
      46App    2.903416    62Ap     2.924815    63Ap     2.932181
      47App    2.932190    48App    2.960528    64Ap     2.969632
      49App    2.969646    65Ap     3.042785    50App    3.082798
      66Ap     3.082809    51App    3.087035    67Ap     3.183926
      52App    3.183930    68Ap     3.188347    53App    3.289724
      69Ap     3.289725    70Ap     3.329521    54App    3.329526
      71Ap     3.383091    55App    3.492109    72Ap     3.492129
      56App    3.512548    73Ap     3.527658    57App    3.573796
      58App    3.582259    74Ap     3.582281    75Ap     3.672206
      59App    3.672218    76Ap     3.693804    60App    3.726699
      77Ap     3.726715    78Ap     3.782688    61App    3.782714
      79Ap     3.819548    80Ap     3.922858    62App    3.922865
      81Ap     4.048972    82Ap     4.120380    63App    4.120382
      83Ap     4.158370    64App    4.158379    84Ap     4.190243
      65App    4.210765    85Ap     4.210768    86Ap     4.212377
      66App    4.219056    87Ap     4.325789    67App    4.325809
      68App    4.364613    88Ap     4.435767    69App    4.435770
      70App    4.447462    71App    4.526924    89Ap     4.526926
      72App    4.590246    90Ap     4.590257    91Ap     4.626310
      92Ap     4.722169    93Ap     4.783582    73App    4.783589
      74App    4.842381    94Ap     4.968355    75App    5.008761
      95Ap     5.008773    96Ap     5.239141    76App    5.253872
      97Ap     5.253873    98Ap     5.366130    77App    5.366144
      78App    5.485411

    Final Occupation by Irrep:
             Ap   App
    DOCC [    10,    6 ]
    SOCC [     1,    0 ]

  @DF-UKS Final Energy:  -157.81302532957221

   => Energetics <=

    Nuclear Repulsion Energy =            125.4407810272317363
    One-Electron Energy =                -458.8373954124281227
    Two-Electron Energy =                 195.8950168257464952
    DFT Exchange-Correlation Energy =     -20.3114277701223500
    Empirical Dispersion Energy =           0.0000000000000000
    VV10 Nonlocal Energy =                  0.0000000000000000
    Total Energy =                       -157.8130253295722127

  UHF NO Occupations:
  HONO-2 :    9 Ap 1.9996044
  HONO-1 :   10 Ap 1.9989788
  HONO-0 :   11 Ap 1.0000000
  LUNO+0 :   12 Ap 0.0010212
  LUNO+1 :   13 Ap 0.0003956
  LUNO+2 :    7App 0.0001978
  LUNO+3 :   14 Ap 0.0001978

Computation Completed

Properties will be evaluated at   0.000000,   0.000000,   0.000000 [a0]

Properties computed using the SCF density matrix

  Nuclear Dipole Moment: [e a0]
     X:     0.8171      Y:    -0.0000      Z:    -0.0000

  Electronic Dipole Moment: [e a0]
     X:    -0.7384      Y:     0.0000      Z:     0.0000

  Dipole Moment: [e a0]
     X:     0.0787      Y:    -0.0000      Z:    -0.0000     Total:     0.0787

  Dipole Moment: [D]
     X:     0.1999      Y:    -0.0000      Z:    -0.0000     Total:     0.1999

*** tstop() called on n067 at Fri Nov  5 13:34:22 2021
Module time:
	user time   =     544.00 seconds =       9.07 minutes
	system time =      13.29 seconds =       0.22 minutes
	total time  =        140 seconds =       2.33 minutes
Total time:
	user time   =     544.00 seconds =       9.07 minutes
	system time =      13.29 seconds =       0.22 minutes
	total time  =        140 seconds =       2.33 minutes
Grab this energy -157.8130253295722
    Psi4 stopped on: Friday, 05 November 2021 01:34PM
    Psi4 wall time for execution: 0:02:20.18

*** Psi4 exiting successfully. Buy a developer a beer!
