                               Psi4 1.4a2.dev629

  ==> Input File <==

--------------------------------------------------------------------------
import os
memory 14 GB

molecule {
 C   -0.3233417921    0.0002360250   -0.0000000000
 C    0.0600657268   -1.4000579006   -2.4263631385
 C    0.0631661350    2.8026089391    0.0000000000
 C    0.0600657268   -1.4000579006    2.4263631385
 H    2.0891290843   -1.6441689614   -2.8471065567
 H   -0.7663694620   -0.3866878361   -4.0262246071
 H   -0.7661367590   -3.2945388969   -2.3482788352
 H    2.0824141525    3.2886032463   -0.0000000000
 H   -0.7641117761    3.6797173329    1.6722498640
 H   -0.7641117761    3.6797173329   -1.6722498640
 H    2.0891290843   -1.6441689614    2.8471065567
 H   -0.7661367590   -3.2945388969    2.3482788352
 H   -0.7663694620   -0.3866878361    4.0262246071
units bohr
0 2
}

basis {

assign 6-31g_2dfp_

[ 6-31g_2dfp_ ]

spherical

!----------------------------------------------------------------------
! Basis Set Exchange
! Version v0.8.13
! https://www.basissetexchange.org
!----------------------------------------------------------------------
!   Basis set: 6-31G(2df,p)
! Description: 6-31G(2df,p)
!        Role: orbital
!     Version: 0  (Data from the original Basis Set Exchange)
!----------------------------------------------------------------------

****
H     0
S    3   1.00
     18.7311370              0.03349460
      2.8253937              0.23472695
      0.6401217              0.81375733
S    1   1.00
      0.1612778              1.00000000
P    1   1.00
      1.5000000              1.0000000
P    1   1.00
      0.3750000              1.0000000
****
B     0
S    6   1.00
   2068.8823000              0.0018663
    310.6495700              0.0142515
     70.6830330              0.0695516
     19.8610800              0.2325729
      6.2993048              0.4670787
      2.1270270              0.3634314
SP   3   1.00
      4.7279710             -0.1303938              0.0745976
      1.1903377             -0.1307889              0.3078467
      0.3594117              1.1309444              0.7434568
SP   1   1.00
      0.1267512              1.0000000              1.0000000
D    1   1.00
      0.8020000              1.0000000
D    1   1.00
      0.2005000              1.0000000
F    1   1.00
      0.5000000              1.0000000
****
C     0
S    6   1.00
   3047.5249000              0.0018347
    457.3695100              0.0140373
    103.9486900              0.0688426
     29.2101550              0.2321844
      9.2866630              0.4679413
      3.1639270              0.3623120
SP   3   1.00
      7.8682724             -0.1193324              0.0689991
      1.8812885             -0.1608542              0.3164240
      0.5442493              1.1434564              0.7443083
SP   1   1.00
      0.1687144              1.0000000              1.0000000
D    1   1.00
      1.2520000              1.0000000
D    1   1.00
      0.3130000              1.0000000
F    1   1.00
      0.8000000              1.0000000
****
N     0
S    6   1.00
   4173.5110000              0.0018348
    627.4579000              0.0139950
    142.9021000              0.0685870
     40.2343300              0.2322410
     12.8202100              0.4690700
      4.3904370              0.3604550
SP   3   1.00
     11.6263580             -0.1149610              0.0675800
      2.7162800             -0.1691180              0.3239070
      0.7722180              1.1458520              0.7408950
SP   1   1.00
      0.2120313              1.0000000              1.0000000
D    1   1.00
      1.8260000              1.0000000
D    1   1.00
      0.4565000              1.0000000
F    1   1.00
      1.0000000              1.0000000
****
O     0
S    6   1.00
   5484.6717000              0.0018311
    825.2349500              0.0139501
    188.0469600              0.0684451
     52.9645000              0.2327143
     16.8975700              0.4701930
      5.7996353              0.3585209
SP   3   1.00
     15.5396160             -0.1107775              0.0708743
      3.5999336             -0.1480263              0.3397528
      1.0137618              1.1307670              0.7271586
SP   1   1.00
      0.2700058              1.0000000              1.0000000
D    1   1.00
      2.5840000              1.0000000
D    1   1.00
      0.6460000              1.0000000
F    1   1.00
      1.4000000              1.0000000
****
F     0
S    6   1.00
   7001.7130900              0.0018196169
   1051.3660900              0.0139160796
    239.2856900              0.0684053245
     67.3974453              0.233185760
     21.5199573              0.471267439
      7.40310130             0.356618546
SP   3   1.00
     20.8479528             -0.108506975            0.0716287243
      4.80830834            -0.146451658            0.3459121030
      1.34406986             1.128688580            0.7224699570
SP   1   1.00
      0.358151393            1.0000000              1.0000000
D    1   1.00
      3.5000000              1.0000000
D    1   1.00
      0.8750000              1.0000000
F    1   1.00
      1.8500000              1.0000000
****
Al     0
S    6   1.00
  13983.1000000              0.00194267
   2098.7500000              0.0148599
    477.7050000              0.0728494
    134.3600000              0.2468300
     42.8709000              0.4872580
     14.5189000              0.3234960
SP   6   1.00
    239.6680000             -0.00292619             0.00460285
     57.4419000             -0.0374080              0.0331990
     18.2859000             -0.1144870              0.1362820
      6.5991400              0.1156350              0.3304760
      2.4904900              0.6125950              0.4491460
      0.9445400              0.3937990              0.2657040
SP   3   1.00
      1.2779000             -0.2276060             -0.0175130
      0.3975900              0.00144583             0.2445330
      0.1600950              1.0927900              0.8049340
SP   1   1.00
      0.0556577              1.0000000              1.0000000
D    1   1.00
      0.6500000              1.0000000
D    1   1.00
      0.1625000              1.0000000
F    1   1.00
      0.2500000              1.0000000
****
Si     0
S    6   1.00
  16115.9000000              0.00195948
   2425.5800000              0.01492880
    553.8670000              0.07284780
    156.3400000              0.24613000
     50.0683000              0.48591400
     17.0178000              0.32500200
SP   6   1.00
    292.7180000             -0.00278094             0.00443826
     69.8731000             -0.03571460             0.03266790
     22.3363000             -0.11498500             0.13472100
      8.1503900              0.09356340             0.32867800
      3.1345800              0.60301700             0.44964000
      1.2254300              0.41895900             0.26137200
SP   3   1.00
      1.7273800             -0.24463000            -0.01779510
      0.5729220              0.00431572             0.25353900
      0.2221920              1.09818000             0.80066900
SP   1   1.00
      0.0778369              1.00000000             1.00000000
D    1   1.00
      0.9000000              1.0000000
D    1   1.00
      0.2250000              1.0000000
F    1   1.00
      0.3200000              1.0000000
****
P     0
S    6   1.00
  19413.3000000              0.0018516
   2909.4200000              0.0142062
    661.3640000              0.0699995
    185.7590000              0.2400790
     59.1943000              0.4847620
     20.0310000              0.3352000
SP   6   1.00
    339.4780000             -0.00278217             0.00456462
     81.0101000             -0.0360499              0.03369360
     25.8780000             -0.1166310              0.13975500
      9.4522100              0.0968328              0.33936200
      3.6656600              0.6144180              0.45092100
      1.4674600              0.4037980              0.23858600
SP   3   1.00
      2.1562300             -0.2529230             -0.01776530
      0.7489970              0.0328517              0.27405800
      0.2831450              1.0812500              0.78542100
SP   1   1.00
      0.0998317              1.0000000              1.00000000
D    1   1.00
      1.1000000              1.0000000
D    1   1.00
      0.2750000              1.0000000
F    1   1.00
      0.4500000              1.0000000
****
S     0
S    6   1.00
  21917.1000000              0.0018690
   3301.4900000              0.0142300
    754.1460000              0.0696960
    212.7110000              0.2384870
     67.9896000              0.4833070
     23.0515000              0.3380740
SP   6   1.00
    423.7350000             -0.0023767              0.0040610
    100.7100000             -0.0316930              0.0306810
     32.1599000             -0.1133170              0.1304520
     11.8079000              0.0560900              0.3272050
      4.6311000              0.5922550              0.4528510
      1.8702500              0.4550060              0.2560420
SP   3   1.00
      2.6158400             -0.2503740             -0.0145110
      0.9221670              0.0669570              0.3102630
      0.3412870              1.0545100              0.7544830
SP   1   1.00
      0.1171670              1.0000000              1.0000000
D    1   1.00
      1.3000000              1.0000000
D    1   1.00
      0.3250000              1.0000000
F    1   1.00
      0.5500000              1.0000000
****
Cl     0
S    6   1.00
  25180.1000000              0.0018330
   3780.3500000              0.0140340
    860.4740000              0.0690970
    242.1450000              0.2374520
     77.3349000              0.4830340
     26.2470000              0.3398560
SP   6   1.00
    491.7650000             -0.0022974              0.0039894
    116.9840000             -0.0307140              0.0303180
     37.4153000             -0.1125280              0.1298800
     13.7834000              0.0450160              0.3279510
      5.4521500              0.5893530              0.4535270
      2.2258800              0.4652060              0.2521540
SP   3   1.00
      3.1864900             -0.2518300             -0.0142990
      1.1442700              0.0615890              0.3235720
      0.4203770              1.0601800              0.7435070
SP   1   1.00
      0.1426570              1.0000000              1.0000000
D    1   1.00
      1.5000000              1.0000000
D    1   1.00
      0.3750000              1.0000000
F    1   1.00
      0.7000000              1.0000000
****
}

set {
reference uhf
freeze_core true
e_convergence 10
d_convergence 10
dft_spherical_points 1202
dft_radial_points 99
}

e = energy('b3lyp')

print_out('Grab this energy {0}'.format(e))
--------------------------------------------------------------------------

    Molecular point group: cs

    Geometry (in Bohr), charge = 0, multiplicity = 2:

       Center              X                  Y                   Z               Mass
    ------------   -----------------  -----------------  -----------------  -----------------
         C           -0.323340979558    -0.000289202066     0.000000000000    12.000000000000
         C            0.060066539342    -1.400583127666    -2.426363138500    12.000000000000
         C            0.063166947542     2.802083712034     0.000000000000    12.000000000000
         C            0.060066539342    -1.400583127666     2.426363138500    12.000000000000
         H            2.089129896842    -1.644694188466    -2.847106556700     1.007825032230
         H           -0.766368649458    -0.387213063166    -4.026224607100     1.007825032230
         H           -0.766135946458    -3.295064123966    -2.348278835200     1.007825032230
         H            2.082414965042     3.288078019234     0.000000000000     1.007825032230
         H           -0.764110963558     3.679192105834     1.672249864000     1.007825032230
         H           -0.764110963558     3.679192105834    -1.672249864000     1.007825032230
         H            2.089129896842    -1.644694188466     2.847106556700     1.007825032230
         H           -0.766135946458    -3.295064123966     2.348278835200     1.007825032230
         H           -0.766368649458    -0.387213063166     4.026224607100     1.007825032230

  Charge       = 0
  Multiplicity = 2
  Basis Set: ANONYMOUS138F1D28
    Blend: 6-31G_2DFP_
  Basis Set: (ANONYMOUS138F1D28 AUX)
    Blend: DEF2-UNIVERSAL-JKFIT

    Orbital Energies [Eh]
    ---------------------

    Alpha Occupied:

       1Ap   -10.180342     1App  -10.167381     2Ap   -10.167351
       3Ap   -10.166311     4Ap    -0.797767     5Ap    -0.686478
       2App   -0.685898     6Ap    -0.530775     7Ap    -0.441130
       8Ap    -0.434681     3App   -0.434657     9Ap    -0.382972
       4App   -0.382226     5App   -0.363610     6App   -0.338116
      10Ap    -0.337883    11Ap    -0.168961

    Alpha Virtual:

      12Ap     0.076070     7App    0.134118    13Ap     0.134180
      14Ap     0.142592     8App    0.142675    15Ap     0.154873
       9App    0.178340    16Ap     0.179222    17Ap     0.203547
      10App    0.214804    18Ap     0.275886    11App    0.276084
      19Ap     0.399148    12App    0.399309    20Ap     0.403342
      21Ap     0.423954    13App    0.424240    22Ap     0.456592
      14App    0.495347    23Ap     0.495431    15App    0.512163
      24Ap     0.513979    16App    0.578612    25Ap     0.579016
      17App    0.591213    26Ap     0.592020    27Ap     0.602608
      28Ap     0.624767    18App    0.631718    29Ap     0.635969
      19App    0.636579    20App    0.663061    30Ap     0.663776
      21App    0.683690    31Ap     0.684026    32Ap     0.734995
      33Ap     0.824995    22App    0.825811    23App    0.853915
      24App    0.915015    34Ap     0.915040    25App    0.944130
      35Ap     0.944612    36Ap     0.961133    26App    0.961461
      37Ap     1.003452    27App    1.127683    38Ap     1.128531
      39Ap     1.142221    28App    1.163267    40Ap     1.163277
      41Ap     1.223318    29App    1.274170    42Ap     1.274805
      43Ap     1.279358    44Ap     1.324257    30App    1.324454
      45Ap     1.355966    46Ap     1.366017    31App    1.366090
      32App    1.392444    33App    1.403559    47Ap     1.404536
      34App    1.416488    48Ap     1.417740    35App    1.427918
      36App    1.491486    49Ap     1.499095    50Ap     1.542808
      37App    1.542833    51Ap     1.574021    38App    1.574894
      52Ap     1.669796    39App    1.739104    53Ap     1.739682
      54Ap     1.768371    40App    1.829999    55Ap     1.832853
      41App    1.971696    56Ap     2.017987    42App    2.018523
      57Ap     2.019837    43App    2.052369    58Ap     2.052996
      59Ap     2.738077    44App    2.738888    60Ap     2.790929
      45App    2.811431    61Ap     2.889887    46App    2.889952
      62Ap     2.895001    63Ap     2.929358    47App    2.929634
      48App    2.959004    49App    2.963765    64Ap     2.965004
      65Ap     3.034026    50App    3.071175    66Ap     3.071402
      51App    3.084364    67Ap     3.168753    52App    3.168799
      68Ap     3.180604    69Ap     3.285284    53App    3.285354
      54App    3.327050    70Ap     3.327280    71Ap     3.375610
      72Ap     3.489028    55App    3.491294    56App    3.514017
      73Ap     3.525335    57App    3.568199    74Ap     3.568546
      58App    3.575174    59App    3.665375    75Ap     3.667332
      76Ap     3.679695    60App    3.693644    77Ap     3.694595
      61App    3.776200    78Ap     3.777434    79Ap     3.789118
      62App    3.911859    80Ap     3.912572    81Ap     4.034432
      63App    4.110702    82Ap     4.111974    83Ap     4.146071
      64App    4.150030    84Ap     4.173298    85Ap     4.200864
      65App    4.202123    86Ap     4.205707    66App    4.211204
      67App    4.315657    87Ap     4.316226    68App    4.358957
      88Ap     4.424128    69App    4.424655    70App    4.443625
      71App    4.515531    89Ap     4.518088    90Ap     4.577646
      72App    4.578967    91Ap     4.617532    92Ap     4.709482
      73App    4.773984    93Ap     4.775208    74App    4.836865
      94Ap     4.962856    75App    5.001919    95Ap     5.004002
      96Ap     5.227852    97Ap     5.243213    76App    5.250415
      77App    5.352767    98Ap     5.358420    78App    5.479432

    Beta Occupied:

       1App  -10.168138     1Ap   -10.168118     2Ap   -10.167073
       3Ap   -10.166514     4Ap    -0.781092     5Ap    -0.684280
       2App   -0.683701     6Ap    -0.511746     7Ap    -0.431052
       3App   -0.431034     8Ap    -0.421824     9Ap    -0.377072
       4App   -0.376294     5App   -0.362594     6App   -0.333233
      10Ap    -0.333012

    Beta Virtual:

      11Ap    -0.025743    12Ap     0.077080    13Ap     0.135007
       7App    0.135074     8App    0.144500    14Ap     0.144506
      15Ap     0.163331     9App    0.182019    16Ap     0.182886
      10App    0.215034    17Ap     0.218929    18Ap     0.282235
      11App    0.282432    19Ap     0.400320    12App    0.400475
      20Ap     0.419789    21Ap     0.426760    13App    0.427057
      22Ap     0.468500    14App    0.497604    23Ap     0.497695
      15App    0.513898    24Ap     0.556324    16App    0.584159
      25Ap     0.584568    17App    0.597410    26Ap     0.598190
      27Ap     0.610023    28Ap     0.628142    18App    0.631899
      29Ap     0.639279    19App    0.639816    20App    0.666627
      30Ap     0.667339    21App    0.686363    31Ap     0.686624
      32Ap     0.757517    33Ap     0.830140    22App    0.831003
      23App    0.855269    24App    0.922984    34Ap     0.923012
      25App    0.945966    35Ap     0.953541    36Ap     0.966475
      26App    0.966732    37Ap     1.008692    27App    1.131658
      38Ap     1.132616    39Ap     1.155595    40Ap     1.168291
      28App    1.168401    41Ap     1.232291    29App    1.279761
      42Ap     1.280411    43Ap     1.285109    44Ap     1.329210
      30App    1.329480    45Ap     1.365371    46Ap     1.371257
      31App    1.371346    32App    1.393505    33App    1.406990
      47Ap     1.408035    34App    1.421508    48Ap     1.422822
      35App    1.428188    36App    1.492535    49Ap     1.509537
      50Ap     1.547100    37App    1.547356    51Ap     1.581956
      38App    1.582702    52Ap     1.674643    39App    1.744855
      53Ap     1.745465    54Ap     1.779142    40App    1.833884
      55Ap     1.836678    41App    1.972559    42App    2.024839
      56Ap     2.025990    57Ap     2.039692    43App    2.059167
      58Ap     2.059628    59Ap     2.746395    44App    2.747242
      45App    2.811843    60Ap     2.816064    61Ap     2.902548
      46App    2.902713    62Ap     2.924663    63Ap     2.931892
      47App    2.932062    48App    2.960069    49App    2.968270
      64Ap     2.969586    65Ap     3.041960    50App    3.081016
      66Ap     3.081374    51App    3.086189    67Ap     3.184386
      52App    3.184611    68Ap     3.188340    69Ap     3.290047
      53App    3.290188    54App    3.330820    70Ap     3.331119
      71Ap     3.383428    72Ap     3.491791    55App    3.493991
      56App    3.512382    73Ap     3.528380    57App    3.574968
      58App    3.581698    74Ap     3.581790    59App    3.670121
      75Ap     3.672093    76Ap     3.692994    60App    3.725127
      77Ap     3.726360    61App    3.780770    78Ap     3.781920
      79Ap     3.817664    62App    3.921705    80Ap     3.922360
      81Ap     4.045313    63App    4.117664    82Ap     4.118627
      83Ap     4.153456    64App    4.157089    84Ap     4.187353
      85Ap     4.207934    65App    4.208004    86Ap     4.212601
      66App    4.215679    67App    4.323241    87Ap     4.323515
      68App    4.362330    88Ap     4.432412    69App    4.432729
      70App    4.446575    71App    4.523386    89Ap     4.525813
      90Ap     4.588310    72App    4.589508    91Ap     4.624724
      92Ap     4.719825    73App    4.780924    93Ap     4.782176
      74App    4.839781    94Ap     4.967654    75App    5.005993
      95Ap     5.008006    96Ap     5.233548    97Ap     5.245020
      76App    5.252199    77App    5.359260    98Ap     5.364884
      78App    5.481753

    Final Occupation by Irrep:
             Ap   App
    DOCC [    10,    6 ]
    SOCC [     1,    0 ]

  @DF-UKS Final Energy:  -157.81305587565663

   => Energetics <=

    Nuclear Repulsion Energy =            125.3946599017146610
    One-Electron Energy =                -458.7489456149473313
    Two-Electron Energy =                 195.8483777227530993
    DFT Exchange-Correlation Energy =     -20.3071478851770486
    Empirical Dispersion Energy =           0.0000000000000000
    VV10 Nonlocal Energy =                  0.0000000000000000
    Total Energy =                       -157.8130558756566302

  UHF NO Occupations:
  HONO-2 :    9 Ap 1.9996008
  HONO-1 :   10 Ap 1.9989804
  HONO-0 :   11 Ap 1.0000000
  LUNO+0 :   12 Ap 0.0010196
  LUNO+1 :   13 Ap 0.0003992
  LUNO+2 :   14 Ap 0.0001976
  LUNO+3 :    7App 0.0001975

Computation Completed

Properties will be evaluated at   0.000000,   0.000000,   0.000000 [a0]

Properties computed using the SCF density matrix

  Nuclear Dipole Moment: [e a0]
     X:     0.8272      Y:    -0.0037      Z:     0.0000

  Electronic Dipole Moment: [e a0]
     X:    -0.7493      Y:     0.0060      Z:     0.0000

  Dipole Moment: [e a0]
     X:     0.0779      Y:     0.0023      Z:     0.0000     Total:     0.0779

  Dipole Moment: [D]
     X:     0.1980      Y:     0.0059      Z:     0.0000     Total:     0.1981

*** tstop() called on n023 at Fri Nov  5 12:35:30 2021
Module time:
	user time   =     634.27 seconds =      10.57 minutes
	system time =      11.89 seconds =       0.20 minutes
	total time  =        162 seconds =       2.70 minutes
Total time:
	user time   =     634.27 seconds =      10.57 minutes
	system time =      11.89 seconds =       0.20 minutes
	total time  =        162 seconds =       2.70 minutes
Grab this energy -157.81305587565663
    Psi4 stopped on: Friday, 05 November 2021 12:35PM
    Psi4 wall time for execution: 0:02:42.46

*** Psi4 exiting successfully. Buy a developer a beer!
