                               Psi4 1.4a2.dev629

  ==> Input File <==

--------------------------------------------------------------------------
import os
memory 14 GB

molecule {
 C   -0.3233400461    0.0004302585    0.0000002800
 C    0.0609866957   -1.4012493913   -2.4262276616
 C    0.0613294639    2.8016522350   -0.0015999415
 C    0.0609851556   -1.3984762297    2.4278281789
 H    2.0873924574   -1.6409337701   -2.8492578561
 H   -0.7626083683   -0.3897626192   -4.0236949315
 H   -0.7687162056   -3.2935940052   -2.3491302436
 H    2.0858863405    3.2881105086    0.0006204365
 H   -0.7650996856    3.6800382023    1.6777206252
 H   -0.7654941531    3.6801701790   -1.6771146593
 H    2.0873943943   -1.6420104507    2.8486392936
 H   -0.7683226814   -3.2940524480    2.3487119568
 H   -0.7630012440   -0.3903467829    4.0235045226
units bohr
0 2
}

basis {

assign 6-31g_2dfp_

[ 6-31g_2dfp_ ]

spherical

!----------------------------------------------------------------------
! Basis Set Exchange
! Version v0.8.13
! https://www.basissetexchange.org
!----------------------------------------------------------------------
!   Basis set: 6-31G(2df,p)
! Description: 6-31G(2df,p)
!        Role: orbital
!     Version: 0  (Data from the original Basis Set Exchange)
!----------------------------------------------------------------------

****
H     0
S    3   1.00
     18.7311370              0.03349460
      2.8253937              0.23472695
      0.6401217              0.81375733
S    1   1.00
      0.1612778              1.00000000
P    1   1.00
      1.5000000              1.0000000
P    1   1.00
      0.3750000              1.0000000
****
B     0
S    6   1.00
   2068.8823000              0.0018663
    310.6495700              0.0142515
     70.6830330              0.0695516
     19.8610800              0.2325729
      6.2993048              0.4670787
      2.1270270              0.3634314
SP   3   1.00
      4.7279710             -0.1303938              0.0745976
      1.1903377             -0.1307889              0.3078467
      0.3594117              1.1309444              0.7434568
SP   1   1.00
      0.1267512              1.0000000              1.0000000
D    1   1.00
      0.8020000              1.0000000
D    1   1.00
      0.2005000              1.0000000
F    1   1.00
      0.5000000              1.0000000
****
C     0
S    6   1.00
   3047.5249000              0.0018347
    457.3695100              0.0140373
    103.9486900              0.0688426
     29.2101550              0.2321844
      9.2866630              0.4679413
      3.1639270              0.3623120
SP   3   1.00
      7.8682724             -0.1193324              0.0689991
      1.8812885             -0.1608542              0.3164240
      0.5442493              1.1434564              0.7443083
SP   1   1.00
      0.1687144              1.0000000              1.0000000
D    1   1.00
      1.2520000              1.0000000
D    1   1.00
      0.3130000              1.0000000
F    1   1.00
      0.8000000              1.0000000
****
N     0
S    6   1.00
   4173.5110000              0.0018348
    627.4579000              0.0139950
    142.9021000              0.0685870
     40.2343300              0.2322410
     12.8202100              0.4690700
      4.3904370              0.3604550
SP   3   1.00
     11.6263580             -0.1149610              0.0675800
      2.7162800             -0.1691180              0.3239070
      0.7722180              1.1458520              0.7408950
SP   1   1.00
      0.2120313              1.0000000              1.0000000
D    1   1.00
      1.8260000              1.0000000
D    1   1.00
      0.4565000              1.0000000
F    1   1.00
      1.0000000              1.0000000
****
O     0
S    6   1.00
   5484.6717000              0.0018311
    825.2349500              0.0139501
    188.0469600              0.0684451
     52.9645000              0.2327143
     16.8975700              0.4701930
      5.7996353              0.3585209
SP   3   1.00
     15.5396160             -0.1107775              0.0708743
      3.5999336             -0.1480263              0.3397528
      1.0137618              1.1307670              0.7271586
SP   1   1.00
      0.2700058              1.0000000              1.0000000
D    1   1.00
      2.5840000              1.0000000
D    1   1.00
      0.6460000              1.0000000
F    1   1.00
      1.4000000              1.0000000
****
F     0
S    6   1.00
   7001.7130900              0.0018196169
   1051.3660900              0.0139160796
    239.2856900              0.0684053245
     67.3974453              0.233185760
     21.5199573              0.471267439
      7.40310130             0.356618546
SP   3   1.00
     20.8479528             -0.108506975            0.0716287243
      4.80830834            -0.146451658            0.3459121030
      1.34406986             1.128688580            0.7224699570
SP   1   1.00
      0.358151393            1.0000000              1.0000000
D    1   1.00
      3.5000000              1.0000000
D    1   1.00
      0.8750000              1.0000000
F    1   1.00
      1.8500000              1.0000000
****
Al     0
S    6   1.00
  13983.1000000              0.00194267
   2098.7500000              0.0148599
    477.7050000              0.0728494
    134.3600000              0.2468300
     42.8709000              0.4872580
     14.5189000              0.3234960
SP   6   1.00
    239.6680000             -0.00292619             0.00460285
     57.4419000             -0.0374080              0.0331990
     18.2859000             -0.1144870              0.1362820
      6.5991400              0.1156350              0.3304760
      2.4904900              0.6125950              0.4491460
      0.9445400              0.3937990              0.2657040
SP   3   1.00
      1.2779000             -0.2276060             -0.0175130
      0.3975900              0.00144583             0.2445330
      0.1600950              1.0927900              0.8049340
SP   1   1.00
      0.0556577              1.0000000              1.0000000
D    1   1.00
      0.6500000              1.0000000
D    1   1.00
      0.1625000              1.0000000
F    1   1.00
      0.2500000              1.0000000
****
Si     0
S    6   1.00
  16115.9000000              0.00195948
   2425.5800000              0.01492880
    553.8670000              0.07284780
    156.3400000              0.24613000
     50.0683000              0.48591400
     17.0178000              0.32500200
SP   6   1.00
    292.7180000             -0.00278094             0.00443826
     69.8731000             -0.03571460             0.03266790
     22.3363000             -0.11498500             0.13472100
      8.1503900              0.09356340             0.32867800
      3.1345800              0.60301700             0.44964000
      1.2254300              0.41895900             0.26137200
SP   3   1.00
      1.7273800             -0.24463000            -0.01779510
      0.5729220              0.00431572             0.25353900
      0.2221920              1.09818000             0.80066900
SP   1   1.00
      0.0778369              1.00000000             1.00000000
D    1   1.00
      0.9000000              1.0000000
D    1   1.00
      0.2250000              1.0000000
F    1   1.00
      0.3200000              1.0000000
****
P     0
S    6   1.00
  19413.3000000              0.0018516
   2909.4200000              0.0142062
    661.3640000              0.0699995
    185.7590000              0.2400790
     59.1943000              0.4847620
     20.0310000              0.3352000
SP   6   1.00
    339.4780000             -0.00278217             0.00456462
     81.0101000             -0.0360499              0.03369360
     25.8780000             -0.1166310              0.13975500
      9.4522100              0.0968328              0.33936200
      3.6656600              0.6144180              0.45092100
      1.4674600              0.4037980              0.23858600
SP   3   1.00
      2.1562300             -0.2529230             -0.01776530
      0.7489970              0.0328517              0.27405800
      0.2831450              1.0812500              0.78542100
SP   1   1.00
      0.0998317              1.0000000              1.00000000
D    1   1.00
      1.1000000              1.0000000
D    1   1.00
      0.2750000              1.0000000
F    1   1.00
      0.4500000              1.0000000
****
S     0
S    6   1.00
  21917.1000000              0.0018690
   3301.4900000              0.0142300
    754.1460000              0.0696960
    212.7110000              0.2384870
     67.9896000              0.4833070
     23.0515000              0.3380740
SP   6   1.00
    423.7350000             -0.0023767              0.0040610
    100.7100000             -0.0316930              0.0306810
     32.1599000             -0.1133170              0.1304520
     11.8079000              0.0560900              0.3272050
      4.6311000              0.5922550              0.4528510
      1.8702500              0.4550060              0.2560420
SP   3   1.00
      2.6158400             -0.2503740             -0.0145110
      0.9221670              0.0669570              0.3102630
      0.3412870              1.0545100              0.7544830
SP   1   1.00
      0.1171670              1.0000000              1.0000000
D    1   1.00
      1.3000000              1.0000000
D    1   1.00
      0.3250000              1.0000000
F    1   1.00
      0.5500000              1.0000000
****
Cl     0
S    6   1.00
  25180.1000000              0.0018330
   3780.3500000              0.0140340
    860.4740000              0.0690970
    242.1450000              0.2374520
     77.3349000              0.4830340
     26.2470000              0.3398560
SP   6   1.00
    491.7650000             -0.0022974              0.0039894
    116.9840000             -0.0307140              0.0303180
     37.4153000             -0.1125280              0.1298800
     13.7834000              0.0450160              0.3279510
      5.4521500              0.5893530              0.4535270
      2.2258800              0.4652060              0.2521540
SP   3   1.00
      3.1864900             -0.2518300             -0.0142990
      1.1442700              0.0615890              0.3235720
      0.4203770              1.0601800              0.7435070
SP   1   1.00
      0.1426570              1.0000000              1.0000000
D    1   1.00
      1.5000000              1.0000000
D    1   1.00
      0.3750000              1.0000000
F    1   1.00
      0.7000000              1.0000000
****
}

set {
reference uhf
freeze_core true
e_convergence 10
d_convergence 10
dft_spherical_points 1202
dft_radial_points 99
}

e = energy('b3lyp')

print_out('Grab this energy {0}'.format(e))
--------------------------------------------------------------------------

    Molecular point group: c1

    Geometry (in Bohr), charge = 0, multiplicity = 2:

       Center              X                  Y                   Z               Mass
    ------------   -----------------  -----------------  -----------------  -----------------
         C           -0.323340287619    -0.000023262756     0.000000115167    12.000000000000
         C            0.060986454181    -1.401702912556    -2.426227826433    12.000000000000
         C            0.061329222381     2.801198713744    -0.001600106333    12.000000000000
         C            0.060984914081    -1.398929750956     2.427828014067    12.000000000000
         H            2.087392215881    -1.641387291356    -2.849258020933     1.007825032230
         H           -0.762608609819    -0.390216140456    -4.023695096333     1.007825032230
         H           -0.768716447119    -3.294047526456    -2.349130408433     1.007825032230
         H            2.085886098981     3.287656987344     0.000620271667     1.007825032230
         H           -0.765099927119     3.679584681044     1.677720460367     1.007825032230
         H           -0.765494394619     3.679716657744    -1.677114824133     1.007825032230
         H            2.087394152781    -1.642463971956     2.848639128767     1.007825032230
         H           -0.768322922919    -3.294505969256     2.348711791967     1.007825032230
         H           -0.763001485519    -0.390800304156     4.023504357767     1.007825032230

  Charge       = 0
  Multiplicity = 2
  Basis Set: ANONYMOUS6842B9AE
    Blend: 6-31G_2DFP_
  Basis Set: (ANONYMOUS6842B9AE AUX)
    Blend: DEF2-UNIVERSAL-JKFIT

    Orbital Energies [Eh]
    ---------------------

    Alpha Occupied:

       1A    -10.180342     2A    -10.167034     3A    -10.167026
       4A    -10.166984     5A     -0.797766     6A     -0.686248
       7A     -0.686128     8A     -0.530778     9A     -0.441126
      10A     -0.434855    11A     -0.434485    12A     -0.382622
      13A     -0.382576    14A     -0.363611    15A     -0.338159
      16A     -0.337836    17A     -0.168961

    Alpha Virtual:

      18A      0.076070    19A      0.134039    20A      0.134267
      21A      0.142424    22A      0.142831    23A      0.154882
      24A      0.178684    25A      0.178873    26A      0.203545
      27A      0.214805    28A      0.275876    29A      0.276096
      30A      0.398978    31A      0.399477    32A      0.403345
      33A      0.423935    34A      0.424259    35A      0.456593
      36A      0.495339    37A      0.495441    38A      0.512154
      39A      0.513986    40A      0.578764    41A      0.578871
      42A      0.591489    43A      0.591775    44A      0.602571
      45A      0.624706    46A      0.631781    47A      0.635964
      48A      0.636579    49A      0.663202    50A      0.663621
      51A      0.683658    52A      0.684067    53A      0.734994
      54A      0.825154    55A      0.825660    56A      0.853916
      57A      0.914814    58A      0.915237    59A      0.944124
      60A      0.944609    61A      0.961220    62A      0.961368
      63A      1.003455    64A      1.127823    65A      1.128401
      66A      1.142219    67A      1.163202    68A      1.163336
      69A      1.223320    70A      1.274243    71A      1.274731
      72A      1.279354    73A      1.324139    74A      1.324560
      75A      1.355980    76A      1.365749    77A      1.366366
      78A      1.392457    79A      1.404008    80A      1.404096
      81A      1.416405    82A      1.417805    83A      1.427896
      84A      1.491459    85A      1.499118    86A      1.542812
      87A      1.542856    88A      1.574259    89A      1.574650
      90A      1.669830    91A      1.738717    92A      1.740115
      93A      1.768330    94A      1.830624    95A      1.832148
      96A      1.971756    97A      2.017863    98A      2.018466
      99A      2.020058   100A      2.052108   101A      2.053188
     102A      2.738303   103A      2.738666   104A      2.790917
     105A      2.811434   106A      2.889801   107A      2.890099
     108A      2.894938   109A      2.929480   110A      2.929519
     111A      2.958963   112A      2.964364   113A      2.964433
     114A      3.034010   115A      3.070752   116A      3.071753
     117A      3.084436   118A      3.168372   119A      3.169195
     120A      3.180589   121A      3.285150   122A      3.285468
     123A      3.326788   124A      3.327541   125A      3.375627
     126A      3.489897   127A      3.490433   128A      3.513987
     129A      3.525353   130A      3.567963   131A      3.568815
     132A      3.575127   133A      3.665928   134A      3.666862
     135A      3.679642   136A      3.693916   137A      3.694365
     138A      3.776707   139A      3.776892   140A      3.789126
     141A      3.911641   142A      3.912803   143A      4.034445
     144A      4.110804   145A      4.111872   146A      4.147738
     147A      4.148435   148A      4.173339   149A      4.202286
     150A      4.202667   151A      4.203745   152A      4.210993
     153A      4.315298   154A      4.316621   155A      4.358973
     156A      4.423911   157A      4.424999   158A      4.443443
     159A      4.515801   160A      4.517885   161A      4.578267
     162A      4.578274   163A      4.617547   164A      4.709434
     165A      4.773610   166A      4.775608   167A      4.836914
     168A      4.962866   169A      5.002586   170A      5.003323
     171A      5.227583   172A      5.246873   173A      5.247168
     174A      5.354239   175A      5.356799   176A      5.479416

    Beta Occupied:

       1A    -10.167788     2A    -10.167779     3A    -10.167757
       4A    -10.166519     5A     -0.781091     6A     -0.684053
       7A     -0.683928     8A     -0.511750     9A     -0.431229
      10A     -0.430855    11A     -0.421821    12A     -0.376703
      13A     -0.376665    14A     -0.362595    15A     -0.333279
      16A     -0.332963

    Beta Virtual:

      17A     -0.025742    18A      0.077079    19A      0.134905
      20A      0.135182    21A      0.144266    22A      0.144730
      23A      0.163339    24A      0.182356    25A      0.182543
      26A      0.215028    27A      0.218935    28A      0.282224
      29A      0.282443    30A      0.400144    31A      0.400650
      32A      0.419791    33A      0.426746    34A      0.427070
      35A      0.468501    36A      0.497595    37A      0.497707
      38A      0.513895    39A      0.556325    40A      0.584315
      41A      0.584419    42A      0.597646    43A      0.597975
      44A      0.609995    45A      0.628079    46A      0.631945
      47A      0.639270    48A      0.639844    49A      0.666781
      50A      0.667170    51A      0.686315    52A      0.686678
      53A      0.757518    54A      0.830334    55A      0.830816
      56A      0.855269    57A      0.922805    58A      0.923188
      59A      0.945962    60A      0.953534    61A      0.966509
      62A      0.966692    63A      1.008696    64A      1.131856
      65A      1.132424    66A      1.155598    67A      1.168280
      68A      1.168404    69A      1.232293    70A      1.279823
      71A      1.280344    72A      1.285109    73A      1.329130
      74A      1.329547    75A      1.365393    76A      1.371054
      77A      1.371546    78A      1.393519    79A      1.407455
      80A      1.407580    81A      1.421508    82A      1.422804
      83A      1.428165    84A      1.492527    85A      1.509541
      86A      1.547191    87A      1.547295    88A      1.582126
      89A      1.582522    90A      1.674677    91A      1.744464
      92A      1.745894    93A      1.779107    94A      1.834475
      95A      1.836007    96A      1.972617    97A      2.024894
      98A      2.025966    99A      2.039693   100A      2.058809
     101A      2.059928   102A      2.746627   103A      2.747014
     104A      2.811804   105A      2.816094   106A      2.902445
     107A      2.902829   108A      2.924648   109A      2.931953
     110A      2.932006   111A      2.960039   112A      2.968886
     113A      2.968986   114A      3.041944   115A      3.080664
     116A      3.081516   117A      3.086400   118A      3.184158
     119A      3.184901   120A      3.188277   121A      3.289938
     122A      3.290278   123A      3.330558   124A      3.331379
     125A      3.383446   126A      3.492641   127A      3.493150
     128A      3.512359   129A      3.528390   130A      3.574989
     131A      3.581224   132A      3.582234   133A      3.670809
     134A      3.671475   135A      3.692948   136A      3.725724
     137A      3.725810   138A      3.781200   139A      3.781455
     140A      3.817666   141A      3.921390   142A      3.922686
     143A      4.045332   144A      4.117411   145A      4.118901
     146A      4.154735   147A      4.155870   148A      4.187376
     149A      4.208268   150A      4.209634   151A      4.210621
     152A      4.215487   153A      4.322781   154A      4.324023
     155A      4.362336   156A      4.432143   157A      4.433197
     158A      4.446327   159A      4.523584   160A      4.525681
     161A      4.588837   162A      4.588908   163A      4.624739
     164A      4.719778   165A      4.780589   166A      4.782535
     167A      4.839831   168A      4.967660   169A      5.006627
     170A      5.007360   171A      5.233192   172A      5.248647
     173A      5.249074   174A      5.360727   175A      5.363266
     176A      5.481739

    Final Occupation by Irrep:
              A
    DOCC [    16 ]
    SOCC [     1 ]

  @DF-UKS Final Energy:  -157.81305872902865

   => Energetics <=

    Nuclear Repulsion Energy =            125.3946428371706787
    One-Electron Energy =                -458.7489178857516094
    Two-Electron Energy =                 195.8483624809228161
    DFT Exchange-Correlation Energy =     -20.3071461613705431
    Empirical Dispersion Energy =           0.0000000000000000
    VV10 Nonlocal Energy =                  0.0000000000000000
    Total Energy =                       -157.8130587290286542

  UHF NO Occupations:
  HONO-2 :   15  A 1.9996009
  HONO-1 :   16  A 1.9989805
  HONO-0 :   17  A 1.0000000
  LUNO+0 :   18  A 0.0010195
  LUNO+1 :   19  A 0.0003991
  LUNO+2 :   20  A 0.0001976
  LUNO+3 :   21  A 0.0001975

Computation Completed

Properties will be evaluated at   0.000000,   0.000000,   0.000000 [a0]

Properties computed using the SCF density matrix

  Nuclear Dipole Moment: [e a0]
     X:     0.8272      Y:    -0.0032      Z:    -0.0000

  Electronic Dipole Moment: [e a0]
     X:    -0.7493      Y:     0.0050      Z:    -0.0000

  Dipole Moment: [e a0]
     X:     0.0779      Y:     0.0017      Z:    -0.0000     Total:     0.0779

  Dipole Moment: [D]
     X:     0.1980      Y:     0.0044      Z:    -0.0000     Total:     0.1981

*** tstop() called on n058 at Fri Nov  5 12:44:59 2021
Module time:
	user time   =     514.02 seconds =       8.57 minutes
	system time =      11.47 seconds =       0.19 minutes
	total time  =        132 seconds =       2.20 minutes
Total time:
	user time   =     514.02 seconds =       8.57 minutes
	system time =      11.47 seconds =       0.19 minutes
	total time  =        132 seconds =       2.20 minutes
Grab this energy -157.81305872902865
    Psi4 stopped on: Friday, 05 November 2021 12:44PM
    Psi4 wall time for execution: 0:02:12.18

*** Psi4 exiting successfully. Buy a developer a beer!
