                               Psi4 1.4a2.dev629

  ==> Input File <==

--------------------------------------------------------------------------
import os
memory 14 GB

molecule {
 C   -0.3247918029   -0.0004956190   -0.0000000000
 C    0.0620444437   -1.4010741618   -2.4266512971
 C    0.0617807742    2.8008064448   -0.0000000000
 C    0.0620444437   -1.4010741618    2.4266512971
 H    2.0847972813   -1.6442217695   -2.8477035817
 H   -0.7644007649   -0.3898556826   -4.0247281170
 H   -0.7647213293   -3.2896093736   -2.3495691396
 H    2.0909327681    3.2876469497    0.0000000000
 H   -0.7679844388    3.6807699430    1.6804855891
 H   -0.7679844388    3.6807699430   -1.6804855891
 H    2.0847972813   -1.6442217695    2.8477035817
 H   -0.7647213293   -3.2896093736    2.3495691396
 H   -0.7644007649   -0.3898556826    4.0247281170
units bohr
0 2
}

basis {

assign 6-31g_2dfp_

[ 6-31g_2dfp_ ]

spherical

!----------------------------------------------------------------------
! Basis Set Exchange
! Version v0.8.13
! https://www.basissetexchange.org
!----------------------------------------------------------------------
!   Basis set: 6-31G(2df,p)
! Description: 6-31G(2df,p)
!        Role: orbital
!     Version: 0  (Data from the original Basis Set Exchange)
!----------------------------------------------------------------------

****
H     0
S    3   1.00
     18.7311370              0.03349460
      2.8253937              0.23472695
      0.6401217              0.81375733
S    1   1.00
      0.1612778              1.00000000
P    1   1.00
      1.5000000              1.0000000
P    1   1.00
      0.3750000              1.0000000
****
B     0
S    6   1.00
   2068.8823000              0.0018663
    310.6495700              0.0142515
     70.6830330              0.0695516
     19.8610800              0.2325729
      6.2993048              0.4670787
      2.1270270              0.3634314
SP   3   1.00
      4.7279710             -0.1303938              0.0745976
      1.1903377             -0.1307889              0.3078467
      0.3594117              1.1309444              0.7434568
SP   1   1.00
      0.1267512              1.0000000              1.0000000
D    1   1.00
      0.8020000              1.0000000
D    1   1.00
      0.2005000              1.0000000
F    1   1.00
      0.5000000              1.0000000
****
C     0
S    6   1.00
   3047.5249000              0.0018347
    457.3695100              0.0140373
    103.9486900              0.0688426
     29.2101550              0.2321844
      9.2866630              0.4679413
      3.1639270              0.3623120
SP   3   1.00
      7.8682724             -0.1193324              0.0689991
      1.8812885             -0.1608542              0.3164240
      0.5442493              1.1434564              0.7443083
SP   1   1.00
      0.1687144              1.0000000              1.0000000
D    1   1.00
      1.2520000              1.0000000
D    1   1.00
      0.3130000              1.0000000
F    1   1.00
      0.8000000              1.0000000
****
N     0
S    6   1.00
   4173.5110000              0.0018348
    627.4579000              0.0139950
    142.9021000              0.0685870
     40.2343300              0.2322410
     12.8202100              0.4690700
      4.3904370              0.3604550
SP   3   1.00
     11.6263580             -0.1149610              0.0675800
      2.7162800             -0.1691180              0.3239070
      0.7722180              1.1458520              0.7408950
SP   1   1.00
      0.2120313              1.0000000              1.0000000
D    1   1.00
      1.8260000              1.0000000
D    1   1.00
      0.4565000              1.0000000
F    1   1.00
      1.0000000              1.0000000
****
O     0
S    6   1.00
   5484.6717000              0.0018311
    825.2349500              0.0139501
    188.0469600              0.0684451
     52.9645000              0.2327143
     16.8975700              0.4701930
      5.7996353              0.3585209
SP   3   1.00
     15.5396160             -0.1107775              0.0708743
      3.5999336             -0.1480263              0.3397528
      1.0137618              1.1307670              0.7271586
SP   1   1.00
      0.2700058              1.0000000              1.0000000
D    1   1.00
      2.5840000              1.0000000
D    1   1.00
      0.6460000              1.0000000
F    1   1.00
      1.4000000              1.0000000
****
F     0
S    6   1.00
   7001.7130900              0.0018196169
   1051.3660900              0.0139160796
    239.2856900              0.0684053245
     67.3974453              0.233185760
     21.5199573              0.471267439
      7.40310130             0.356618546
SP   3   1.00
     20.8479528             -0.108506975            0.0716287243
      4.80830834            -0.146451658            0.3459121030
      1.34406986             1.128688580            0.7224699570
SP   1   1.00
      0.358151393            1.0000000              1.0000000
D    1   1.00
      3.5000000              1.0000000
D    1   1.00
      0.8750000              1.0000000
F    1   1.00
      1.8500000              1.0000000
****
Al     0
S    6   1.00
  13983.1000000              0.00194267
   2098.7500000              0.0148599
    477.7050000              0.0728494
    134.3600000              0.2468300
     42.8709000              0.4872580
     14.5189000              0.3234960
SP   6   1.00
    239.6680000             -0.00292619             0.00460285
     57.4419000             -0.0374080              0.0331990
     18.2859000             -0.1144870              0.1362820
      6.5991400              0.1156350              0.3304760
      2.4904900              0.6125950              0.4491460
      0.9445400              0.3937990              0.2657040
SP   3   1.00
      1.2779000             -0.2276060             -0.0175130
      0.3975900              0.00144583             0.2445330
      0.1600950              1.0927900              0.8049340
SP   1   1.00
      0.0556577              1.0000000              1.0000000
D    1   1.00
      0.6500000              1.0000000
D    1   1.00
      0.1625000              1.0000000
F    1   1.00
      0.2500000              1.0000000
****
Si     0
S    6   1.00
  16115.9000000              0.00195948
   2425.5800000              0.01492880
    553.8670000              0.07284780
    156.3400000              0.24613000
     50.0683000              0.48591400
     17.0178000              0.32500200
SP   6   1.00
    292.7180000             -0.00278094             0.00443826
     69.8731000             -0.03571460             0.03266790
     22.3363000             -0.11498500             0.13472100
      8.1503900              0.09356340             0.32867800
      3.1345800              0.60301700             0.44964000
      1.2254300              0.41895900             0.26137200
SP   3   1.00
      1.7273800             -0.24463000            -0.01779510
      0.5729220              0.00431572             0.25353900
      0.2221920              1.09818000             0.80066900
SP   1   1.00
      0.0778369              1.00000000             1.00000000
D    1   1.00
      0.9000000              1.0000000
D    1   1.00
      0.2250000              1.0000000
F    1   1.00
      0.3200000              1.0000000
****
P     0
S    6   1.00
  19413.3000000              0.0018516
   2909.4200000              0.0142062
    661.3640000              0.0699995
    185.7590000              0.2400790
     59.1943000              0.4847620
     20.0310000              0.3352000
SP   6   1.00
    339.4780000             -0.00278217             0.00456462
     81.0101000             -0.0360499              0.03369360
     25.8780000             -0.1166310              0.13975500
      9.4522100              0.0968328              0.33936200
      3.6656600              0.6144180              0.45092100
      1.4674600              0.4037980              0.23858600
SP   3   1.00
      2.1562300             -0.2529230             -0.01776530
      0.7489970              0.0328517              0.27405800
      0.2831450              1.0812500              0.78542100
SP   1   1.00
      0.0998317              1.0000000              1.00000000
D    1   1.00
      1.1000000              1.0000000
D    1   1.00
      0.2750000              1.0000000
F    1   1.00
      0.4500000              1.0000000
****
S     0
S    6   1.00
  21917.1000000              0.0018690
   3301.4900000              0.0142300
    754.1460000              0.0696960
    212.7110000              0.2384870
     67.9896000              0.4833070
     23.0515000              0.3380740
SP   6   1.00
    423.7350000             -0.0023767              0.0040610
    100.7100000             -0.0316930              0.0306810
     32.1599000             -0.1133170              0.1304520
     11.8079000              0.0560900              0.3272050
      4.6311000              0.5922550              0.4528510
      1.8702500              0.4550060              0.2560420
SP   3   1.00
      2.6158400             -0.2503740             -0.0145110
      0.9221670              0.0669570              0.3102630
      0.3412870              1.0545100              0.7544830
SP   1   1.00
      0.1171670              1.0000000              1.0000000
D    1   1.00
      1.3000000              1.0000000
D    1   1.00
      0.3250000              1.0000000
F    1   1.00
      0.5500000              1.0000000
****
Cl     0
S    6   1.00
  25180.1000000              0.0018330
   3780.3500000              0.0140340
    860.4740000              0.0690970
    242.1450000              0.2374520
     77.3349000              0.4830340
     26.2470000              0.3398560
SP   6   1.00
    491.7650000             -0.0022974              0.0039894
    116.9840000             -0.0307140              0.0303180
     37.4153000             -0.1125280              0.1298800
     13.7834000              0.0450160              0.3279510
      5.4521500              0.5893530              0.4535270
      2.2258800              0.4652060              0.2521540
SP   3   1.00
      3.1864900             -0.2518300             -0.0142990
      1.1442700              0.0615890              0.3235720
      0.4203770              1.0601800              0.7435070
SP   1   1.00
      0.1426570              1.0000000              1.0000000
D    1   1.00
      1.5000000              1.0000000
D    1   1.00
      0.3750000              1.0000000
F    1   1.00
      0.7000000              1.0000000
****
}

set {
reference uhf
freeze_core true
e_convergence 10
d_convergence 10
dft_spherical_points 1202
dft_radial_points 99
}

e = energy('b3lyp')

print_out('Grab this energy {0}'.format(e))
--------------------------------------------------------------------------

    Molecular point group: cs

    Geometry (in Bohr), charge = 0, multiplicity = 2:

       Center              X                  Y                   Z               Mass
    ------------   -----------------  -----------------  -----------------  -----------------
         C           -0.325007107620    -0.000141274329     0.000000000000    12.000000000000
         C            0.061829138980    -1.400719817129    -2.426651297100    12.000000000000
         C            0.061565469480     2.801160789471     0.000000000000    12.000000000000
         C            0.061829138980    -1.400719817129     2.426651297100    12.000000000000
         H            2.084581976580    -1.643867424829    -2.847703581700     1.007825032230
         H           -0.764616069620    -0.389501337929    -4.024728117000     1.007825032230
         H           -0.764936634020    -3.289255028929    -2.349569139600     1.007825032230
         H            2.090717463380     3.288001294371     0.000000000000     1.007825032230
         H           -0.768199743520     3.681124287671     1.680485589100     1.007825032230
         H           -0.768199743520     3.681124287671    -1.680485589100     1.007825032230
         H            2.084581976580    -1.643867424829     2.847703581700     1.007825032230
         H           -0.764936634020    -3.289255028929     2.349569139600     1.007825032230
         H           -0.764616069620    -0.389501337929     4.024728117000     1.007825032230

  Charge       = 0
  Multiplicity = 2
  Basis Set: ANONYMOUSD27B265A
    Blend: 6-31G_2DFP_
  Basis Set: (ANONYMOUSD27B265A AUX)
    Blend: DEF2-UNIVERSAL-JKFIT

    Orbital Energies [Eh]
    ---------------------

    Alpha Occupied:

       1Ap   -10.180407     2Ap   -10.167677     1App  -10.166687
       3Ap   -10.166656     4Ap    -0.797751     2App   -0.686491
       5Ap    -0.685849     6Ap    -0.530781     7Ap    -0.441182
       8Ap    -0.434694     3App   -0.434522     4App   -0.382928
       9Ap    -0.382484     5App   -0.363486    10Ap    -0.337939
       6App   -0.337874    11Ap    -0.169145

    Alpha Virtual:

      12Ap     0.076074     7App    0.134141    13Ap     0.134148
       8App    0.142510    14Ap     0.142713    15Ap     0.154954
      16Ap     0.178528     9App    0.179169    17Ap     0.203573
      10App    0.214757    11App    0.275767    18Ap     0.275859
      19Ap     0.399126    12App    0.399291    20Ap     0.403264
      13App    0.423973    21Ap     0.424164    22Ap     0.456685
      23Ap     0.495294    14App    0.495434    15App    0.512207
      24Ap     0.513879    25Ap     0.578814    16App    0.579072
      26Ap     0.591342    17App    0.591961    27Ap     0.602808
      28Ap     0.624685    18App    0.631626    19App    0.635796
      29Ap     0.636473    30Ap     0.663391    20App    0.663755
      31Ap     0.683439    21App    0.684061    32Ap     0.734797
      22App    0.824944    33Ap     0.825751    23App    0.853919
      24App    0.914949    34Ap     0.914976    25App    0.944178
      35Ap     0.944660    26App    0.961056    36Ap     0.961570
      37Ap     1.003456    38Ap     1.127870    27App    1.128543
      39Ap     1.142238    28App    1.163617    40Ap     1.163780
      41Ap     1.223162    42Ap     1.274243    29App    1.274607
      43Ap     1.279593    30App    1.323747    44Ap     1.324462
      45Ap     1.356217    46Ap     1.365420    31App    1.365937
      32App    1.392463    47Ap     1.403704    33App    1.404479
      48Ap     1.417035    34App    1.417652    35App    1.427964
      36App    1.491309    49Ap     1.499477    37App    1.542826
      50Ap     1.542939    38App    1.573885    51Ap     1.574445
      52Ap     1.669529    39App    1.739092    53Ap     1.739230
      54Ap     1.768379    55Ap     1.829472    40App    1.832617
      41App    1.971437    56Ap     2.017177    42App    2.019264
      57Ap     2.019527    43App    2.052982    58Ap     2.053125
      44App    2.737844    59Ap     2.738735    60Ap     2.791121
      45App    2.811398    61Ap     2.889387    46App    2.889985
      62Ap     2.895292    47App    2.929410    63Ap     2.929618
      48App    2.958939    64Ap     2.963737    49App    2.964809
      65Ap     3.034368    66Ap     3.070235    50App    3.070639
      51App    3.084307    52App    3.168781    67Ap     3.169021
      68Ap     3.180563    53App    3.286043    69Ap     3.286181
      54App    3.327480    70Ap     3.327565    71Ap     3.375777
      55App    3.489094    72Ap     3.490774    56App    3.513838
      73Ap     3.525805    74Ap     3.568076    57App    3.568086
      58App    3.575803    75Ap     3.664994    59App    3.666548
      76Ap     3.679422    77Ap     3.693769    60App    3.694638
      78Ap     3.775939    61App    3.777144    79Ap     3.787853
      80Ap     3.911745    62App    3.912642    81Ap     4.034128
      82Ap     4.110339    63App    4.111810    64App    4.145995
      83Ap     4.150106    84Ap     4.173262    85Ap     4.200494
      65App    4.203853    86Ap     4.204563    66App    4.211213
      87Ap     4.315464    67App    4.316842    68App    4.359428
      69App    4.423960    88Ap     4.424540    70App    4.443290
      89Ap     4.516892    71App    4.517354    72App    4.577994
      90Ap     4.578837    91Ap     4.617034    92Ap     4.709807
      93Ap     4.774326    73App    4.774553    74App    4.835675
      94Ap     4.962964    95Ap     5.002566    75App    5.003666
      96Ap     5.227732    76App    5.242958    97Ap     5.250417
      98Ap     5.352386    77App    5.358264    78App    5.479066

    Beta Occupied:

       1Ap   -10.168437     1App  -10.167435     2Ap   -10.167424
       3Ap   -10.166578     4Ap    -0.781081     2App   -0.684291
       5Ap    -0.683649     6Ap    -0.511744     7Ap    -0.431066
       3App   -0.430872     8Ap    -0.421911     4App   -0.377033
       9Ap    -0.376569     5App   -0.362469    10Ap    -0.333058
       6App   -0.333008

    Beta Virtual:

      11Ap    -0.025844    12Ap     0.077078     7App    0.134964
      13Ap     0.135085     8App    0.144430    14Ap     0.144537
      15Ap     0.163403    16Ap     0.182209     9App    0.182833
      10App    0.214987    17Ap     0.218933    11App    0.282125
      18Ap     0.282222    19Ap     0.400292    12App    0.400463
      20Ap     0.419685    13App    0.426784    21Ap     0.426981
      22Ap     0.468607    23Ap     0.497559    14App    0.497699
      15App    0.513938    24Ap     0.556224    25Ap     0.584343
      16App    0.584615    26Ap     0.597554    17App    0.598124
      27Ap     0.610201    28Ap     0.628084    18App    0.631826
      19App    0.639066    29Ap     0.639742    30Ap     0.666944
      20App    0.667335    31Ap     0.686102    21App    0.686656
      32Ap     0.757341    22App    0.830090    33Ap     0.830949
      23App    0.855269    24App    0.922932    34Ap     0.922956
      25App    0.946011    35Ap     0.953582    26App    0.966357
      36Ap     0.966815    37Ap     1.008715    38Ap     1.131892
      27App    1.132594    39Ap     1.155583    28App    1.168674
      40Ap     1.168865    41Ap     1.232131    42Ap     1.279854
      29App    1.280222    43Ap     1.285354    30App    1.328697
      44Ap     1.329507    45Ap     1.365600    46Ap     1.370680
      31App    1.371163    32App    1.393515    47Ap     1.407151
      33App    1.407962    48Ap     1.422019    34App    1.422726
      35App    1.428238    36App    1.492356    49Ap     1.509927
      37App    1.547186    50Ap     1.547390    38App    1.581765
      51Ap     1.582310    52Ap     1.674390    39App    1.744867
      53Ap     1.744978    54Ap     1.779136    55Ap     1.833349
      40App    1.836434    41App    1.972299    42App    2.025722
      56Ap     2.025737    57Ap     2.038676    43App    2.059656
      58Ap     2.059925    44App    2.746165    59Ap     2.747086
      45App    2.811819    60Ap     2.816238    61Ap     2.902226
      46App    2.902633    62Ap     2.924959    47App    2.931928
      63Ap     2.932038    48App    2.960002    64Ap     2.968254
      49App    2.969401    65Ap     3.042262    66Ap     3.080128
      50App    3.080613    51App    3.086151    52App    3.184397
      67Ap     3.184690    68Ap     3.188311    53App    3.290776
      69Ap     3.290967    54App    3.331313    70Ap     3.331357
      71Ap     3.383605    55App    3.491875    72Ap     3.493491
      56App    3.512206    73Ap     3.528859    57App    3.575564
      74Ap     3.581488    58App    3.581541    75Ap     3.669682
      59App    3.671327    76Ap     3.692741    77Ap     3.725362
      60App    3.726279    78Ap     3.780543    61App    3.781679
      79Ap     3.816390    80Ap     3.921539    62App    3.922408
      81Ap     4.045038    82Ap     4.117358    63App    4.118370
      64App    4.153444    83Ap     4.157135    84Ap     4.187273
      85Ap     4.207289    65App    4.209837    86Ap     4.211633
      66App    4.215678    87Ap     4.323048    67App    4.324176
      68App    4.362793    69App    4.432142    88Ap     4.432658
      70App    4.446223    89Ap     4.524727    71App    4.525067
      72App    4.588674    90Ap     4.589426    91Ap     4.624217
      92Ap     4.720177    93Ap     4.781261    73App    4.781553
      74App    4.838603    94Ap     4.967757    95Ap     5.006608
      75App    5.007674    96Ap     5.233446    76App    5.244744
      97Ap     5.252207    98Ap     5.358885    77App    5.364737
      78App    5.481393

    Final Occupation by Irrep:
             Ap   App
    DOCC [    10,    6 ]
    SOCC [     1,    0 ]

  @DF-UKS Final Energy:  -157.81304915830685

   => Energetics <=

    Nuclear Repulsion Energy =            125.3922381344561501
    One-Electron Energy =                -458.7442753346739437
    Two-Electron Energy =                 195.8460662188988408
    DFT Exchange-Correlation Energy =     -20.3070781769878828
    Empirical Dispersion Energy =           0.0000000000000000
    VV10 Nonlocal Energy =                  0.0000000000000000
    Total Energy =                       -157.8130491583068533

  UHF NO Occupations:
  HONO-2 :    9 Ap 1.9996024
  HONO-1 :   10 Ap 1.9989820
  HONO-0 :   11 Ap 1.0000000
  LUNO+0 :   12 Ap 0.0010180
  LUNO+1 :   13 Ap 0.0003976
  LUNO+2 :   14 Ap 0.0001977
  LUNO+3 :    7App 0.0001976

Computation Completed

Properties will be evaluated at   0.000000,   0.000000,   0.000000 [a0]

Properties computed using the SCF density matrix

  Nuclear Dipole Moment: [e a0]
     X:     0.8257      Y:     0.0025      Z:     0.0000

  Electronic Dipole Moment: [e a0]
     X:    -0.7470      Y:    -0.0049      Z:     0.0000

  Dipole Moment: [e a0]
     X:     0.0787      Y:    -0.0024      Z:     0.0000     Total:     0.0787

  Dipole Moment: [D]
     X:     0.2000      Y:    -0.0062      Z:     0.0000     Total:     0.2001

*** tstop() called on n058 at Fri Nov  5 11:37:22 2021
Module time:
	user time   =     542.78 seconds =       9.05 minutes
	system time =      12.14 seconds =       0.20 minutes
	total time  =        140 seconds =       2.33 minutes
Total time:
	user time   =     542.78 seconds =       9.05 minutes
	system time =      12.14 seconds =       0.20 minutes
	total time  =        140 seconds =       2.33 minutes
Grab this energy -157.81304915830685
    Psi4 stopped on: Friday, 05 November 2021 11:37AM
    Psi4 wall time for execution: 0:02:19.55

*** Psi4 exiting successfully. Buy a developer a beer!
