                               Psi4 1.4a2.dev629

  ==> Input File <==

--------------------------------------------------------------------------
import os
memory 14 GB

molecule {
 C   -0.3233327397    0.0049897168    0.0004973875
 C    0.0626323483   -1.4036937030   -2.4200746842
 C    0.0604196036    2.8096665900    0.0003860429
 C    0.0602502865   -1.4034450665    2.4204122372
 H    2.0837516571   -1.6504441353   -2.8389545442
 H   -0.7614339422   -0.3943265113   -4.0251815051
 H   -0.7651812874   -3.2957846621   -2.3342845537
 H    2.0860224403    3.2972575205    0.0001856029
 H   -0.7655051315    3.6877049589    1.6763964646
 H   -0.7679006748    3.6886355994   -1.6769956441
 H    2.0908958243   -1.6498636252    2.8383059706
 H   -0.7696731845   -3.2916407182    2.3373316002
 H   -0.7635530767   -0.3990802777    4.0219756254
units bohr
0 2
}

basis {

assign 6-31g_2dfp_

[ 6-31g_2dfp_ ]

spherical

!----------------------------------------------------------------------
! Basis Set Exchange
! Version v0.8.13
! https://www.basissetexchange.org
!----------------------------------------------------------------------
!   Basis set: 6-31G(2df,p)
! Description: 6-31G(2df,p)
!        Role: orbital
!     Version: 0  (Data from the original Basis Set Exchange)
!----------------------------------------------------------------------

****
H     0
S    3   1.00
     18.7311370              0.03349460
      2.8253937              0.23472695
      0.6401217              0.81375733
S    1   1.00
      0.1612778              1.00000000
P    1   1.00
      1.5000000              1.0000000
P    1   1.00
      0.3750000              1.0000000
****
B     0
S    6   1.00
   2068.8823000              0.0018663
    310.6495700              0.0142515
     70.6830330              0.0695516
     19.8610800              0.2325729
      6.2993048              0.4670787
      2.1270270              0.3634314
SP   3   1.00
      4.7279710             -0.1303938              0.0745976
      1.1903377             -0.1307889              0.3078467
      0.3594117              1.1309444              0.7434568
SP   1   1.00
      0.1267512              1.0000000              1.0000000
D    1   1.00
      0.8020000              1.0000000
D    1   1.00
      0.2005000              1.0000000
F    1   1.00
      0.5000000              1.0000000
****
C     0
S    6   1.00
   3047.5249000              0.0018347
    457.3695100              0.0140373
    103.9486900              0.0688426
     29.2101550              0.2321844
      9.2866630              0.4679413
      3.1639270              0.3623120
SP   3   1.00
      7.8682724             -0.1193324              0.0689991
      1.8812885             -0.1608542              0.3164240
      0.5442493              1.1434564              0.7443083
SP   1   1.00
      0.1687144              1.0000000              1.0000000
D    1   1.00
      1.2520000              1.0000000
D    1   1.00
      0.3130000              1.0000000
F    1   1.00
      0.8000000              1.0000000
****
N     0
S    6   1.00
   4173.5110000              0.0018348
    627.4579000              0.0139950
    142.9021000              0.0685870
     40.2343300              0.2322410
     12.8202100              0.4690700
      4.3904370              0.3604550
SP   3   1.00
     11.6263580             -0.1149610              0.0675800
      2.7162800             -0.1691180              0.3239070
      0.7722180              1.1458520              0.7408950
SP   1   1.00
      0.2120313              1.0000000              1.0000000
D    1   1.00
      1.8260000              1.0000000
D    1   1.00
      0.4565000              1.0000000
F    1   1.00
      1.0000000              1.0000000
****
O     0
S    6   1.00
   5484.6717000              0.0018311
    825.2349500              0.0139501
    188.0469600              0.0684451
     52.9645000              0.2327143
     16.8975700              0.4701930
      5.7996353              0.3585209
SP   3   1.00
     15.5396160             -0.1107775              0.0708743
      3.5999336             -0.1480263              0.3397528
      1.0137618              1.1307670              0.7271586
SP   1   1.00
      0.2700058              1.0000000              1.0000000
D    1   1.00
      2.5840000              1.0000000
D    1   1.00
      0.6460000              1.0000000
F    1   1.00
      1.4000000              1.0000000
****
F     0
S    6   1.00
   7001.7130900              0.0018196169
   1051.3660900              0.0139160796
    239.2856900              0.0684053245
     67.3974453              0.233185760
     21.5199573              0.471267439
      7.40310130             0.356618546
SP   3   1.00
     20.8479528             -0.108506975            0.0716287243
      4.80830834            -0.146451658            0.3459121030
      1.34406986             1.128688580            0.7224699570
SP   1   1.00
      0.358151393            1.0000000              1.0000000
D    1   1.00
      3.5000000              1.0000000
D    1   1.00
      0.8750000              1.0000000
F    1   1.00
      1.8500000              1.0000000
****
Al     0
S    6   1.00
  13983.1000000              0.00194267
   2098.7500000              0.0148599
    477.7050000              0.0728494
    134.3600000              0.2468300
     42.8709000              0.4872580
     14.5189000              0.3234960
SP   6   1.00
    239.6680000             -0.00292619             0.00460285
     57.4419000             -0.0374080              0.0331990
     18.2859000             -0.1144870              0.1362820
      6.5991400              0.1156350              0.3304760
      2.4904900              0.6125950              0.4491460
      0.9445400              0.3937990              0.2657040
SP   3   1.00
      1.2779000             -0.2276060             -0.0175130
      0.3975900              0.00144583             0.2445330
      0.1600950              1.0927900              0.8049340
SP   1   1.00
      0.0556577              1.0000000              1.0000000
D    1   1.00
      0.6500000              1.0000000
D    1   1.00
      0.1625000              1.0000000
F    1   1.00
      0.2500000              1.0000000
****
Si     0
S    6   1.00
  16115.9000000              0.00195948
   2425.5800000              0.01492880
    553.8670000              0.07284780
    156.3400000              0.24613000
     50.0683000              0.48591400
     17.0178000              0.32500200
SP   6   1.00
    292.7180000             -0.00278094             0.00443826
     69.8731000             -0.03571460             0.03266790
     22.3363000             -0.11498500             0.13472100
      8.1503900              0.09356340             0.32867800
      3.1345800              0.60301700             0.44964000
      1.2254300              0.41895900             0.26137200
SP   3   1.00
      1.7273800             -0.24463000            -0.01779510
      0.5729220              0.00431572             0.25353900
      0.2221920              1.09818000             0.80066900
SP   1   1.00
      0.0778369              1.00000000             1.00000000
D    1   1.00
      0.9000000              1.0000000
D    1   1.00
      0.2250000              1.0000000
F    1   1.00
      0.3200000              1.0000000
****
P     0
S    6   1.00
  19413.3000000              0.0018516
   2909.4200000              0.0142062
    661.3640000              0.0699995
    185.7590000              0.2400790
     59.1943000              0.4847620
     20.0310000              0.3352000
SP   6   1.00
    339.4780000             -0.00278217             0.00456462
     81.0101000             -0.0360499              0.03369360
     25.8780000             -0.1166310              0.13975500
      9.4522100              0.0968328              0.33936200
      3.6656600              0.6144180              0.45092100
      1.4674600              0.4037980              0.23858600
SP   3   1.00
      2.1562300             -0.2529230             -0.01776530
      0.7489970              0.0328517              0.27405800
      0.2831450              1.0812500              0.78542100
SP   1   1.00
      0.0998317              1.0000000              1.00000000
D    1   1.00
      1.1000000              1.0000000
D    1   1.00
      0.2750000              1.0000000
F    1   1.00
      0.4500000              1.0000000
****
S     0
S    6   1.00
  21917.1000000              0.0018690
   3301.4900000              0.0142300
    754.1460000              0.0696960
    212.7110000              0.2384870
     67.9896000              0.4833070
     23.0515000              0.3380740
SP   6   1.00
    423.7350000             -0.0023767              0.0040610
    100.7100000             -0.0316930              0.0306810
     32.1599000             -0.1133170              0.1304520
     11.8079000              0.0560900              0.3272050
      4.6311000              0.5922550              0.4528510
      1.8702500              0.4550060              0.2560420
SP   3   1.00
      2.6158400             -0.2503740             -0.0145110
      0.9221670              0.0669570              0.3102630
      0.3412870              1.0545100              0.7544830
SP   1   1.00
      0.1171670              1.0000000              1.0000000
D    1   1.00
      1.3000000              1.0000000
D    1   1.00
      0.3250000              1.0000000
F    1   1.00
      0.5500000              1.0000000
****
Cl     0
S    6   1.00
  25180.1000000              0.0018330
   3780.3500000              0.0140340
    860.4740000              0.0690970
    242.1450000              0.2374520
     77.3349000              0.4830340
     26.2470000              0.3398560
SP   6   1.00
    491.7650000             -0.0022974              0.0039894
    116.9840000             -0.0307140              0.0303180
     37.4153000             -0.1125280              0.1298800
     13.7834000              0.0450160              0.3279510
      5.4521500              0.5893530              0.4535270
      2.2258800              0.4652060              0.2521540
SP   3   1.00
      3.1864900             -0.2518300             -0.0142990
      1.1442700              0.0615890              0.3235720
      0.4203770              1.0601800              0.7435070
SP   1   1.00
      0.1426570              1.0000000              1.0000000
D    1   1.00
      1.5000000              1.0000000
D    1   1.00
      0.3750000              1.0000000
F    1   1.00
      0.7000000              1.0000000
****
}

set {
reference uhf
freeze_core true
e_convergence 10
d_convergence 10
dft_spherical_points 1202
dft_radial_points 99
}

e = energy('b3lyp')

print_out('Grab this energy {0}'.format(e))
--------------------------------------------------------------------------

    Molecular point group: c1

    Geometry (in Bohr), charge = 0, multiplicity = 2:

       Center              X                  Y                   Z               Mass
    ------------   -----------------  -----------------  -----------------  -----------------
         C           -0.323334566299     0.003542214333     0.000262217303    12.000000000000
         C            0.062630521701    -1.405141205467    -2.420309854397    12.000000000000
         C            0.060417777001     2.808219087533     0.000150872703    12.000000000000
         C            0.060248459901    -1.404892568967     2.420177067003    12.000000000000
         H            2.083749830501    -1.651891637767    -2.839189714397     1.007825032230
         H           -0.761435768799    -0.395774013767    -4.025416675297     1.007825032230
         H           -0.765183113999    -3.297232164567    -2.334519723897     1.007825032230
         H            2.086020613701     3.295810018033    -0.000049567297     1.007825032230
         H           -0.765506958099     3.686257456433     1.676161294403     1.007825032230
         H           -0.767902501399     3.687188096933    -1.677230814297     1.007825032230
         H            2.090893997701    -1.651311127667     2.838070800403     1.007825032230
         H           -0.769675011099    -3.293088220667     2.337096430003     1.007825032230
         H           -0.763554903299    -0.400527780167     4.021740455203     1.007825032230

  Charge       = 0
  Multiplicity = 2
  Basis Set: ANONYMOUSFFA40882
    Blend: 6-31G_2DFP_
  Basis Set: (ANONYMOUSFFA40882 AUX)
    Blend: DEF2-UNIVERSAL-JKFIT

    Orbital Energies [Eh]
    ---------------------

    Alpha Occupied:

       1A    -10.180342     2A    -10.167329     3A    -10.166886
       4A    -10.166831     5A     -0.797770     6A     -0.686407
       7A     -0.685966     8A     -0.530778     9A     -0.441129
      10A     -0.434938    11A     -0.434403    12A     -0.382746
      13A     -0.382449    14A     -0.363610    15A     -0.338276
      16A     -0.337719    17A     -0.168961

    Alpha Virtual:

      18A      0.076071    19A      0.133862    20A      0.134446
      21A      0.142474    22A      0.142778    23A      0.154881
      24A      0.178540    25A      0.179019    26A      0.203545
      27A      0.214808    28A      0.275801    29A      0.276171
      30A      0.399019    31A      0.399375    32A      0.403410
      33A      0.423943    34A      0.424261    35A      0.456594
      36A      0.494960    37A      0.495807    38A      0.512173
      39A      0.513989    40A      0.578489    41A      0.579117
      42A      0.591486    43A      0.591780    44A      0.602584
      45A      0.624768    46A      0.631750    47A      0.636000
      48A      0.636517    49A      0.662985    50A      0.663855
      51A      0.683553    52A      0.684160    53A      0.734994
      54A      0.824573    55A      0.826220    56A      0.853920
      57A      0.914701    58A      0.915353    59A      0.944048
      60A      0.944516    61A      0.961091    62A      0.961708
      63A      1.003469    64A      1.126942    65A      1.129296
      66A      1.142205    67A      1.162758    68A      1.163782
      69A      1.223334    70A      1.273960    71A      1.275014
      72A      1.279372    73A      1.324257    74A      1.324451
      75A      1.355960    76A      1.365335    77A      1.366707
      78A      1.392438    79A      1.403141    80A      1.405041
      81A      1.416408    82A      1.417844    83A      1.427930
      84A      1.491432    85A      1.499061    86A      1.542245
      87A      1.543441    88A      1.572589    89A      1.576412
      90A      1.669815    91A      1.738322    92A      1.740438
      93A      1.768384    94A      1.830448    95A      1.832359
      96A      1.971711    97A      2.017501    98A      2.018250
      99A      2.020614   100A      2.049968   101A      2.055439
     102A      2.737999   103A      2.738971   104A      2.790922
     105A      2.811438   106A      2.889828   107A      2.890041
     108A      2.894972   109A      2.929314   110A      2.929674
     111A      2.958993   112A      2.963414   113A      2.965367
     114A      3.034019   115A      3.070290   116A      3.072240
     117A      3.084397   118A      3.167977   119A      3.169625
     120A      3.180576   121A      3.284534   122A      3.286081
     123A      3.326189   124A      3.328142   125A      3.375672
     126A      3.489645   127A      3.490596   128A      3.514035
     129A      3.525297   130A      3.567308   131A      3.569309
     132A      3.575411   133A      3.665666   134A      3.667113
     135A      3.679652   136A      3.693653   137A      3.694571
     138A      3.776006   139A      3.777503   140A      3.789305
     141A      3.910800   142A      3.913664   143A      4.034457
     144A      4.109939   145A      4.112799   146A      4.146327
     147A      4.149827   148A      4.173218   149A      4.201064
     150A      4.202564   151A      4.205086   152A      4.211032
     153A      4.315126   154A      4.316829   155A      4.359004
     156A      4.424074   157A      4.424736   158A      4.443540
     159A      4.515749   160A      4.517975   161A      4.577194
     162A      4.579326   163A      4.617562   164A      4.709440
     165A      4.773248   166A      4.775957   167A      4.836939
     168A      4.962865   169A      5.001727   170A      5.004184
     171A      5.227992   172A      5.244754   173A      5.248879
     174A      5.354103   175A      5.356965   176A      5.479359

    Beta Occupied:

       1A    -10.168085     2A    -10.167645     3A    -10.167594
       4A    -10.166519     5A     -0.781095     6A     -0.684214
       7A     -0.683765     8A     -0.511750     9A     -0.431318
      10A     -0.430771    11A     -0.421820    12A     -0.376846
      13A     -0.376519    14A     -0.362594    15A     -0.333402
      16A     -0.332839

    Beta Virtual:

      17A     -0.025744    18A      0.077080    19A      0.134749
      20A      0.135340    21A      0.144359    22A      0.144634
      23A      0.163339    24A      0.182195    25A      0.182707
      26A      0.215037    27A      0.218927    28A      0.282137
      29A      0.282531    30A      0.400266    31A      0.400521
      32A      0.419798    33A      0.426743    34A      0.427085
      35A      0.468505    36A      0.497217    37A      0.498076
      38A      0.513909    39A      0.556329    40A      0.584073
      41A      0.584635    42A      0.597638    43A      0.597988
      44A      0.610001    45A      0.628150    46A      0.631916
      47A      0.639270    48A      0.639808    49A      0.666560
      50A      0.667407    51A      0.686154    52A      0.686831
      53A      0.757517    54A      0.829731    55A      0.831397
      56A      0.855274    57A      0.922669    58A      0.923324
      59A      0.945909    60A      0.953432    61A      0.966320
      62A      0.967087    63A      1.008707    64A      1.130981
      65A      1.133315    66A      1.155573    67A      1.167798
      68A      1.168899    69A      1.232303    70A      1.279552
      71A      1.280614    72A      1.285128    73A      1.329233
      74A      1.329454    75A      1.365371    76A      1.370474
      77A      1.372048    78A      1.393502    79A      1.406613
      80A      1.408510    81A      1.421441    82A      1.422903
      83A      1.428203    84A      1.492484    85A      1.509504
      86A      1.546587    87A      1.547909    88A      1.580616
      89A      1.584132    90A      1.674661    91A      1.744089
      92A      1.746203    93A      1.779155    94A      1.834288
      95A      1.836231    96A      1.972575    97A      2.023870
      98A      2.027015    99A      2.039636   100A      2.056797
     101A      2.062055   102A      2.746316   103A      2.747326
     104A      2.811850   105A      2.816057   106A      2.902551
     107A      2.902718   108A      2.924650   109A      2.931881
     110A      2.932074   111A      2.960059   112A      2.967984
     113A      2.969887   114A      3.041953   115A      3.080074
     116A      3.082100   117A      3.086400   118A      3.183783
     119A      3.185285   120A      3.188277   121A      3.289388
     122A      3.290829   123A      3.329982   124A      3.331961
     125A      3.383488   126A      3.492394   127A      3.493301
     128A      3.512412   129A      3.528352   130A      3.574796
     131A      3.580647   132A      3.583115   133A      3.670360
     134A      3.671916   135A      3.692949   136A      3.725319
     137A      3.726154   138A      3.780516   139A      3.782134
     140A      3.817762   141A      3.920614   142A      3.923483
     143A      4.045344   144A      4.116765   145A      4.119600
     146A      4.153608   147A      4.156975   148A      4.187269
     149A      4.207007   150A      4.210086   151A      4.211436
     152A      4.215543   153A      4.322563   154A      4.324269
     155A      4.362367   156A      4.432279   157A      4.432914
     158A      4.446472   159A      4.523612   160A      4.525684
     161A      4.587715   162A      4.590006   163A      4.624757
     164A      4.719785   165A      4.780168   166A      4.782943
     167A      4.839858   168A      4.967659   169A      5.005779
     170A      5.008211   171A      5.233702   172A      5.246555
     173A      5.250653   174A      5.360565   175A      5.363463
     176A      5.481680

    Final Occupation by Irrep:
              A
    DOCC [    16 ]
    SOCC [     1 ]

  @DF-UKS Final Energy:  -157.81305415682203

   => Energetics <=

    Nuclear Repulsion Energy =            125.3948828870898353
    One-Electron Energy =                -458.7493873855024731
    Two-Electron Energy =                 195.8485989957310096
    DFT Exchange-Correlation Energy =     -20.3071486541403878
    Empirical Dispersion Energy =           0.0000000000000000
    VV10 Nonlocal Energy =                  0.0000000000000000
    Total Energy =                       -157.8130541568220337

  UHF NO Occupations:
  HONO-2 :   15  A 1.9996008
  HONO-1 :   16  A 1.9989804
  HONO-0 :   17  A 1.0000000
  LUNO+0 :   18  A 0.0010196
  LUNO+1 :   19  A 0.0003992
  LUNO+2 :   20  A 0.0001979
  LUNO+3 :   21  A 0.0001972

Computation Completed

Properties will be evaluated at   0.000000,   0.000000,   0.000000 [a0]

Properties computed using the SCF density matrix

  Nuclear Dipole Moment: [e a0]
     X:     0.8272      Y:    -0.0102      Z:    -0.0017

  Electronic Dipole Moment: [e a0]
     X:    -0.7493      Y:     0.0110      Z:     0.0023

  Dipole Moment: [e a0]
     X:     0.0779      Y:     0.0008      Z:     0.0007     Total:     0.0779

  Dipole Moment: [D]
     X:     0.1980      Y:     0.0019      Z:     0.0017     Total:     0.1980

*** tstop() called on n079 at Fri Nov  5 14:11:39 2021
Module time:
	user time   =     498.17 seconds =       8.30 minutes
	system time =       4.70 seconds =       0.08 minutes
	total time  =        127 seconds =       2.12 minutes
Total time:
	user time   =     498.17 seconds =       8.30 minutes
	system time =       4.70 seconds =       0.08 minutes
	total time  =        127 seconds =       2.12 minutes
Grab this energy -157.81305415682203
    Psi4 stopped on: Friday, 05 November 2021 02:11PM
    Psi4 wall time for execution: 0:02:06.45

*** Psi4 exiting successfully. Buy a developer a beer!
