                               Psi4 1.4a2.dev629

  ==> Input File <==

--------------------------------------------------------------------------
import os
memory 14 GB

molecule {
 C   -0.3233319532    0.0004991964    0.0049994299
 C    0.0616151025   -1.3945031229   -2.4216432697
 C    0.0611167954    2.8026031261   -0.0062324679
 C    0.0605718741   -1.4067452324    2.4304015171
 H    2.0897017255   -1.6352009937   -2.8431231380
 H   -0.7670351423   -0.3773547724   -4.0192361091
 H   -0.7642847139   -3.2885591960   -2.3482206022
 H    2.0826130937    3.2885758200   -0.0111386908
 H   -0.7607239418    3.6872827035    1.6629964290
 H   -0.7662272409    3.6721372237   -1.6818825905
 H    2.0883558324   -1.6527783630    2.8512901199
 H   -0.7688755942   -3.3000897619    2.3486378486
 H   -0.7661037141   -0.3958909410    4.0331515236
units bohr
0 2
}

basis {

assign 6-31g_2dfp_

[ 6-31g_2dfp_ ]

spherical

!----------------------------------------------------------------------
! Basis Set Exchange
! Version v0.8.13
! https://www.basissetexchange.org
!----------------------------------------------------------------------
!   Basis set: 6-31G(2df,p)
! Description: 6-31G(2df,p)
!        Role: orbital
!     Version: 0  (Data from the original Basis Set Exchange)
!----------------------------------------------------------------------

****
H     0
S    3   1.00
     18.7311370              0.03349460
      2.8253937              0.23472695
      0.6401217              0.81375733
S    1   1.00
      0.1612778              1.00000000
P    1   1.00
      1.5000000              1.0000000
P    1   1.00
      0.3750000              1.0000000
****
B     0
S    6   1.00
   2068.8823000              0.0018663
    310.6495700              0.0142515
     70.6830330              0.0695516
     19.8610800              0.2325729
      6.2993048              0.4670787
      2.1270270              0.3634314
SP   3   1.00
      4.7279710             -0.1303938              0.0745976
      1.1903377             -0.1307889              0.3078467
      0.3594117              1.1309444              0.7434568
SP   1   1.00
      0.1267512              1.0000000              1.0000000
D    1   1.00
      0.8020000              1.0000000
D    1   1.00
      0.2005000              1.0000000
F    1   1.00
      0.5000000              1.0000000
****
C     0
S    6   1.00
   3047.5249000              0.0018347
    457.3695100              0.0140373
    103.9486900              0.0688426
     29.2101550              0.2321844
      9.2866630              0.4679413
      3.1639270              0.3623120
SP   3   1.00
      7.8682724             -0.1193324              0.0689991
      1.8812885             -0.1608542              0.3164240
      0.5442493              1.1434564              0.7443083
SP   1   1.00
      0.1687144              1.0000000              1.0000000
D    1   1.00
      1.2520000              1.0000000
D    1   1.00
      0.3130000              1.0000000
F    1   1.00
      0.8000000              1.0000000
****
N     0
S    6   1.00
   4173.5110000              0.0018348
    627.4579000              0.0139950
    142.9021000              0.0685870
     40.2343300              0.2322410
     12.8202100              0.4690700
      4.3904370              0.3604550
SP   3   1.00
     11.6263580             -0.1149610              0.0675800
      2.7162800             -0.1691180              0.3239070
      0.7722180              1.1458520              0.7408950
SP   1   1.00
      0.2120313              1.0000000              1.0000000
D    1   1.00
      1.8260000              1.0000000
D    1   1.00
      0.4565000              1.0000000
F    1   1.00
      1.0000000              1.0000000
****
O     0
S    6   1.00
   5484.6717000              0.0018311
    825.2349500              0.0139501
    188.0469600              0.0684451
     52.9645000              0.2327143
     16.8975700              0.4701930
      5.7996353              0.3585209
SP   3   1.00
     15.5396160             -0.1107775              0.0708743
      3.5999336             -0.1480263              0.3397528
      1.0137618              1.1307670              0.7271586
SP   1   1.00
      0.2700058              1.0000000              1.0000000
D    1   1.00
      2.5840000              1.0000000
D    1   1.00
      0.6460000              1.0000000
F    1   1.00
      1.4000000              1.0000000
****
F     0
S    6   1.00
   7001.7130900              0.0018196169
   1051.3660900              0.0139160796
    239.2856900              0.0684053245
     67.3974453              0.233185760
     21.5199573              0.471267439
      7.40310130             0.356618546
SP   3   1.00
     20.8479528             -0.108506975            0.0716287243
      4.80830834            -0.146451658            0.3459121030
      1.34406986             1.128688580            0.7224699570
SP   1   1.00
      0.358151393            1.0000000              1.0000000
D    1   1.00
      3.5000000              1.0000000
D    1   1.00
      0.8750000              1.0000000
F    1   1.00
      1.8500000              1.0000000
****
Al     0
S    6   1.00
  13983.1000000              0.00194267
   2098.7500000              0.0148599
    477.7050000              0.0728494
    134.3600000              0.2468300
     42.8709000              0.4872580
     14.5189000              0.3234960
SP   6   1.00
    239.6680000             -0.00292619             0.00460285
     57.4419000             -0.0374080              0.0331990
     18.2859000             -0.1144870              0.1362820
      6.5991400              0.1156350              0.3304760
      2.4904900              0.6125950              0.4491460
      0.9445400              0.3937990              0.2657040
SP   3   1.00
      1.2779000             -0.2276060             -0.0175130
      0.3975900              0.00144583             0.2445330
      0.1600950              1.0927900              0.8049340
SP   1   1.00
      0.0556577              1.0000000              1.0000000
D    1   1.00
      0.6500000              1.0000000
D    1   1.00
      0.1625000              1.0000000
F    1   1.00
      0.2500000              1.0000000
****
Si     0
S    6   1.00
  16115.9000000              0.00195948
   2425.5800000              0.01492880
    553.8670000              0.07284780
    156.3400000              0.24613000
     50.0683000              0.48591400
     17.0178000              0.32500200
SP   6   1.00
    292.7180000             -0.00278094             0.00443826
     69.8731000             -0.03571460             0.03266790
     22.3363000             -0.11498500             0.13472100
      8.1503900              0.09356340             0.32867800
      3.1345800              0.60301700             0.44964000
      1.2254300              0.41895900             0.26137200
SP   3   1.00
      1.7273800             -0.24463000            -0.01779510
      0.5729220              0.00431572             0.25353900
      0.2221920              1.09818000             0.80066900
SP   1   1.00
      0.0778369              1.00000000             1.00000000
D    1   1.00
      0.9000000              1.0000000
D    1   1.00
      0.2250000              1.0000000
F    1   1.00
      0.3200000              1.0000000
****
P     0
S    6   1.00
  19413.3000000              0.0018516
   2909.4200000              0.0142062
    661.3640000              0.0699995
    185.7590000              0.2400790
     59.1943000              0.4847620
     20.0310000              0.3352000
SP   6   1.00
    339.4780000             -0.00278217             0.00456462
     81.0101000             -0.0360499              0.03369360
     25.8780000             -0.1166310              0.13975500
      9.4522100              0.0968328              0.33936200
      3.6656600              0.6144180              0.45092100
      1.4674600              0.4037980              0.23858600
SP   3   1.00
      2.1562300             -0.2529230             -0.01776530
      0.7489970              0.0328517              0.27405800
      0.2831450              1.0812500              0.78542100
SP   1   1.00
      0.0998317              1.0000000              1.00000000
D    1   1.00
      1.1000000              1.0000000
D    1   1.00
      0.2750000              1.0000000
F    1   1.00
      0.4500000              1.0000000
****
S     0
S    6   1.00
  21917.1000000              0.0018690
   3301.4900000              0.0142300
    754.1460000              0.0696960
    212.7110000              0.2384870
     67.9896000              0.4833070
     23.0515000              0.3380740
SP   6   1.00
    423.7350000             -0.0023767              0.0040610
    100.7100000             -0.0316930              0.0306810
     32.1599000             -0.1133170              0.1304520
     11.8079000              0.0560900              0.3272050
      4.6311000              0.5922550              0.4528510
      1.8702500              0.4550060              0.2560420
SP   3   1.00
      2.6158400             -0.2503740             -0.0145110
      0.9221670              0.0669570              0.3102630
      0.3412870              1.0545100              0.7544830
SP   1   1.00
      0.1171670              1.0000000              1.0000000
D    1   1.00
      1.3000000              1.0000000
D    1   1.00
      0.3250000              1.0000000
F    1   1.00
      0.5500000              1.0000000
****
Cl     0
S    6   1.00
  25180.1000000              0.0018330
   3780.3500000              0.0140340
    860.4740000              0.0690970
    242.1450000              0.2374520
     77.3349000              0.4830340
     26.2470000              0.3398560
SP   6   1.00
    491.7650000             -0.0022974              0.0039894
    116.9840000             -0.0307140              0.0303180
     37.4153000             -0.1125280              0.1298800
     13.7834000              0.0450160              0.3279510
      5.4521500              0.5893530              0.4535270
      2.2258800              0.4652060              0.2521540
SP   3   1.00
      3.1864900             -0.2518300             -0.0142990
      1.1442700              0.0615890              0.3235720
      0.4203770              1.0601800              0.7435070
SP   1   1.00
      0.1426570              1.0000000              1.0000000
D    1   1.00
      1.5000000              1.0000000
D    1   1.00
      0.3750000              1.0000000
F    1   1.00
      0.7000000              1.0000000
****
}

set {
reference uhf
freeze_core true
e_convergence 10
d_convergence 10
dft_spherical_points 1202
dft_radial_points 99
}

e = energy('b3lyp')

print_out('Grab this energy {0}'.format(e))
--------------------------------------------------------------------------

    Molecular point group: c1

    Geometry (in Bohr), charge = 0, multiplicity = 2:

       Center              X                  Y                   Z               Mass
    ------------   -----------------  -----------------  -----------------  -----------------
         C           -0.323334226665     0.000142538326     0.003550020370    12.000000000000
         C            0.061612829035    -1.394859780974    -2.423092679230    12.000000000000
         C            0.061114521935     2.802246468026    -0.007681877430    12.000000000000
         C            0.060569600635    -1.407101890474     2.428952107570    12.000000000000
         H            2.089699452035    -1.635557651774    -2.844572547530     1.007825032230
         H           -0.767037415765    -0.377711430474    -4.020685518630     1.007825032230
         H           -0.764286987365    -3.288915854074    -2.349670011730     1.007825032230
         H            2.082610820235     3.288219161926    -0.012588100330     1.007825032230
         H           -0.760726215265     3.686926045426     1.661547019470     1.007825032230
         H           -0.766229514365     3.671780565626    -1.683332000030     1.007825032230
         H            2.088353558935    -1.653135021074     2.849840710370     1.007825032230
         H           -0.768877867665    -3.300446419974     2.347188439070     1.007825032230
         H           -0.766105987565    -0.396247599074     4.031702114070     1.007825032230

  Charge       = 0
  Multiplicity = 2
  Basis Set: ANONYMOUSDDFA0B53
    Blend: 6-31G_2DFP_
  Basis Set: (ANONYMOUSDDFA0B53 AUX)
    Blend: DEF2-UNIVERSAL-JKFIT

    Orbital Energies [Eh]
    ---------------------

    Alpha Occupied:

       1A    -10.180342     2A    -10.167621     3A    -10.167080
       4A    -10.166344     5A     -0.797770     6A     -0.686576
       7A     -0.685797     8A     -0.530776     9A     -0.441127
      10A     -0.434951    11A     -0.434392    12A     -0.382863
      13A     -0.382333    14A     -0.363612    15A     -0.338270
      16A     -0.337724    17A     -0.168961

    Alpha Virtual:

      18A      0.076070    19A      0.133909    20A      0.134387
      21A      0.142465    22A      0.142802    23A      0.154876
      24A      0.178386    25A      0.179176    26A      0.203544
      27A      0.214810    28A      0.275811    29A      0.276161
      30A      0.399026    31A      0.399365    32A      0.403414
      33A      0.423937    34A      0.424267    35A      0.456594
      36A      0.494981    37A      0.495789    38A      0.512174
      39A      0.513986    40A      0.578526    41A      0.579079
      42A      0.591331    43A      0.591923    44A      0.602595
      45A      0.624771    46A      0.631691    47A      0.635827
      48A      0.636753    49A      0.663131    50A      0.663701
      51A      0.683462    52A      0.684263    53A      0.734993
      54A      0.824486    55A      0.826306    56A      0.853915
      57A      0.914781    58A      0.915275    59A      0.944054
      60A      0.944516    61A      0.961048    62A      0.961752
      63A      1.003472    64A      1.126912    65A      1.129326
      66A      1.142213    67A      1.162772    68A      1.163759
      69A      1.223332    70A      1.273940    71A      1.275053
      72A      1.279350    73A      1.323985    74A      1.324715
      75A      1.355979    76A      1.365256    77A      1.366797
      78A      1.392435    79A      1.403182    80A      1.404978
      81A      1.416523    82A      1.417710    83A      1.427933
      84A      1.491433    85A      1.499069    86A      1.542482
      87A      1.543195    88A      1.572618    89A      1.576390
      90A      1.669795    91A      1.738295    92A      1.740477
      93A      1.768356    94A      1.829739    95A      1.833136
      96A      1.971698    97A      2.017514    98A      2.018291
      99A      2.020540   100A      2.050140   101A      2.055290
     102A      2.737968   103A      2.739003   104A      2.790921
     105A      2.811442   106A      2.889643   107A      2.890206
     108A      2.894984   109A      2.929290   110A      2.929694
     111A      2.959002   112A      2.963361   113A      2.965434
     114A      3.034024   115A      3.070273   116A      3.072256
     117A      3.084417   118A      3.168006   119A      3.169598
     120A      3.180567   121A      3.284600   122A      3.286021
     123A      3.326216   124A      3.328121   125A      3.375657
     126A      3.489149   127A      3.491100   128A      3.514035
     129A      3.525318   130A      3.567088   131A      3.569543
     132A      3.575386   133A      3.665645   134A      3.667048
     135A      3.679656   136A      3.693439   137A      3.694814
     138A      3.775735   139A      3.777809   140A      3.789287
     141A      3.910744   142A      3.913697   143A      4.034458
     144A      4.109777   145A      4.112864   146A      4.145544
     147A      4.150557   148A      4.173304   149A      4.200493
     150A      4.202284   151A      4.205929   152A      4.211259
     153A      4.315247   154A      4.316644   155A      4.358970
     156A      4.424143   157A      4.424551   158A      4.443668
     159A      4.515937   160A      4.517739   161A      4.577143
     162A      4.579432   163A      4.617536   164A      4.709474
     165A      4.773301   166A      4.775904   167A      4.836914
     168A      4.962863   169A      5.001844   170A      5.004120
     171A      5.227821   172A      5.243167   173A      5.250456
     174A      5.352430   175A      5.358762   176A      5.479417

    Beta Occupied:

       1A    -10.168379     2A    -10.167843     3A    -10.167106
       4A    -10.166514     5A     -0.781096     6A     -0.684380
       7A     -0.683598     8A     -0.511747     9A     -0.431335
      10A     -0.430752    11A     -0.421824    12A     -0.376961
      13A     -0.376405    14A     -0.362595    15A     -0.333396
      16A     -0.332844

    Beta Virtual:

      17A     -0.025744    18A      0.077079    19A      0.134782
      20A      0.135294    21A      0.144364    22A      0.144644
      23A      0.163335    24A      0.182059    25A      0.182845
      26A      0.215040    27A      0.218926    28A      0.282147
      29A      0.282521    30A      0.400250    31A      0.400537
      32A      0.419799    33A      0.426733    34A      0.427093
      35A      0.468505    36A      0.497239    37A      0.498055
      38A      0.513909    39A      0.556327    40A      0.584097
      41A      0.584609    42A      0.597529    43A      0.598086
      44A      0.610010    45A      0.628153    46A      0.631884
      47A      0.639115    48A      0.640001    49A      0.666664
      50A      0.667293    51A      0.686090    52A      0.686907
      53A      0.757516    54A      0.829633    55A      0.831495
      56A      0.855269    57A      0.922736    58A      0.923260
      59A      0.945915    60A      0.953430    61A      0.966313
      62A      0.967095    63A      1.008709    64A      1.130947
      65A      1.133352    66A      1.155583    67A      1.167810
      68A      1.168874    69A      1.232302    70A      1.279535
      71A      1.280653    72A      1.285103    73A      1.328926
      74A      1.329754    75A      1.365389    76A      1.370401
      77A      1.372137    78A      1.393498    79A      1.406671
      80A      1.408428    81A      1.421546    82A      1.422778
      83A      1.428207    84A      1.492485    85A      1.509512
      86A      1.546781    87A      1.547707    88A      1.580637
      89A      1.584117    90A      1.674640    91A      1.744069
      92A      1.746232    93A      1.779131    94A      1.833617
      95A      1.836969    96A      1.972564    97A      2.023936
      98A      2.026929    99A      2.039639   100A      2.056941
     101A      2.061928   102A      2.746268   103A      2.747375
     104A      2.811854   105A      2.816057   106A      2.902426
     107A      2.902828   108A      2.924656   109A      2.931877
     110A      2.932078   111A      2.960070   112A      2.967911
     113A      2.969968   114A      3.041958   115A      3.080064
     116A      3.082078   117A      3.086452   118A      3.183832
     119A      3.185238   120A      3.188268   121A      3.289463
     122A      3.290761   123A      3.330013   124A      3.331933
     125A      3.383474   126A      3.491903   127A      3.493800
     128A      3.512411   129A      3.528371   130A      3.574681
     131A      3.580921   132A      3.582946   133A      3.670333
     134A      3.671866   135A      3.692976   136A      3.725097
     137A      3.726375   138A      3.780322   139A      3.782349
     140A      3.817759   141A      3.920565   142A      3.923510
     143A      4.045340   144A      4.116676   145A      4.119572
     146A      4.152965   147A      4.157589   148A      4.187355
     149A      4.206735   150A      4.209182   151A      4.212609
     152A      4.215761   153A      4.322809   154A      4.323957
     155A      4.362335   156A      4.432353   157A      4.432678
     158A      4.446649   159A      4.523838   160A      4.525412
     161A      4.587686   162A      4.590090   163A      4.624728
     164A      4.719819   165A      4.780215   166A      4.782893
     167A      4.839833   168A      4.967657   169A      5.005894
     170A      5.008150   171A      5.233524   172A      5.244966
     173A      5.252243   174A      5.358920   175A      5.365229
     176A      5.481738

    Final Occupation by Irrep:
              A
    DOCC [    16 ]
    SOCC [     1 ]

  @DF-UKS Final Energy:  -157.81304920352110

   => Energetics <=

    Nuclear Repulsion Energy =            125.3949057614248659
    One-Electron Energy =                -458.7494217803606489
    Two-Electron Energy =                 195.8486176982902407
    DFT Exchange-Correlation Energy =     -20.3071508828755540
    Empirical Dispersion Energy =           0.0000000000000000
    VV10 Nonlocal Energy =                  0.0000000000000000
    Total Energy =                       -157.8130492035211034

  UHF NO Occupations:
  HONO-2 :   15  A 1.9996009
  HONO-1 :   16  A 1.9989804
  HONO-0 :   17  A 1.0000000
  LUNO+0 :   18  A 0.0010196
  LUNO+1 :   19  A 0.0003991
  LUNO+2 :   20  A 0.0001979
  LUNO+3 :   21  A 0.0001972

Computation Completed

Properties will be evaluated at   0.000000,   0.000000,   0.000000 [a0]

Properties computed using the SCF density matrix

  Nuclear Dipole Moment: [e a0]
     X:     0.8272      Y:    -0.0025      Z:    -0.0102

  Electronic Dipole Moment: [e a0]
     X:    -0.7493      Y:     0.0050      Z:     0.0109

  Dipole Moment: [e a0]
     X:     0.0779      Y:     0.0024      Z:     0.0007     Total:     0.0780

  Dipole Moment: [D]
     X:     0.1980      Y:     0.0062      Z:     0.0019     Total:     0.1981

*** tstop() called on n021 at Fri Nov  5 15:14:46 2021
Module time:
	user time   =     635.43 seconds =      10.59 minutes
	system time =      12.42 seconds =       0.21 minutes
	total time  =        163 seconds =       2.72 minutes
Total time:
	user time   =     635.43 seconds =      10.59 minutes
	system time =      12.42 seconds =       0.21 minutes
	total time  =        163 seconds =       2.72 minutes
Grab this energy -157.8130492035211
    Psi4 stopped on: Friday, 05 November 2021 03:14PM
    Psi4 wall time for execution: 0:02:42.87

*** Psi4 exiting successfully. Buy a developer a beer!
