                               Psi4 1.4a2.dev629

  ==> Input File <==

--------------------------------------------------------------------------
import os
memory 14 GB

molecule {
 C   -0.3230397087    0.0024256890    0.0000000000
 C    0.0613988195   -1.3975290952   -2.4227507646
 C    0.0600853234    2.7950607722    0.0000000000
 C    0.0613988195   -1.3975290952    2.4227507646
 H    2.0879254071   -1.6431071637   -2.8399237321
 H   -0.7607576272   -0.3851321073   -4.0248933672
 H   -0.7684650310   -3.2855211347   -2.3445708266
 H    2.0839360674    3.2823284646   -0.0000000000
 H   -0.7668963478    3.6713698813    1.6763554497
 H   -0.7668963478    3.6713698813   -1.6763554497
 H    2.0879254071   -1.6431071637    2.8399237321
 H   -0.7684650310   -3.2855211347    2.3445708266
 H   -0.7607576272   -0.3851321073    4.0248933672
units bohr
0 2
}

basis {

assign 6-31g_2dfp_

[ 6-31g_2dfp_ ]

spherical

!----------------------------------------------------------------------
! Basis Set Exchange
! Version v0.8.13
! https://www.basissetexchange.org
!----------------------------------------------------------------------
!   Basis set: 6-31G(2df,p)
! Description: 6-31G(2df,p)
!        Role: orbital
!     Version: 0  (Data from the original Basis Set Exchange)
!----------------------------------------------------------------------

****
H     0
S    3   1.00
     18.7311370              0.03349460
      2.8253937              0.23472695
      0.6401217              0.81375733
S    1   1.00
      0.1612778              1.00000000
P    1   1.00
      1.5000000              1.0000000
P    1   1.00
      0.3750000              1.0000000
****
B     0
S    6   1.00
   2068.8823000              0.0018663
    310.6495700              0.0142515
     70.6830330              0.0695516
     19.8610800              0.2325729
      6.2993048              0.4670787
      2.1270270              0.3634314
SP   3   1.00
      4.7279710             -0.1303938              0.0745976
      1.1903377             -0.1307889              0.3078467
      0.3594117              1.1309444              0.7434568
SP   1   1.00
      0.1267512              1.0000000              1.0000000
D    1   1.00
      0.8020000              1.0000000
D    1   1.00
      0.2005000              1.0000000
F    1   1.00
      0.5000000              1.0000000
****
C     0
S    6   1.00
   3047.5249000              0.0018347
    457.3695100              0.0140373
    103.9486900              0.0688426
     29.2101550              0.2321844
      9.2866630              0.4679413
      3.1639270              0.3623120
SP   3   1.00
      7.8682724             -0.1193324              0.0689991
      1.8812885             -0.1608542              0.3164240
      0.5442493              1.1434564              0.7443083
SP   1   1.00
      0.1687144              1.0000000              1.0000000
D    1   1.00
      1.2520000              1.0000000
D    1   1.00
      0.3130000              1.0000000
F    1   1.00
      0.8000000              1.0000000
****
N     0
S    6   1.00
   4173.5110000              0.0018348
    627.4579000              0.0139950
    142.9021000              0.0685870
     40.2343300              0.2322410
     12.8202100              0.4690700
      4.3904370              0.3604550
SP   3   1.00
     11.6263580             -0.1149610              0.0675800
      2.7162800             -0.1691180              0.3239070
      0.7722180              1.1458520              0.7408950
SP   1   1.00
      0.2120313              1.0000000              1.0000000
D    1   1.00
      1.8260000              1.0000000
D    1   1.00
      0.4565000              1.0000000
F    1   1.00
      1.0000000              1.0000000
****
O     0
S    6   1.00
   5484.6717000              0.0018311
    825.2349500              0.0139501
    188.0469600              0.0684451
     52.9645000              0.2327143
     16.8975700              0.4701930
      5.7996353              0.3585209
SP   3   1.00
     15.5396160             -0.1107775              0.0708743
      3.5999336             -0.1480263              0.3397528
      1.0137618              1.1307670              0.7271586
SP   1   1.00
      0.2700058              1.0000000              1.0000000
D    1   1.00
      2.5840000              1.0000000
D    1   1.00
      0.6460000              1.0000000
F    1   1.00
      1.4000000              1.0000000
****
F     0
S    6   1.00
   7001.7130900              0.0018196169
   1051.3660900              0.0139160796
    239.2856900              0.0684053245
     67.3974453              0.233185760
     21.5199573              0.471267439
      7.40310130             0.356618546
SP   3   1.00
     20.8479528             -0.108506975            0.0716287243
      4.80830834            -0.146451658            0.3459121030
      1.34406986             1.128688580            0.7224699570
SP   1   1.00
      0.358151393            1.0000000              1.0000000
D    1   1.00
      3.5000000              1.0000000
D    1   1.00
      0.8750000              1.0000000
F    1   1.00
      1.8500000              1.0000000
****
Al     0
S    6   1.00
  13983.1000000              0.00194267
   2098.7500000              0.0148599
    477.7050000              0.0728494
    134.3600000              0.2468300
     42.8709000              0.4872580
     14.5189000              0.3234960
SP   6   1.00
    239.6680000             -0.00292619             0.00460285
     57.4419000             -0.0374080              0.0331990
     18.2859000             -0.1144870              0.1362820
      6.5991400              0.1156350              0.3304760
      2.4904900              0.6125950              0.4491460
      0.9445400              0.3937990              0.2657040
SP   3   1.00
      1.2779000             -0.2276060             -0.0175130
      0.3975900              0.00144583             0.2445330
      0.1600950              1.0927900              0.8049340
SP   1   1.00
      0.0556577              1.0000000              1.0000000
D    1   1.00
      0.6500000              1.0000000
D    1   1.00
      0.1625000              1.0000000
F    1   1.00
      0.2500000              1.0000000
****
Si     0
S    6   1.00
  16115.9000000              0.00195948
   2425.5800000              0.01492880
    553.8670000              0.07284780
    156.3400000              0.24613000
     50.0683000              0.48591400
     17.0178000              0.32500200
SP   6   1.00
    292.7180000             -0.00278094             0.00443826
     69.8731000             -0.03571460             0.03266790
     22.3363000             -0.11498500             0.13472100
      8.1503900              0.09356340             0.32867800
      3.1345800              0.60301700             0.44964000
      1.2254300              0.41895900             0.26137200
SP   3   1.00
      1.7273800             -0.24463000            -0.01779510
      0.5729220              0.00431572             0.25353900
      0.2221920              1.09818000             0.80066900
SP   1   1.00
      0.0778369              1.00000000             1.00000000
D    1   1.00
      0.9000000              1.0000000
D    1   1.00
      0.2250000              1.0000000
F    1   1.00
      0.3200000              1.0000000
****
P     0
S    6   1.00
  19413.3000000              0.0018516
   2909.4200000              0.0142062
    661.3640000              0.0699995
    185.7590000              0.2400790
     59.1943000              0.4847620
     20.0310000              0.3352000
SP   6   1.00
    339.4780000             -0.00278217             0.00456462
     81.0101000             -0.0360499              0.03369360
     25.8780000             -0.1166310              0.13975500
      9.4522100              0.0968328              0.33936200
      3.6656600              0.6144180              0.45092100
      1.4674600              0.4037980              0.23858600
SP   3   1.00
      2.1562300             -0.2529230             -0.01776530
      0.7489970              0.0328517              0.27405800
      0.2831450              1.0812500              0.78542100
SP   1   1.00
      0.0998317              1.0000000              1.00000000
D    1   1.00
      1.1000000              1.0000000
D    1   1.00
      0.2750000              1.0000000
F    1   1.00
      0.4500000              1.0000000
****
S     0
S    6   1.00
  21917.1000000              0.0018690
   3301.4900000              0.0142300
    754.1460000              0.0696960
    212.7110000              0.2384870
     67.9896000              0.4833070
     23.0515000              0.3380740
SP   6   1.00
    423.7350000             -0.0023767              0.0040610
    100.7100000             -0.0316930              0.0306810
     32.1599000             -0.1133170              0.1304520
     11.8079000              0.0560900              0.3272050
      4.6311000              0.5922550              0.4528510
      1.8702500              0.4550060              0.2560420
SP   3   1.00
      2.6158400             -0.2503740             -0.0145110
      0.9221670              0.0669570              0.3102630
      0.3412870              1.0545100              0.7544830
SP   1   1.00
      0.1171670              1.0000000              1.0000000
D    1   1.00
      1.3000000              1.0000000
D    1   1.00
      0.3250000              1.0000000
F    1   1.00
      0.5500000              1.0000000
****
Cl     0
S    6   1.00
  25180.1000000              0.0018330
   3780.3500000              0.0140340
    860.4740000              0.0690970
    242.1450000              0.2374520
     77.3349000              0.4830340
     26.2470000              0.3398560
SP   6   1.00
    491.7650000             -0.0022974              0.0039894
    116.9840000             -0.0307140              0.0303180
     37.4153000             -0.1125280              0.1298800
     13.7834000              0.0450160              0.3279510
      5.4521500              0.5893530              0.4535270
      2.2258800              0.4652060              0.2521540
SP   3   1.00
      3.1864900             -0.2518300             -0.0142990
      1.1442700              0.0615890              0.3235720
      0.4203770              1.0601800              0.7435070
SP   1   1.00
      0.1426570              1.0000000              1.0000000
D    1   1.00
      1.5000000              1.0000000
D    1   1.00
      0.3750000              1.0000000
F    1   1.00
      0.7000000              1.0000000
****
}

set {
reference uhf
freeze_core true
e_convergence 10
d_convergence 10
dft_spherical_points 1202
dft_radial_points 99
}

e = energy('b3lyp')

print_out('Grab this energy {0}'.format(e))
--------------------------------------------------------------------------

    Molecular point group: cs

    Geometry (in Bohr), charge = 0, multiplicity = 2:

       Center              X                  Y                   Z               Mass
    ------------   -----------------  -----------------  -----------------  -----------------
         C           -0.323017219603     0.001958415912     0.000000000000    12.000000000000
         C            0.061421308597    -1.397996368288    -2.422750764600    12.000000000000
         C            0.060107812497     2.794593499112     0.000000000000    12.000000000000
         C            0.061421308597    -1.397996368288     2.422750764600    12.000000000000
         H            2.087947896197    -1.643574436788    -2.839923732100     1.007825032230
         H           -0.760735138103    -0.385599380388    -4.024893367200     1.007825032230
         H           -0.768442541903    -3.285988407788    -2.344570826600     1.007825032230
         H            2.083958556497     3.281861191512     0.000000000000     1.007825032230
         H           -0.766873858703     3.670902608212     1.676355449700     1.007825032230
         H           -0.766873858703     3.670902608212    -1.676355449700     1.007825032230
         H            2.087947896197    -1.643574436788     2.839923732100     1.007825032230
         H           -0.768442541903    -3.285988407788     2.344570826600     1.007825032230
         H           -0.760735138103    -0.385599380388     4.024893367200     1.007825032230

  Charge       = 0
  Multiplicity = 2
  Basis Set: ANONYMOUSDF1AC6A7
    Blend: 6-31G_2DFP_
  Basis Set: (ANONYMOUSDF1AC6A7 AUX)
    Blend: DEF2-UNIVERSAL-JKFIT

    Orbital Energies [Eh]
    ---------------------

    Alpha Occupied:

       1Ap   -10.179568     1App  -10.166777     2Ap   -10.166748
       3Ap   -10.166435     4Ap    -0.798817     5Ap    -0.686632
       2App   -0.686345     6Ap    -0.530774     7Ap    -0.441722
       3App   -0.435226     8Ap    -0.435079     9Ap    -0.382719
       4App   -0.382628     5App   -0.363492    10Ap    -0.338335
       6App   -0.338037    11Ap    -0.168635

    Alpha Virtual:

      12Ap     0.076043     7App    0.134132    13Ap     0.134258
      14Ap     0.142817     8App    0.142844    15Ap     0.154942
      16Ap     0.178949     9App    0.178956    17Ap     0.204641
      10App    0.215148    11App    0.276170    18Ap     0.276842
      19Ap     0.399196    12App    0.399197    20Ap     0.403148
      13App    0.423794    21Ap     0.423858    22Ap     0.457177
      23Ap     0.495567    14App    0.495668    15App    0.512497
      24Ap     0.514381    16App    0.579318    25Ap     0.579669
      17App    0.591946    26Ap     0.592417    27Ap     0.603037
      28Ap     0.625168    18App    0.632125    19App    0.636973
      29Ap     0.637168    20App    0.663685    30Ap     0.664088
      31Ap     0.684289    21App    0.684326    32Ap     0.734788
      22App    0.825221    33Ap     0.825283    23App    0.854917
      24App    0.915622    34Ap     0.915891    35Ap     0.944024
      25App    0.945463    26App    0.962209    36Ap     0.962304
      37Ap     1.004585    38Ap     1.128943    27App    1.129043
      39Ap     1.142560    40Ap     1.163928    28App    1.164170
      41Ap     1.224233    29App    1.275217    42Ap     1.275572
      43Ap     1.279875    30App    1.324572    44Ap     1.324810
      45Ap     1.356168    31App    1.367579    46Ap     1.368185
      32App    1.393952    33App    1.403430    47Ap     1.404092
      34App    1.417230    48Ap     1.417748    35App    1.429327
      36App    1.492715    49Ap     1.499663    37App    1.543431
      50Ap     1.543695    51Ap     1.575380    38App    1.575822
      52Ap     1.669770    39App    1.739784    53Ap     1.740305
      54Ap     1.769835    40App    1.832169    55Ap     1.833002
      41App    1.973117    56Ap     2.020040    42App    2.020126
      57Ap     2.020771    43App    2.056184    58Ap     2.058123
      44App    2.739022    59Ap     2.739133    60Ap     2.792082
      45App    2.814150    46App    2.890677    61Ap     2.891439
      62Ap     2.896511    63Ap     2.929508    47App    2.929862
      48App    2.959232    64Ap     2.963797    49App    2.964343
      65Ap     3.033966    50App    3.071944    66Ap     3.072554
      51App    3.085935    52App    3.169592    67Ap     3.169650
      68Ap     3.182511    53App    3.285765    69Ap     3.285858
      54App    3.327161    70Ap     3.328029    71Ap     3.374229
      55App    3.491676    72Ap     3.492200    56App    3.514775
      73Ap     3.527636    57App    3.567516    74Ap     3.569178
      58App    3.577282    75Ap     3.666115    59App    3.666541
      76Ap     3.681646    60App    3.695245    77Ap     3.695927
      78Ap     3.779901    61App    3.782624    79Ap     3.789857
      62App    3.913826    80Ap     3.914803    81Ap     4.036299
      63App    4.113178    82Ap     4.115208    64App    4.148361
      83Ap     4.149433    84Ap     4.174461    85Ap     4.204016
      65App    4.204937    86Ap     4.205978    66App    4.212448
      67App    4.316990    87Ap     4.318021    68App    4.361496
      88Ap     4.426034    69App    4.427016    70App    4.445875
      71App    4.519076    89Ap     4.520604    72App    4.581184
      90Ap     4.582476    91Ap     4.624883    92Ap     4.714237
      93Ap     4.780462    73App    4.781639    74App    4.840856
      94Ap     4.965915    75App    5.003934    95Ap     5.005215
      96Ap     5.229048    97Ap     5.248108    76App    5.248353
      77App    5.357168    98Ap     5.359096    78App    5.485115

    Beta Occupied:

       1App  -10.167531     1Ap   -10.167511     2Ap   -10.167198
       3Ap   -10.165772     4Ap    -0.782120     5Ap    -0.684403
       2App   -0.684139     6Ap    -0.511845     3App   -0.431584
       7Ap    -0.431424     8Ap    -0.422323     9Ap    -0.376755
       4App   -0.376689     5App   -0.362464    10Ap    -0.333463
       6App   -0.333164

    Beta Virtual:

      11Ap    -0.025711    12Ap     0.077063     7App    0.135012
      13Ap     0.135145    14Ap     0.144706     8App    0.144753
      15Ap     0.163445     9App    0.182646    16Ap     0.182656
      10App    0.215384    17Ap     0.219842    11App    0.282459
      18Ap     0.283109    19Ap     0.400402    12App    0.400404
      20Ap     0.419487    13App    0.426582    21Ap     0.426673
      22Ap     0.469441    23Ap     0.497849    14App    0.497935
      15App    0.514248    24Ap     0.556647    16App    0.584862
      25Ap     0.585242    17App    0.598086    26Ap     0.598511
      27Ap     0.610502    28Ap     0.628605    18App    0.632292
      19App    0.640309    29Ap     0.640550    20App    0.667218
      30Ap     0.667597    31Ap     0.687018    21App    0.687030
      32Ap     0.757132    22App    0.830435    33Ap     0.830441
      23App    0.856307    24App    0.923603    34Ap     0.923879
      25App    0.947302    35Ap     0.952860    26App    0.967510
      36Ap     0.967665    37Ap     1.009750    38Ap     1.132920
      27App    1.133125    39Ap     1.155948    40Ap     1.169069
      28App    1.169180    41Ap     1.233344    29App    1.280847
      42Ap     1.281208    43Ap     1.285566    30App    1.329572
      44Ap     1.329786    45Ap     1.365615    31App    1.372851
      46Ap     1.373377    32App    1.395018    33App    1.406842
      47Ap     1.407561    34App    1.422337    48Ap     1.422843
      35App    1.429631    36App    1.493761    49Ap     1.510171
      37App    1.547813    50Ap     1.548016    51Ap     1.583363
      38App    1.583718    52Ap     1.674624    39App    1.745535
      53Ap     1.746085    54Ap     1.780640    40App    1.836034
      55Ap     1.836882    41App    1.973980    42App    2.026499
      56Ap     2.026650    57Ap     2.042055    43App    2.062954
      58Ap     2.064836    44App    2.747234    59Ap     2.747401
      45App    2.814568    60Ap     2.817197    46App    2.903191
      61Ap     2.903882    62Ap     2.926204    63Ap     2.932198
      47App    2.932513    48App    2.960306    64Ap     2.968419
      49App    2.968931    65Ap     3.041989    50App    3.081982
      66Ap     3.082508    51App    3.087769    52App    3.185163
      67Ap     3.185322    68Ap     3.190178    53App    3.290737
      69Ap     3.290835    54App    3.330897    70Ap     3.331752
      71Ap     3.382033    55App    3.494382    72Ap     3.494942
      56App    3.513134    73Ap     3.530635    57App    3.577143
      58App    3.580897    74Ap     3.582492    75Ap     3.670894
      59App    3.671074    76Ap     3.694906    60App    3.726849
      77Ap     3.727230    78Ap     3.784544    61App    3.787141
      79Ap     3.818235    62App    3.923694    80Ap     3.924582
      81Ap     4.047121    63App    4.119715    82Ap     4.121736
      64App    4.155827    83Ap     4.156775    84Ap     4.188635
      65App    4.210863    85Ap     4.211578    86Ap     4.212388
      66App    4.216998    67App    4.324430    87Ap     4.325524
      68App    4.364838    88Ap     4.434379    69App    4.435308
      70App    4.448778    71App    4.527004    89Ap     4.528511
      72App    4.591801    90Ap     4.593096    91Ap     4.632060
      92Ap     4.724665    93Ap     4.787459    73App    4.788555
      74App    4.843771    94Ap     4.970733    75App    5.007994
      95Ap     5.009313    96Ap     5.234802    97Ap     5.249893
      76App    5.250160    77App    5.363682    98Ap     5.365653
      78App    5.487459

    Final Occupation by Irrep:
             Ap   App
    DOCC [    10,    6 ]
    SOCC [     1,    0 ]

  @DF-UKS Final Energy:  -157.81303843290178

   => Energetics <=

    Nuclear Repulsion Energy =            125.5761672870954015
    One-Electron Energy =                -459.1062964489194087
    Two-Electron Energy =                 196.0280431684056452
    DFT Exchange-Correlation Energy =     -20.3109524394834402
    Empirical Dispersion Energy =           0.0000000000000000
    VV10 Nonlocal Energy =                  0.0000000000000000
    Total Energy =                       -157.8130384329017772

  UHF NO Occupations:
  HONO-2 :    9 Ap 1.9995992
  HONO-1 :   10 Ap 1.9989874
  HONO-0 :   11 Ap 1.0000000
  LUNO+0 :   12 Ap 0.0010126
  LUNO+1 :   13 Ap 0.0004008
  LUNO+2 :    7App 0.0001960
  LUNO+3 :   14 Ap 0.0001948

Computation Completed

Properties will be evaluated at   0.000000,   0.000000,   0.000000 [a0]

Properties computed using the SCF density matrix

  Nuclear Dipole Moment: [e a0]
     X:     0.8274      Y:    -0.0033      Z:     0.0000

  Electronic Dipole Moment: [e a0]
     X:    -0.7503      Y:     0.0033      Z:     0.0000

  Dipole Moment: [e a0]
     X:     0.0770      Y:    -0.0000      Z:     0.0000     Total:     0.0770

  Dipole Moment: [D]
     X:     0.1958      Y:    -0.0001      Z:     0.0000     Total:     0.1958

*** tstop() called on n056 at Fri Nov  5 15:45:37 2021
Module time:
	user time   =     545.21 seconds =       9.09 minutes
	system time =      12.12 seconds =       0.20 minutes
	total time  =        140 seconds =       2.33 minutes
Total time:
	user time   =     545.21 seconds =       9.09 minutes
	system time =      12.12 seconds =       0.20 minutes
	total time  =        140 seconds =       2.33 minutes
Grab this energy -157.81303843290178
    Psi4 stopped on: Friday, 05 November 2021 03:45PM
    Psi4 wall time for execution: 0:02:20.16

*** Psi4 exiting successfully. Buy a developer a beer!
