                               Psi4 1.4a2.dev629

  ==> Input File <==

--------------------------------------------------------------------------
import os
memory 14 GB

molecule {
 C   -0.3247909945   -0.0000020903   -0.0000000139
 C    0.0619973163   -1.4016660276   -2.4258145905
 C    0.0618775193    2.8016634335   -0.0009659489
 C    0.0619973041   -1.3999930519    2.4267804920
 H    2.0868883396   -1.6463698132   -2.8461771857
 H   -0.7679329326   -0.3869969326   -4.0267691903
 H   -0.7633658895   -3.2901699337   -2.3494515657
 H    2.0867497386    3.2881445495   -0.0025996716
 H   -0.7681742105    3.6807568046    1.6782041664
 H   -0.7634436217    3.6797408402   -1.6746833338
 H    2.0868889816   -1.6418672449    2.8487767029
 H   -0.7680964508   -3.2937265390    2.3485714595
 H   -0.7632029765   -0.3895383081    4.0241286796
units bohr
0 2
}

basis {

assign 6-31g_2dfp_

[ 6-31g_2dfp_ ]

spherical

!----------------------------------------------------------------------
! Basis Set Exchange
! Version v0.8.13
! https://www.basissetexchange.org
!----------------------------------------------------------------------
!   Basis set: 6-31G(2df,p)
! Description: 6-31G(2df,p)
!        Role: orbital
!     Version: 0  (Data from the original Basis Set Exchange)
!----------------------------------------------------------------------

****
H     0
S    3   1.00
     18.7311370              0.03349460
      2.8253937              0.23472695
      0.6401217              0.81375733
S    1   1.00
      0.1612778              1.00000000
P    1   1.00
      1.5000000              1.0000000
P    1   1.00
      0.3750000              1.0000000
****
B     0
S    6   1.00
   2068.8823000              0.0018663
    310.6495700              0.0142515
     70.6830330              0.0695516
     19.8610800              0.2325729
      6.2993048              0.4670787
      2.1270270              0.3634314
SP   3   1.00
      4.7279710             -0.1303938              0.0745976
      1.1903377             -0.1307889              0.3078467
      0.3594117              1.1309444              0.7434568
SP   1   1.00
      0.1267512              1.0000000              1.0000000
D    1   1.00
      0.8020000              1.0000000
D    1   1.00
      0.2005000              1.0000000
F    1   1.00
      0.5000000              1.0000000
****
C     0
S    6   1.00
   3047.5249000              0.0018347
    457.3695100              0.0140373
    103.9486900              0.0688426
     29.2101550              0.2321844
      9.2866630              0.4679413
      3.1639270              0.3623120
SP   3   1.00
      7.8682724             -0.1193324              0.0689991
      1.8812885             -0.1608542              0.3164240
      0.5442493              1.1434564              0.7443083
SP   1   1.00
      0.1687144              1.0000000              1.0000000
D    1   1.00
      1.2520000              1.0000000
D    1   1.00
      0.3130000              1.0000000
F    1   1.00
      0.8000000              1.0000000
****
N     0
S    6   1.00
   4173.5110000              0.0018348
    627.4579000              0.0139950
    142.9021000              0.0685870
     40.2343300              0.2322410
     12.8202100              0.4690700
      4.3904370              0.3604550
SP   3   1.00
     11.6263580             -0.1149610              0.0675800
      2.7162800             -0.1691180              0.3239070
      0.7722180              1.1458520              0.7408950
SP   1   1.00
      0.2120313              1.0000000              1.0000000
D    1   1.00
      1.8260000              1.0000000
D    1   1.00
      0.4565000              1.0000000
F    1   1.00
      1.0000000              1.0000000
****
O     0
S    6   1.00
   5484.6717000              0.0018311
    825.2349500              0.0139501
    188.0469600              0.0684451
     52.9645000              0.2327143
     16.8975700              0.4701930
      5.7996353              0.3585209
SP   3   1.00
     15.5396160             -0.1107775              0.0708743
      3.5999336             -0.1480263              0.3397528
      1.0137618              1.1307670              0.7271586
SP   1   1.00
      0.2700058              1.0000000              1.0000000
D    1   1.00
      2.5840000              1.0000000
D    1   1.00
      0.6460000              1.0000000
F    1   1.00
      1.4000000              1.0000000
****
F     0
S    6   1.00
   7001.7130900              0.0018196169
   1051.3660900              0.0139160796
    239.2856900              0.0684053245
     67.3974453              0.233185760
     21.5199573              0.471267439
      7.40310130             0.356618546
SP   3   1.00
     20.8479528             -0.108506975            0.0716287243
      4.80830834            -0.146451658            0.3459121030
      1.34406986             1.128688580            0.7224699570
SP   1   1.00
      0.358151393            1.0000000              1.0000000
D    1   1.00
      3.5000000              1.0000000
D    1   1.00
      0.8750000              1.0000000
F    1   1.00
      1.8500000              1.0000000
****
Al     0
S    6   1.00
  13983.1000000              0.00194267
   2098.7500000              0.0148599
    477.7050000              0.0728494
    134.3600000              0.2468300
     42.8709000              0.4872580
     14.5189000              0.3234960
SP   6   1.00
    239.6680000             -0.00292619             0.00460285
     57.4419000             -0.0374080              0.0331990
     18.2859000             -0.1144870              0.1362820
      6.5991400              0.1156350              0.3304760
      2.4904900              0.6125950              0.4491460
      0.9445400              0.3937990              0.2657040
SP   3   1.00
      1.2779000             -0.2276060             -0.0175130
      0.3975900              0.00144583             0.2445330
      0.1600950              1.0927900              0.8049340
SP   1   1.00
      0.0556577              1.0000000              1.0000000
D    1   1.00
      0.6500000              1.0000000
D    1   1.00
      0.1625000              1.0000000
F    1   1.00
      0.2500000              1.0000000
****
Si     0
S    6   1.00
  16115.9000000              0.00195948
   2425.5800000              0.01492880
    553.8670000              0.07284780
    156.3400000              0.24613000
     50.0683000              0.48591400
     17.0178000              0.32500200
SP   6   1.00
    292.7180000             -0.00278094             0.00443826
     69.8731000             -0.03571460             0.03266790
     22.3363000             -0.11498500             0.13472100
      8.1503900              0.09356340             0.32867800
      3.1345800              0.60301700             0.44964000
      1.2254300              0.41895900             0.26137200
SP   3   1.00
      1.7273800             -0.24463000            -0.01779510
      0.5729220              0.00431572             0.25353900
      0.2221920              1.09818000             0.80066900
SP   1   1.00
      0.0778369              1.00000000             1.00000000
D    1   1.00
      0.9000000              1.0000000
D    1   1.00
      0.2250000              1.0000000
F    1   1.00
      0.3200000              1.0000000
****
P     0
S    6   1.00
  19413.3000000              0.0018516
   2909.4200000              0.0142062
    661.3640000              0.0699995
    185.7590000              0.2400790
     59.1943000              0.4847620
     20.0310000              0.3352000
SP   6   1.00
    339.4780000             -0.00278217             0.00456462
     81.0101000             -0.0360499              0.03369360
     25.8780000             -0.1166310              0.13975500
      9.4522100              0.0968328              0.33936200
      3.6656600              0.6144180              0.45092100
      1.4674600              0.4037980              0.23858600
SP   3   1.00
      2.1562300             -0.2529230             -0.01776530
      0.7489970              0.0328517              0.27405800
      0.2831450              1.0812500              0.78542100
SP   1   1.00
      0.0998317              1.0000000              1.00000000
D    1   1.00
      1.1000000              1.0000000
D    1   1.00
      0.2750000              1.0000000
F    1   1.00
      0.4500000              1.0000000
****
S     0
S    6   1.00
  21917.1000000              0.0018690
   3301.4900000              0.0142300
    754.1460000              0.0696960
    212.7110000              0.2384870
     67.9896000              0.4833070
     23.0515000              0.3380740
SP   6   1.00
    423.7350000             -0.0023767              0.0040610
    100.7100000             -0.0316930              0.0306810
     32.1599000             -0.1133170              0.1304520
     11.8079000              0.0560900              0.3272050
      4.6311000              0.5922550              0.4528510
      1.8702500              0.4550060              0.2560420
SP   3   1.00
      2.6158400             -0.2503740             -0.0145110
      0.9221670              0.0669570              0.3102630
      0.3412870              1.0545100              0.7544830
SP   1   1.00
      0.1171670              1.0000000              1.0000000
D    1   1.00
      1.3000000              1.0000000
D    1   1.00
      0.3250000              1.0000000
F    1   1.00
      0.5500000              1.0000000
****
Cl     0
S    6   1.00
  25180.1000000              0.0018330
   3780.3500000              0.0140340
    860.4740000              0.0690970
    242.1450000              0.2374520
     77.3349000              0.4830340
     26.2470000              0.3398560
SP   6   1.00
    491.7650000             -0.0022974              0.0039894
    116.9840000             -0.0307140              0.0303180
     37.4153000             -0.1125280              0.1298800
     13.7834000              0.0450160              0.3279510
      5.4521500              0.5893530              0.4535270
      2.2258800              0.4652060              0.2521540
SP   3   1.00
      3.1864900             -0.2518300             -0.0142990
      1.1442700              0.0615890              0.3235720
      0.4203770              1.0601800              0.7435070
SP   1   1.00
      0.1426570              1.0000000              1.0000000
D    1   1.00
      1.5000000              1.0000000
D    1   1.00
      0.3750000              1.0000000
F    1   1.00
      0.7000000              1.0000000
****
}

set {
reference uhf
freeze_core true
e_convergence 10
d_convergence 10
dft_spherical_points 1202
dft_radial_points 99
}

e = energy('b3lyp')

print_out('Grab this energy {0}'.format(e))
--------------------------------------------------------------------------

    Molecular point group: c1

    Geometry (in Bohr), charge = 0, multiplicity = 2:

       Center              X                  Y                   Z               Mass
    ------------   -----------------  -----------------  -----------------  -----------------
         C           -0.325006932223    -0.000002096945    -0.000000002093    12.000000000000
         C            0.061781378577    -1.401666034245    -2.425814578693    12.000000000000
         C            0.061661581577     2.801663426855    -0.000965937093    12.000000000000
         C            0.061781366377    -1.399993058545     2.426780503807    12.000000000000
         H            2.086672401877    -1.646369819845    -2.846177173893     1.007825032230
         H           -0.768148870323    -0.386996939245    -4.026769178493     1.007825032230
         H           -0.763581827223    -3.290169940345    -2.349451553893     1.007825032230
         H            2.086533800877     3.288144542855    -0.002599659793     1.007825032230
         H           -0.768390148223     3.680756797955     1.678204178207     1.007825032230
         H           -0.763659559423     3.679740833555    -1.674683321993     1.007825032230
         H            2.086673043877    -1.641867251545     2.848776714707     1.007825032230
         H           -0.768312388523    -3.293726545645     2.348571471307     1.007825032230
         H           -0.763418914223    -0.389538314745     4.024128691407     1.007825032230

  Charge       = 0
  Multiplicity = 2
  Basis Set: ANONYMOUSDC9A3D9B
    Blend: 6-31G_2DFP_
  Basis Set: (ANONYMOUSDC9A3D9B AUX)
    Blend: DEF2-UNIVERSAL-JKFIT

    Orbital Energies [Eh]
    ---------------------

    Alpha Occupied:

       1A    -10.180407     2A    -10.167022     3A    -10.167022
       4A    -10.166976     5A     -0.797751     6A     -0.686170
       7A     -0.686170     8A     -0.530784     9A     -0.441180
      10A     -0.434609    11A     -0.434608    12A     -0.382707
      13A     -0.382705    14A     -0.363484    15A     -0.337907
      16A     -0.337907    17A     -0.169145

    Alpha Virtual:

      18A      0.076075    19A      0.134141    20A      0.134142
      21A      0.142612    22A      0.142612    23A      0.154957
      24A      0.178849    25A      0.178849    26A      0.203571
      27A      0.214757    28A      0.275812    29A      0.275814
      30A      0.399207    31A      0.399211    32A      0.403264
      33A      0.424068    34A      0.424069    35A      0.456685
      36A      0.495364    37A      0.495365    38A      0.512204
      39A      0.513881    40A      0.578941    41A      0.578950
      42A      0.591659    43A      0.591661    44A      0.602788
      45A      0.624638    46A      0.631769    47A      0.636080
      48A      0.636083    49A      0.663571    50A      0.663571
      51A      0.683752    52A      0.683754    53A      0.734797
      54A      0.825350    55A      0.825353    56A      0.853917
      57A      0.914960    58A      0.914966    59A      0.944148
      60A      0.944688    61A      0.961298    62A      0.961314
      63A      1.003458    64A      1.128203    65A      1.128216
      66A      1.142234    67A      1.163693    68A      1.163706
      69A      1.223160    70A      1.274426    71A      1.274429
      72A      1.279592    73A      1.324093    74A      1.324096
      75A      1.356223    76A      1.365676    77A      1.365680
      78A      1.392477    79A      1.404096    80A      1.404098
      81A      1.417352    82A      1.417358    83A      1.427960
      84A      1.491276    85A      1.499493    86A      1.542873
      87A      1.542875    88A      1.574166    89A      1.574168
      90A      1.669565    91A      1.739160    92A      1.739171
      93A      1.768365    94A      1.831017    95A      1.831017
      96A      1.971434    97A      2.017334    98A      2.019345
      99A      2.019349   100A      2.053034   101A      2.053034
     102A      2.738287   103A      2.738288   104A      2.791119
     105A      2.811399   106A      2.889704   107A      2.889711
     108A      2.895255   109A      2.929510   110A      2.929518
     111A      2.958926   112A      2.964266   113A      2.964280
     114A      3.034343   115A      3.070439   116A      3.070453
     117A      3.084297   118A      3.168898   119A      3.168905
     120A      3.180560   121A      3.286100   122A      3.286100
     123A      3.327529   124A      3.327535   125A      3.375782
     126A      3.489930   127A      3.489950   128A      3.513826
     129A      3.525801   130A      3.568092   131A      3.568112
     132A      3.575751   133A      3.665803   134A      3.665811
     135A      3.679450   136A      3.694171   137A      3.694187
     138A      3.776519   139A      3.776545   140A      3.787848
     141A      3.912203   142A      3.912209   143A      4.034136
     144A      4.111072   145A      4.111076   146A      4.148139
     147A      4.148147   148A      4.173066   149A      4.202262
     150A      4.203359   151A      4.203362   152A      4.211063
     153A      4.316144   154A      4.316163   155A      4.359450
     156A      4.424303   157A      4.424305   158A      4.443179
     159A      4.517142   160A      4.517143   161A      4.578391
     162A      4.578404   163A      4.617033   164A      4.709778
     165A      4.774443   166A      4.774451   167A      4.835701
     168A      4.962975   169A      5.003094   170A      5.003106
     171A      5.227921   172A      5.246627   173A      5.246628
     174A      5.355307   175A      5.355320   176A      5.479014

    Beta Occupied:

       1A    -10.167772     2A    -10.167772     3A    -10.167748
       4A    -10.166580     5A     -0.781080     6A     -0.683971
       7A     -0.683970     8A     -0.511746     9A     -0.430969
      10A     -0.430969    11A     -0.421909    12A     -0.376802
      13A     -0.376801    14A     -0.362467    15A     -0.333033
      16A     -0.333033

    Beta Virtual:

      17A     -0.025844    18A      0.077079    19A      0.135021
      20A      0.135022    21A      0.144485    22A      0.144486
      23A      0.163406    24A      0.182521    25A      0.182521
      26A      0.214980    27A      0.218939    28A      0.282172
      29A      0.282174    30A      0.400376    31A      0.400380
      32A      0.419685    33A      0.426882    34A      0.426882
      35A      0.468606    36A      0.497629    37A      0.497630
      38A      0.513937    39A      0.556225    40A      0.584477
      41A      0.584485    42A      0.597846    43A      0.597846
      44A      0.610183    45A      0.628007    46A      0.631956
      47A      0.639371    48A      0.639375    49A      0.667138
      50A      0.667138    51A      0.686381    52A      0.686382
      53A      0.757341    54A      0.830522    55A      0.830525
      56A      0.855266    57A      0.922941    58A      0.922948
      59A      0.946004    60A      0.953588    61A      0.966571
      62A      0.966587    63A      1.008717    64A      1.132239
      65A      1.132251    66A      1.155583    67A      1.168763
      68A      1.168776    69A      1.232129    70A      1.280039
      71A      1.280043    72A      1.285353    73A      1.329090
      74A      1.329092    75A      1.365614    76A      1.370915
      77A      1.370920    78A      1.393528    79A      1.407561
      80A      1.407564    81A      1.422381    82A      1.422387
      83A      1.428233    84A      1.492334    85A      1.509932
      86A      1.547281    87A      1.547282    88A      1.582037
      89A      1.582038    90A      1.674427    91A      1.744919
      92A      1.744930    93A      1.779125    94A      1.834864
      95A      1.834865    96A      1.972307    97A      2.025742
      98A      2.025745    99A      2.038703   100A      2.059768
     101A      2.059768   102A      2.746622   103A      2.746623
     104A      2.811815   105A      2.816241   106A      2.902436
     107A      2.902442   108A      2.924950   109A      2.931976
     110A      2.931985   111A      2.959988   112A      2.968821
     113A      2.968835   114A      3.042233   115A      3.080390
     116A      3.080402   117A      3.086113   118A      3.184554
     119A      3.184559   120A      3.188282   121A      3.290859
     122A      3.290859   123A      3.331343   124A      3.331348
     125A      3.383610   126A      3.492679   127A      3.492699
     128A      3.512197   129A      3.528851   130A      3.575619
     131A      3.581474   132A      3.581495   133A      3.670529
     134A      3.670540   135A      3.692737   136A      3.725809
     137A      3.725825   138A      3.781087   139A      3.781113
     140A      3.816386   141A      3.921981   142A      3.921988
     143A      4.045052   144A      4.117868   145A      4.117870
     146A      4.155368   147A      4.155377   148A      4.187041
     149A      4.209295   150A      4.209298   151A      4.210216
     152A      4.215585   153A      4.323607   154A      4.323627
     155A      4.362812   156A      4.432477   157A      4.432479
     158A      4.446062   159A      4.524915   160A      4.524916
     161A      4.589027   162A      4.589039   163A      4.624217
     164A      4.720148   165A      4.781411   166A      4.781419
     167A      4.838629   168A      4.967767   169A      5.007119
     170A      5.007132   171A      5.233638   172A      5.248416
     173A      5.248416   174A      5.361791   175A      5.361804
     176A      5.481342

    Final Occupation by Irrep:
              A
    DOCC [    16 ]
    SOCC [     1 ]

  @DF-UKS Final Energy:  -157.81305251304954

   => Energetics <=

    Nuclear Repulsion Energy =            125.3922209685511433
    One-Electron Energy =                -458.7442480034839036
    Two-Electron Energy =                 195.8460513375676726
    DFT Exchange-Correlation Energy =     -20.3070768156844643
    Empirical Dispersion Energy =           0.0000000000000000
    VV10 Nonlocal Energy =                  0.0000000000000000
    Total Energy =                       -157.8130525130495414

  UHF NO Occupations:
  HONO-2 :   15  A 1.9996024
  HONO-1 :   16  A 1.9989820
  HONO-0 :   17  A 1.0000000
  LUNO+0 :   18  A 0.0010180
  LUNO+1 :   19  A 0.0003976
  LUNO+2 :   20  A 0.0001976
  LUNO+3 :   21  A 0.0001976

Computation Completed

Properties will be evaluated at   0.000000,   0.000000,   0.000000 [a0]

Properties computed using the SCF density matrix

  Nuclear Dipole Moment: [e a0]
     X:     0.8257      Y:    -0.0000      Z:     0.0000

  Electronic Dipole Moment: [e a0]
     X:    -0.7470      Y:     0.0000      Z:    -0.0000

  Dipole Moment: [e a0]
     X:     0.0787      Y:     0.0000      Z:    -0.0000     Total:     0.0787

  Dipole Moment: [D]
     X:     0.2000      Y:     0.0000      Z:    -0.0000     Total:     0.2000

*** tstop() called on n080 at Fri Nov  5 11:35:30 2021
Module time:
	user time   =     464.31 seconds =       7.74 minutes
	system time =       4.33 seconds =       0.07 minutes
	total time  =        118 seconds =       1.97 minutes
Total time:
	user time   =     464.31 seconds =       7.74 minutes
	system time =       4.33 seconds =       0.07 minutes
	total time  =        118 seconds =       1.97 minutes
Grab this energy -157.81305251304954
    Psi4 stopped on: Friday, 05 November 2021 11:35AM
    Psi4 wall time for execution: 0:01:57.90

*** Psi4 exiting successfully. Buy a developer a beer!
