                               Psi4 1.4a2.dev629

  ==> Input File <==

--------------------------------------------------------------------------
import os
memory 14 GB

molecule {
 C   -0.3218659062   -0.0000020360   -0.0000000000
 C    0.0603784608   -1.4012540842   -2.4270327778
 C    0.0602586199    2.8025123111   -0.0000000000
 C    0.0603784608   -1.4012540842    2.4270327778
 H    2.0838354513   -1.6442556313   -2.8477147996
 H   -0.7637195363   -0.3904885285   -4.0239420349
 H   -0.7638825392   -3.2895328809   -2.3501813324
 H    2.0836968051    3.2884189200   -0.0000000000
 H   -0.7639605344    3.6800543707    1.6737672808
 H   -0.7639605344    3.6800543707   -1.6737672808
 H    2.0838354513   -1.6442556313    2.8477147996
 H   -0.7638825392   -3.2895328809    2.3501813324
 H   -0.7637195363   -0.3904885285    4.0239420349
units bohr
0 2
}

basis {

assign 6-31g_2dfp_

[ 6-31g_2dfp_ ]

spherical

!----------------------------------------------------------------------
! Basis Set Exchange
! Version v0.8.13
! https://www.basissetexchange.org
!----------------------------------------------------------------------
!   Basis set: 6-31G(2df,p)
! Description: 6-31G(2df,p)
!        Role: orbital
!     Version: 0  (Data from the original Basis Set Exchange)
!----------------------------------------------------------------------

****
H     0
S    3   1.00
     18.7311370              0.03349460
      2.8253937              0.23472695
      0.6401217              0.81375733
S    1   1.00
      0.1612778              1.00000000
P    1   1.00
      1.5000000              1.0000000
P    1   1.00
      0.3750000              1.0000000
****
B     0
S    6   1.00
   2068.8823000              0.0018663
    310.6495700              0.0142515
     70.6830330              0.0695516
     19.8610800              0.2325729
      6.2993048              0.4670787
      2.1270270              0.3634314
SP   3   1.00
      4.7279710             -0.1303938              0.0745976
      1.1903377             -0.1307889              0.3078467
      0.3594117              1.1309444              0.7434568
SP   1   1.00
      0.1267512              1.0000000              1.0000000
D    1   1.00
      0.8020000              1.0000000
D    1   1.00
      0.2005000              1.0000000
F    1   1.00
      0.5000000              1.0000000
****
C     0
S    6   1.00
   3047.5249000              0.0018347
    457.3695100              0.0140373
    103.9486900              0.0688426
     29.2101550              0.2321844
      9.2866630              0.4679413
      3.1639270              0.3623120
SP   3   1.00
      7.8682724             -0.1193324              0.0689991
      1.8812885             -0.1608542              0.3164240
      0.5442493              1.1434564              0.7443083
SP   1   1.00
      0.1687144              1.0000000              1.0000000
D    1   1.00
      1.2520000              1.0000000
D    1   1.00
      0.3130000              1.0000000
F    1   1.00
      0.8000000              1.0000000
****
N     0
S    6   1.00
   4173.5110000              0.0018348
    627.4579000              0.0139950
    142.9021000              0.0685870
     40.2343300              0.2322410
     12.8202100              0.4690700
      4.3904370              0.3604550
SP   3   1.00
     11.6263580             -0.1149610              0.0675800
      2.7162800             -0.1691180              0.3239070
      0.7722180              1.1458520              0.7408950
SP   1   1.00
      0.2120313              1.0000000              1.0000000
D    1   1.00
      1.8260000              1.0000000
D    1   1.00
      0.4565000              1.0000000
F    1   1.00
      1.0000000              1.0000000
****
O     0
S    6   1.00
   5484.6717000              0.0018311
    825.2349500              0.0139501
    188.0469600              0.0684451
     52.9645000              0.2327143
     16.8975700              0.4701930
      5.7996353              0.3585209
SP   3   1.00
     15.5396160             -0.1107775              0.0708743
      3.5999336             -0.1480263              0.3397528
      1.0137618              1.1307670              0.7271586
SP   1   1.00
      0.2700058              1.0000000              1.0000000
D    1   1.00
      2.5840000              1.0000000
D    1   1.00
      0.6460000              1.0000000
F    1   1.00
      1.4000000              1.0000000
****
F     0
S    6   1.00
   7001.7130900              0.0018196169
   1051.3660900              0.0139160796
    239.2856900              0.0684053245
     67.3974453              0.233185760
     21.5199573              0.471267439
      7.40310130             0.356618546
SP   3   1.00
     20.8479528             -0.108506975            0.0716287243
      4.80830834            -0.146451658            0.3459121030
      1.34406986             1.128688580            0.7224699570
SP   1   1.00
      0.358151393            1.0000000              1.0000000
D    1   1.00
      3.5000000              1.0000000
D    1   1.00
      0.8750000              1.0000000
F    1   1.00
      1.8500000              1.0000000
****
Al     0
S    6   1.00
  13983.1000000              0.00194267
   2098.7500000              0.0148599
    477.7050000              0.0728494
    134.3600000              0.2468300
     42.8709000              0.4872580
     14.5189000              0.3234960
SP   6   1.00
    239.6680000             -0.00292619             0.00460285
     57.4419000             -0.0374080              0.0331990
     18.2859000             -0.1144870              0.1362820
      6.5991400              0.1156350              0.3304760
      2.4904900              0.6125950              0.4491460
      0.9445400              0.3937990              0.2657040
SP   3   1.00
      1.2779000             -0.2276060             -0.0175130
      0.3975900              0.00144583             0.2445330
      0.1600950              1.0927900              0.8049340
SP   1   1.00
      0.0556577              1.0000000              1.0000000
D    1   1.00
      0.6500000              1.0000000
D    1   1.00
      0.1625000              1.0000000
F    1   1.00
      0.2500000              1.0000000
****
Si     0
S    6   1.00
  16115.9000000              0.00195948
   2425.5800000              0.01492880
    553.8670000              0.07284780
    156.3400000              0.24613000
     50.0683000              0.48591400
     17.0178000              0.32500200
SP   6   1.00
    292.7180000             -0.00278094             0.00443826
     69.8731000             -0.03571460             0.03266790
     22.3363000             -0.11498500             0.13472100
      8.1503900              0.09356340             0.32867800
      3.1345800              0.60301700             0.44964000
      1.2254300              0.41895900             0.26137200
SP   3   1.00
      1.7273800             -0.24463000            -0.01779510
      0.5729220              0.00431572             0.25353900
      0.2221920              1.09818000             0.80066900
SP   1   1.00
      0.0778369              1.00000000             1.00000000
D    1   1.00
      0.9000000              1.0000000
D    1   1.00
      0.2250000              1.0000000
F    1   1.00
      0.3200000              1.0000000
****
P     0
S    6   1.00
  19413.3000000              0.0018516
   2909.4200000              0.0142062
    661.3640000              0.0699995
    185.7590000              0.2400790
     59.1943000              0.4847620
     20.0310000              0.3352000
SP   6   1.00
    339.4780000             -0.00278217             0.00456462
     81.0101000             -0.0360499              0.03369360
     25.8780000             -0.1166310              0.13975500
      9.4522100              0.0968328              0.33936200
      3.6656600              0.6144180              0.45092100
      1.4674600              0.4037980              0.23858600
SP   3   1.00
      2.1562300             -0.2529230             -0.01776530
      0.7489970              0.0328517              0.27405800
      0.2831450              1.0812500              0.78542100
SP   1   1.00
      0.0998317              1.0000000              1.00000000
D    1   1.00
      1.1000000              1.0000000
D    1   1.00
      0.2750000              1.0000000
F    1   1.00
      0.4500000              1.0000000
****
S     0
S    6   1.00
  21917.1000000              0.0018690
   3301.4900000              0.0142300
    754.1460000              0.0696960
    212.7110000              0.2384870
     67.9896000              0.4833070
     23.0515000              0.3380740
SP   6   1.00
    423.7350000             -0.0023767              0.0040610
    100.7100000             -0.0316930              0.0306810
     32.1599000             -0.1133170              0.1304520
     11.8079000              0.0560900              0.3272050
      4.6311000              0.5922550              0.4528510
      1.8702500              0.4550060              0.2560420
SP   3   1.00
      2.6158400             -0.2503740             -0.0145110
      0.9221670              0.0669570              0.3102630
      0.3412870              1.0545100              0.7544830
SP   1   1.00
      0.1171670              1.0000000              1.0000000
D    1   1.00
      1.3000000              1.0000000
D    1   1.00
      0.3250000              1.0000000
F    1   1.00
      0.5500000              1.0000000
****
Cl     0
S    6   1.00
  25180.1000000              0.0018330
   3780.3500000              0.0140340
    860.4740000              0.0690970
    242.1450000              0.2374520
     77.3349000              0.4830340
     26.2470000              0.3398560
SP   6   1.00
    491.7650000             -0.0022974              0.0039894
    116.9840000             -0.0307140              0.0303180
     37.4153000             -0.1125280              0.1298800
     13.7834000              0.0450160              0.3279510
      5.4521500              0.5893530              0.4535270
      2.2258800              0.4652060              0.2521540
SP   3   1.00
      3.1864900             -0.2518300             -0.0142990
      1.1442700              0.0615890              0.3235720
      0.4203770              1.0601800              0.7435070
SP   1   1.00
      0.1426570              1.0000000              1.0000000
D    1   1.00
      1.5000000              1.0000000
D    1   1.00
      0.3750000              1.0000000
F    1   1.00
      0.7000000              1.0000000
****
}

set {
reference uhf
freeze_core true
e_convergence 10
d_convergence 10
dft_spherical_points 1202
dft_radial_points 99
}

e = energy('b3lyp')

print_out('Grab this energy {0}'.format(e))
--------------------------------------------------------------------------

    Molecular point group: cs

    Geometry (in Bohr), charge = 0, multiplicity = 2:

       Center              X                  Y                   Z               Mass
    ------------   -----------------  -----------------  -----------------  -----------------
         C           -0.321709821201    -0.000002012409     0.000000000000    12.000000000000
         C            0.060534545799    -1.401254060609    -2.427032777800    12.000000000000
         C            0.060414704899     2.802512334691     0.000000000000    12.000000000000
         C            0.060534545799    -1.401254060609     2.427032777800    12.000000000000
         H            2.083991536299    -1.644255607709    -2.847714799600     1.007825032230
         H           -0.763563451301    -0.390488504909    -4.023942034900     1.007825032230
         H           -0.763726454201    -3.289532857309    -2.350181332400     1.007825032230
         H            2.083852890099     3.288418943591     0.000000000000     1.007825032230
         H           -0.763804449401     3.680054394291     1.673767280800     1.007825032230
         H           -0.763804449401     3.680054394291    -1.673767280800     1.007825032230
         H            2.083991536299    -1.644255607709     2.847714799600     1.007825032230
         H           -0.763726454201    -3.289532857309     2.350181332400     1.007825032230
         H           -0.763563451301    -0.390488504909     4.023942034900     1.007825032230

  Charge       = 0
  Multiplicity = 2
  Basis Set: ANONYMOUS85273708
    Blend: 6-31G_2DFP_
  Basis Set: (ANONYMOUS85273708 AUX)
    Blend: DEF2-UNIVERSAL-JKFIT

    Orbital Energies [Eh]
    ---------------------

    Alpha Occupied:

       1Ap   -10.180209     2Ap   -10.166503     1App  -10.166502
       3Ap   -10.166457     4Ap    -0.797742     5Ap    -0.686565
       2App   -0.686564     6Ap    -0.531081     7Ap    -0.441167
       3App   -0.434874     8Ap    -0.434873     9Ap    -0.382751
       4App   -0.382750     5App   -0.364053     6App   -0.338096
      10Ap    -0.338096    11Ap    -0.168716

    Alpha Virtual:

      12Ap     0.076400    13Ap     0.134524     7App    0.134525
      14Ap     0.143063     8App    0.143063    15Ap     0.155098
      16Ap     0.179216     9App    0.179216    17Ap     0.203411
      10App    0.215305    11App    0.276181    18Ap     0.276183
      19Ap     0.399192    12App    0.399196    20Ap     0.403630
      13App    0.424399    21Ap     0.424399    22Ap     0.456630
      23Ap     0.495639    14App    0.495640    15App    0.512386
      24Ap     0.514210    25Ap     0.579021    16App    0.579030
      17App    0.592208    26Ap     0.592209    27Ap     0.603004
      28Ap     0.625825    18App    0.632540    19App    0.636966
      29Ap     0.636970    30Ap     0.663589    20App    0.663589
      31Ap     0.684514    21App    0.684515    32Ap     0.735500
      22App    0.826279    33Ap     0.826282    23App    0.854429
      24App    0.915800    34Ap     0.915806    25App    0.944706
      35Ap     0.945356    26App    0.961922    36Ap     0.961938
      37Ap     1.003553    38Ap     1.128431    27App    1.128443
      39Ap     1.143075    40Ap     1.163087    28App    1.163099
      41Ap     1.223928    42Ap     1.275091    29App    1.275094
      43Ap     1.278658    30App    1.325315    44Ap     1.325317
      45Ap     1.356612    31App    1.366928    46Ap     1.366932
      32App    1.393031    47Ap     1.405031    33App    1.405033
      34App    1.417795    48Ap     1.417802    35App    1.428606
      36App    1.492576    49Ap     1.500038    37App    1.543272
      50Ap     1.543273    51Ap     1.574924    38App    1.574926
      52Ap     1.672257    53Ap     1.741084    39App    1.741096
      54Ap     1.769788    40App    1.834277    55Ap     1.834278
      41App    1.973618    56Ap     2.019945    42App    2.019949
      57Ap     2.020388    58Ap     2.053327    43App    2.053328
      44App    2.739661    59Ap     2.739661    60Ap     2.790936
      45App    2.811971    61Ap     2.890763    46App    2.890769
      62Ap     2.894705    63Ap     2.929860    47App    2.929868
      48App    2.959689    64Ap     2.965139    49App    2.965152
      65Ap     3.034573    50App    3.073074    66Ap     3.073088
      51App    3.085355    67Ap     3.168002    52App    3.168009
      68Ap     3.180913    53App    3.284487    69Ap     3.284488
      70Ap     3.326299    54App    3.326304    71Ap     3.374750
      55App    3.489388    72Ap     3.489409    56App    3.513910
      73Ap     3.524252    57App    3.568851    74Ap     3.568872
      58App    3.572858    75Ap     3.667652    59App    3.667659
      76Ap     3.681682    60App    3.694912    77Ap     3.694927
      78Ap     3.777612    61App    3.777638    79Ap     3.790945
      80Ap     3.913181    62App    3.913187    81Ap     4.037101
      82Ap     4.114076    63App    4.114081    83Ap     4.151472
      64App    4.151480    84Ap     4.176270    65App    4.204244
      85Ap     4.204247    86Ap     4.204434    66App    4.214498
      87Ap     4.318010    67App    4.318030    68App    4.360910
      88Ap     4.427189    69App    4.427191    70App    4.445701
      71App    4.518966    89Ap     4.518967    72App    4.579632
      90Ap     4.579645    91Ap     4.618700    92Ap     4.711149
      93Ap     4.776514    73App    4.776521    74App    4.840426
      94Ap     4.963578    75App    5.003911    95Ap     5.003923
      96Ap     5.233440    76App    5.252213    97Ap     5.252214
      98Ap     5.360367    77App    5.360381    78App    5.482955

    Beta Occupied:

       1Ap   -10.167254     1App  -10.167254     2Ap   -10.167237
       3Ap   -10.166371     4Ap    -0.781090     5Ap    -0.684368
       2App   -0.684367     6Ap    -0.512003     3App   -0.431263
       7Ap    -0.431263     8Ap    -0.421869     9Ap    -0.376834
       4App   -0.376833     5App   -0.363041     6App   -0.333206
      10Ap    -0.333206

    Beta Virtual:

      11Ap    -0.025409    12Ap     0.077410    13Ap     0.135432
       7App    0.135433    14Ap     0.144903     8App    0.144903
      15Ap     0.163505    16Ap     0.182876     9App    0.182877
      10App    0.215532    17Ap     0.218835    11App    0.282525
      18Ap     0.282528    19Ap     0.400357    12App    0.400361
      20Ap     0.420119    13App    0.427209    21Ap     0.427210
      22Ap     0.468506    23Ap     0.497894    14App    0.497894
      15App    0.514120    24Ap     0.556615    25Ap     0.584602
      16App    0.584610    17App    0.598402    26Ap     0.598403
      27Ap     0.610441    28Ap     0.629166    18App    0.632688
      19App    0.640226    29Ap     0.640230    30Ap     0.667155
      20App    0.667155    31Ap     0.687120    21App    0.687121
      32Ap     0.758028    22App    0.831442    33Ap     0.831444
      23App    0.855762    24App    0.923747    34Ap     0.923753
      25App    0.946545    35Ap     0.954314    26App    0.967253
      36Ap     0.967269    37Ap     1.008786    38Ap     1.132438
      27App    1.132449    39Ap     1.156476    40Ap     1.168192
      28App    1.168204    41Ap     1.232888    42Ap     1.280660
      29App    1.280663    43Ap     1.284390    30App    1.330323
      44Ap     1.330325    45Ap     1.366078    31App    1.372173
      46Ap     1.372177    32App    1.394089    47Ap     1.408494
      33App    1.408497    34App    1.422867    48Ap     1.422874
      35App    1.428858    36App    1.493631    49Ap     1.510476
      50Ap     1.547552    37App    1.547553    38App    1.582901
      51Ap     1.582902    52Ap     1.677163    53Ap     1.746854
      39App    1.746865    54Ap     1.780531    40App    1.838110
      55Ap     1.838111    41App    1.974475    56Ap     2.026338
      42App    2.026341    57Ap     2.041733    58Ap     2.060019
      43App    2.060020    44App    2.748008    59Ap     2.748010
      45App    2.812378    60Ap     2.816117    61Ap     2.903452
      46App    2.903458    62Ap     2.924471    63Ap     2.932300
      47App    2.932309    48App    2.960757    64Ap     2.969714
      49App    2.969728    65Ap     3.042469    50App    3.083005
      66Ap     3.083017    51App    3.087180    67Ap     3.183810
      52App    3.183814    68Ap     3.188593    53App    3.289272
      69Ap     3.289272    70Ap     3.330102    54App    3.330107
      71Ap     3.382583    55App    3.492146    72Ap     3.492166
      56App    3.512275    73Ap     3.527304    57App    3.572712
      58App    3.582164    74Ap     3.582186    75Ap     3.672713
      59App    3.672725    76Ap     3.695043    60App    3.726357
      77Ap     3.726373    78Ap     3.782084    61App    3.782111
      79Ap     3.819528    80Ap     3.923021    62App    3.923028
      81Ap     4.048084    82Ap     4.120983    63App    4.120985
      83Ap     4.158633    64App    4.158642    84Ap     4.190230
      65App    4.210176    85Ap     4.210179    86Ap     4.212317
      66App    4.218965    87Ap     4.325348    67App    4.325368
      68App    4.364262    88Ap     4.435419    69App    4.435421
      70App    4.448559    71App    4.526764    89Ap     4.526765
      72App    4.590167    90Ap     4.590180    91Ap     4.625892
      92Ap     4.721464    93Ap     4.783449    73App    4.783456
      74App    4.843337    94Ap     4.968349    75App    5.007944
      95Ap     5.007956    96Ap     5.239130    76App    5.253991
      97Ap     5.253992    98Ap     5.366812    77App    5.366826
      78App    5.485258

    Final Occupation by Irrep:
             Ap   App
    DOCC [    10,    6 ]
    SOCC [     1,    0 ]

  @DF-UKS Final Energy:  -157.81303052278196

   => Energetics <=

    Nuclear Repulsion Energy =            125.4344508901186970
    One-Electron Energy =                -458.8244705172234035
    Two-Electron Energy =                 195.8882298346364621
    DFT Exchange-Correlation Energy =     -20.3112407303137061
    Empirical Dispersion Energy =           0.0000000000000000
    VV10 Nonlocal Energy =                  0.0000000000000000
    Total Energy =                       -157.8130305227819576

  UHF NO Occupations:
  HONO-2 :    9 Ap 1.9996019
  HONO-1 :   10 Ap 1.9989782
  HONO-0 :   11 Ap 1.0000000
  LUNO+0 :   12 Ap 0.0010218
  LUNO+1 :   13 Ap 0.0003981
  LUNO+2 :    7App 0.0001978
  LUNO+3 :   14 Ap 0.0001978

Computation Completed

Properties will be evaluated at   0.000000,   0.000000,   0.000000 [a0]

Properties computed using the SCF density matrix

  Nuclear Dipole Moment: [e a0]
     X:     0.8283      Y:    -0.0000      Z:     0.0000

  Electronic Dipole Moment: [e a0]
     X:    -0.7505      Y:     0.0000      Z:     0.0000

  Dipole Moment: [e a0]
     X:     0.0778      Y:    -0.0000      Z:     0.0000     Total:     0.0778

  Dipole Moment: [D]
     X:     0.1977      Y:    -0.0000      Z:     0.0000     Total:     0.1977

*** tstop() called on n033 at Fri Nov  5 11:37:49 2021
Module time:
	user time   =     767.09 seconds =      12.78 minutes
	system time =      14.55 seconds =       0.24 minutes
	total time  =        196 seconds =       3.27 minutes
Total time:
	user time   =     767.09 seconds =      12.78 minutes
	system time =      14.55 seconds =       0.24 minutes
	total time  =        196 seconds =       3.27 minutes
Grab this energy -157.81303052278196
    Psi4 stopped on: Friday, 05 November 2021 11:37AM
    Psi4 wall time for execution: 0:03:16.46

*** Psi4 exiting successfully. Buy a developer a beer!
