                               Psi4 1.4a2.dev629

  ==> Input File <==

--------------------------------------------------------------------------
import os
memory 14 GB

molecule {
 C   -0.3265065117   -0.0053451491    0.0000000000
 C    0.0597394387   -1.4018132110   -2.4260773717
 C    0.0598452608    2.8018835810    0.0000000000
 C    0.0597394387   -1.4018132110    2.4260773717
 H    2.0873871846   -1.6433244525   -2.8478393027
 H   -0.7636326709   -0.3872000440   -4.0261621235
 H   -0.7652400979   -3.2912689954   -2.3477851262
 H    2.0868956582    3.2889718826   -0.0000000000
 H   -0.7646749965    3.6808393888    1.6765116360
 H   -0.7646749965    3.6808393888   -1.6765116360
 H    2.0873871846   -1.6433244525    2.8478393027
 H   -0.7652400979   -3.2912689954    2.3477851262
 H   -0.7636326709   -0.3872000440    4.0261621235
units bohr
0 2
}

basis {

assign 6-31g_2dfp_

[ 6-31g_2dfp_ ]

spherical

!----------------------------------------------------------------------
! Basis Set Exchange
! Version v0.8.13
! https://www.basissetexchange.org
!----------------------------------------------------------------------
!   Basis set: 6-31G(2df,p)
! Description: 6-31G(2df,p)
!        Role: orbital
!     Version: 0  (Data from the original Basis Set Exchange)
!----------------------------------------------------------------------

****
H     0
S    3   1.00
     18.7311370              0.03349460
      2.8253937              0.23472695
      0.6401217              0.81375733
S    1   1.00
      0.1612778              1.00000000
P    1   1.00
      1.5000000              1.0000000
P    1   1.00
      0.3750000              1.0000000
****
B     0
S    6   1.00
   2068.8823000              0.0018663
    310.6495700              0.0142515
     70.6830330              0.0695516
     19.8610800              0.2325729
      6.2993048              0.4670787
      2.1270270              0.3634314
SP   3   1.00
      4.7279710             -0.1303938              0.0745976
      1.1903377             -0.1307889              0.3078467
      0.3594117              1.1309444              0.7434568
SP   1   1.00
      0.1267512              1.0000000              1.0000000
D    1   1.00
      0.8020000              1.0000000
D    1   1.00
      0.2005000              1.0000000
F    1   1.00
      0.5000000              1.0000000
****
C     0
S    6   1.00
   3047.5249000              0.0018347
    457.3695100              0.0140373
    103.9486900              0.0688426
     29.2101550              0.2321844
      9.2866630              0.4679413
      3.1639270              0.3623120
SP   3   1.00
      7.8682724             -0.1193324              0.0689991
      1.8812885             -0.1608542              0.3164240
      0.5442493              1.1434564              0.7443083
SP   1   1.00
      0.1687144              1.0000000              1.0000000
D    1   1.00
      1.2520000              1.0000000
D    1   1.00
      0.3130000              1.0000000
F    1   1.00
      0.8000000              1.0000000
****
N     0
S    6   1.00
   4173.5110000              0.0018348
    627.4579000              0.0139950
    142.9021000              0.0685870
     40.2343300              0.2322410
     12.8202100              0.4690700
      4.3904370              0.3604550
SP   3   1.00
     11.6263580             -0.1149610              0.0675800
      2.7162800             -0.1691180              0.3239070
      0.7722180              1.1458520              0.7408950
SP   1   1.00
      0.2120313              1.0000000              1.0000000
D    1   1.00
      1.8260000              1.0000000
D    1   1.00
      0.4565000              1.0000000
F    1   1.00
      1.0000000              1.0000000
****
O     0
S    6   1.00
   5484.6717000              0.0018311
    825.2349500              0.0139501
    188.0469600              0.0684451
     52.9645000              0.2327143
     16.8975700              0.4701930
      5.7996353              0.3585209
SP   3   1.00
     15.5396160             -0.1107775              0.0708743
      3.5999336             -0.1480263              0.3397528
      1.0137618              1.1307670              0.7271586
SP   1   1.00
      0.2700058              1.0000000              1.0000000
D    1   1.00
      2.5840000              1.0000000
D    1   1.00
      0.6460000              1.0000000
F    1   1.00
      1.4000000              1.0000000
****
F     0
S    6   1.00
   7001.7130900              0.0018196169
   1051.3660900              0.0139160796
    239.2856900              0.0684053245
     67.3974453              0.233185760
     21.5199573              0.471267439
      7.40310130             0.356618546
SP   3   1.00
     20.8479528             -0.108506975            0.0716287243
      4.80830834            -0.146451658            0.3459121030
      1.34406986             1.128688580            0.7224699570
SP   1   1.00
      0.358151393            1.0000000              1.0000000
D    1   1.00
      3.5000000              1.0000000
D    1   1.00
      0.8750000              1.0000000
F    1   1.00
      1.8500000              1.0000000
****
Al     0
S    6   1.00
  13983.1000000              0.00194267
   2098.7500000              0.0148599
    477.7050000              0.0728494
    134.3600000              0.2468300
     42.8709000              0.4872580
     14.5189000              0.3234960
SP   6   1.00
    239.6680000             -0.00292619             0.00460285
     57.4419000             -0.0374080              0.0331990
     18.2859000             -0.1144870              0.1362820
      6.5991400              0.1156350              0.3304760
      2.4904900              0.6125950              0.4491460
      0.9445400              0.3937990              0.2657040
SP   3   1.00
      1.2779000             -0.2276060             -0.0175130
      0.3975900              0.00144583             0.2445330
      0.1600950              1.0927900              0.8049340
SP   1   1.00
      0.0556577              1.0000000              1.0000000
D    1   1.00
      0.6500000              1.0000000
D    1   1.00
      0.1625000              1.0000000
F    1   1.00
      0.2500000              1.0000000
****
Si     0
S    6   1.00
  16115.9000000              0.00195948
   2425.5800000              0.01492880
    553.8670000              0.07284780
    156.3400000              0.24613000
     50.0683000              0.48591400
     17.0178000              0.32500200
SP   6   1.00
    292.7180000             -0.00278094             0.00443826
     69.8731000             -0.03571460             0.03266790
     22.3363000             -0.11498500             0.13472100
      8.1503900              0.09356340             0.32867800
      3.1345800              0.60301700             0.44964000
      1.2254300              0.41895900             0.26137200
SP   3   1.00
      1.7273800             -0.24463000            -0.01779510
      0.5729220              0.00431572             0.25353900
      0.2221920              1.09818000             0.80066900
SP   1   1.00
      0.0778369              1.00000000             1.00000000
D    1   1.00
      0.9000000              1.0000000
D    1   1.00
      0.2250000              1.0000000
F    1   1.00
      0.3200000              1.0000000
****
P     0
S    6   1.00
  19413.3000000              0.0018516
   2909.4200000              0.0142062
    661.3640000              0.0699995
    185.7590000              0.2400790
     59.1943000              0.4847620
     20.0310000              0.3352000
SP   6   1.00
    339.4780000             -0.00278217             0.00456462
     81.0101000             -0.0360499              0.03369360
     25.8780000             -0.1166310              0.13975500
      9.4522100              0.0968328              0.33936200
      3.6656600              0.6144180              0.45092100
      1.4674600              0.4037980              0.23858600
SP   3   1.00
      2.1562300             -0.2529230             -0.01776530
      0.7489970              0.0328517              0.27405800
      0.2831450              1.0812500              0.78542100
SP   1   1.00
      0.0998317              1.0000000              1.00000000
D    1   1.00
      1.1000000              1.0000000
D    1   1.00
      0.2750000              1.0000000
F    1   1.00
      0.4500000              1.0000000
****
S     0
S    6   1.00
  21917.1000000              0.0018690
   3301.4900000              0.0142300
    754.1460000              0.0696960
    212.7110000              0.2384870
     67.9896000              0.4833070
     23.0515000              0.3380740
SP   6   1.00
    423.7350000             -0.0023767              0.0040610
    100.7100000             -0.0316930              0.0306810
     32.1599000             -0.1133170              0.1304520
     11.8079000              0.0560900              0.3272050
      4.6311000              0.5922550              0.4528510
      1.8702500              0.4550060              0.2560420
SP   3   1.00
      2.6158400             -0.2503740             -0.0145110
      0.9221670              0.0669570              0.3102630
      0.3412870              1.0545100              0.7544830
SP   1   1.00
      0.1171670              1.0000000              1.0000000
D    1   1.00
      1.3000000              1.0000000
D    1   1.00
      0.3250000              1.0000000
F    1   1.00
      0.5500000              1.0000000
****
Cl     0
S    6   1.00
  25180.1000000              0.0018330
   3780.3500000              0.0140340
    860.4740000              0.0690970
    242.1450000              0.2374520
     77.3349000              0.4830340
     26.2470000              0.3398560
SP   6   1.00
    491.7650000             -0.0022974              0.0039894
    116.9840000             -0.0307140              0.0303180
     37.4153000             -0.1125280              0.1298800
     13.7834000              0.0450160              0.3279510
      5.4521500              0.5893530              0.4535270
      2.2258800              0.4652060              0.2521540
SP   3   1.00
      3.1864900             -0.2518300             -0.0142990
      1.1442700              0.0615890              0.3235720
      0.4203770              1.0601800              0.7435070
SP   1   1.00
      0.1426570              1.0000000              1.0000000
D    1   1.00
      1.5000000              1.0000000
D    1   1.00
      0.3750000              1.0000000
F    1   1.00
      0.7000000              1.0000000
****
}

set {
reference uhf
freeze_core true
e_convergence 10
d_convergence 10
dft_spherical_points 1202
dft_radial_points 99
}

e = energy('b3lyp')

print_out('Grab this energy {0}'.format(e))
--------------------------------------------------------------------------

    Molecular point group: cs

    Geometry (in Bohr), charge = 0, multiplicity = 2:

       Center              X                  Y                   Z               Mass
    ------------   -----------------  -----------------  -----------------  -----------------
         C           -0.325130836201    -0.003979521791     0.000000000000    12.000000000000
         C            0.061115114199    -1.400447583691    -2.426077371700    12.000000000000
         C            0.061220936299     2.803249208309     0.000000000000    12.000000000000
         C            0.061115114199    -1.400447583691     2.426077371700    12.000000000000
         H            2.088762860099    -1.641958825191    -2.847839302700     1.007825032230
         H           -0.762256995401    -0.385834416691    -4.026162123500     1.007825032230
         H           -0.763864422401    -3.289903368091    -2.347785126200     1.007825032230
         H            2.088271333699     3.290337509909     0.000000000000     1.007825032230
         H           -0.763299321001     3.682205016109     1.676511636000     1.007825032230
         H           -0.763299321001     3.682205016109    -1.676511636000     1.007825032230
         H            2.088762860099    -1.641958825191     2.847839302700     1.007825032230
         H           -0.763864422401    -3.289903368091     2.347785126200     1.007825032230
         H           -0.762256995401    -0.385834416691     4.026162123500     1.007825032230

  Charge       = 0
  Multiplicity = 2
  Basis Set: ANONYMOUSC32EB751
    Blend: 6-31G_2DFP_
  Basis Set: (ANONYMOUSC32EB751 AUX)
    Blend: DEF2-UNIVERSAL-JKFIT

    Orbital Energies [Eh]
    ---------------------

    Alpha Occupied:

       1Ap   -10.180454     2Ap   -10.167078     1App  -10.167037
       3Ap   -10.167000     4Ap    -0.797715     2App   -0.686363
       5Ap    -0.685985     6Ap    -0.530797     7Ap    -0.440896
       8Ap    -0.435025     3App   -0.434603     4App   -0.382471
       9Ap    -0.382235     5App   -0.363890     6App   -0.338566
      10Ap    -0.337527    11Ap    -0.169076

    Alpha Virtual:

      12Ap     0.076089     7App    0.134145    13Ap     0.134176
      14Ap     0.142533     8App    0.142886    15Ap     0.154814
      16Ap     0.178667     9App    0.178682    17Ap     0.203497
      10App    0.214935    18Ap     0.275558    11App    0.276134
      19Ap     0.399084    12App    0.399339    20Ap     0.403303
      13App    0.424090    21Ap     0.424092    22Ap     0.456589
      23Ap     0.495393    14App    0.495489    15App    0.512057
      24Ap     0.513981    25Ap     0.578709    16App    0.579099
      17App    0.591337    26Ap     0.591339    27Ap     0.602264
      28Ap     0.624894    18App    0.631916    29Ap     0.636243
      19App    0.636528    20App    0.663174    30Ap     0.663308
      21App    0.683827    31Ap     0.683924    32Ap     0.734865
      33Ap     0.825126    22App    0.825339    23App    0.853963
      24App    0.914746    34Ap     0.914967    25App    0.944023
      35Ap     0.944600    36Ap     0.961216    26App    0.961551
      37Ap     1.004334    38Ap     1.128038    27App    1.128582
      39Ap     1.141894    40Ap     1.162736    28App    1.163524
      41Ap     1.222907    29App    1.273738    42Ap     1.274673
      43Ap     1.279199    44Ap     1.324369    30App    1.324566
      45Ap     1.354967    46Ap     1.366136    31App    1.366670
      32App    1.392516    47Ap     1.403369    33App    1.403472
      34App    1.416187    48Ap     1.416834    35App    1.427743
      36App    1.491957    49Ap     1.498577    50Ap     1.543210
      37App    1.543217    38App    1.574524    51Ap     1.574565
      52Ap     1.670357    53Ap     1.739009    39App    1.739414
      54Ap     1.768102    55Ap     1.831459    40App    1.831978
      41App    1.972289    56Ap     2.018026    42App    2.018180
      57Ap     2.019309    58Ap     2.051752    43App    2.052796
      59Ap     2.737918    44App    2.738393    60Ap     2.790707
      45App    2.811697    61Ap     2.889209    46App    2.890338
      62Ap     2.894974    63Ap     2.929255    47App    2.930041
      48App    2.959157    49App    2.964202    64Ap     2.964491
      65Ap     3.033961    66Ap     3.070177    50App    3.071167
      51App    3.084412    52App    3.168705    67Ap     3.168773
      68Ap     3.180846    69Ap     3.285369    53App    3.285955
      54App    3.327712    70Ap     3.328468    71Ap     3.375306
      72Ap     3.489452    55App    3.490479    56App    3.513566
      73Ap     3.525496    57App    3.567729    74Ap     3.568200
      58App    3.574699    59App    3.666079    75Ap     3.666674
      76Ap     3.680690    60App    3.693812    77Ap     3.693841
      78Ap     3.775154    61App    3.776677    79Ap     3.787850
      80Ap     3.911867    62App    3.912790    81Ap     4.033265
      82Ap     4.111426    63App    4.112066    83Ap     4.147368
      64App    4.149324    84Ap     4.173119    85Ap     4.201728
      86Ap     4.202897    65App    4.203137    66App    4.210772
      87Ap     4.315194    67App    4.316330    68App    4.359074
      88Ap     4.423736    69App    4.423889    70App    4.444330
      89Ap     4.516863    71App    4.517099    90Ap     4.578201
      72App    4.578235    91Ap     4.616969    92Ap     4.709052
      93Ap     4.773809    73App    4.774913    74App    4.836657
      94Ap     4.962885    75App    5.001994    95Ap     5.002546
      96Ap     5.227977    97Ap     5.246803    76App    5.246855
      98Ap     5.355388    77App    5.356524    78App    5.478832

    Beta Occupied:

       1Ap   -10.167830     1App  -10.167790     2Ap   -10.167773
       3Ap   -10.166634     4Ap    -0.781056     2App   -0.684158
       5Ap    -0.683803     6Ap    -0.511773     7Ap    -0.431414
       3App   -0.430989     8Ap    -0.421576     4App   -0.376503
       9Ap    -0.376349     5App   -0.362875     6App   -0.333697
      10Ap    -0.332637

    Beta Virtual:

      11Ap    -0.025891    12Ap     0.077100    13Ap     0.135081
       7App    0.135085    14Ap     0.144405     8App    0.144737
      15Ap     0.163305    16Ap     0.182316     9App    0.182355
      10App    0.215160    17Ap     0.218858    18Ap     0.281953
      11App    0.282458    19Ap     0.400260    12App    0.400509
      20Ap     0.419809    21Ap     0.426888    13App    0.426909
      22Ap     0.468433    23Ap     0.497651    14App    0.497752
      15App    0.513796    24Ap     0.556277    25Ap     0.584229
      16App    0.584664    26Ap     0.597524    17App    0.597541
      27Ap     0.609713    28Ap     0.628236    18App    0.632071
      29Ap     0.639500    19App    0.639811    20App    0.666771
      30Ap     0.666893    21App    0.686458    31Ap     0.686559
      32Ap     0.757394    33Ap     0.830319    22App    0.830524
      23App    0.855319    24App    0.922695    34Ap     0.922969
      25App    0.945859    35Ap     0.953495    36Ap     0.966497
      26App    0.966847    37Ap     1.009622    38Ap     1.132005
      27App    1.132481    39Ap     1.155265    40Ap     1.167876
      28App    1.168650    41Ap     1.231872    29App    1.279406
      42Ap     1.280236    43Ap     1.284943    44Ap     1.329429
      30App    1.329603    45Ap     1.364366    46Ap     1.371433
      31App    1.371868    32App    1.393586    47Ap     1.406764
      33App    1.406970    34App    1.421229    48Ap     1.421859
      35App    1.427996    36App    1.493008    49Ap     1.509000
      50Ap     1.547719    37App    1.547741    51Ap     1.582307
      38App    1.582317    52Ap     1.675189    53Ap     1.744775
      39App    1.745188    54Ap     1.778888    55Ap     1.835294
      40App    1.835841    41App    1.973146    42App    2.024559
      56Ap     2.025653    57Ap     2.039428    58Ap     2.058508
      43App    2.059521    59Ap     2.746226    44App    2.746761
      45App    2.812109    60Ap     2.815791    61Ap     2.901998
      46App    2.902951    62Ap     2.924597    63Ap     2.931659
      47App    2.932550    48App    2.960221    49App    2.968761
      64Ap     2.969049    65Ap     3.041936    66Ap     3.080186
      50App    3.081026    51App    3.086233    67Ap     3.184258
      52App    3.184471    68Ap     3.188689    69Ap     3.290165
      53App    3.290671    54App    3.331528    70Ap     3.332291
      71Ap     3.383086    72Ap     3.492181    55App    3.493222
      56App    3.511937    73Ap     3.528506    57App    3.574541
      58App    3.581195    74Ap     3.581565    59App    3.670830
      75Ap     3.671274    76Ap     3.693965    60App    3.725350
      77Ap     3.725624    78Ap     3.779752    61App    3.781231
      79Ap     3.816392    80Ap     3.921694    62App    3.922607
      81Ap     4.044164    82Ap     4.118266    63App    4.118813
      83Ap     4.154617    64App    4.156524    84Ap     4.187209
      85Ap     4.208128    65App    4.209051    86Ap     4.210400
      66App    4.215286    87Ap     4.322560    67App    4.323819
      68App    4.362449    88Ap     4.432015    69App    4.432153
      70App    4.447188    89Ap     4.524610    71App    4.524940
      90Ap     4.588749    72App    4.588817    91Ap     4.624113
      92Ap     4.719488    93Ap     4.780703    73App    4.781879
      74App    4.839571    94Ap     4.967694    75App    5.006060
      95Ap     5.006586    96Ap     5.233661    97Ap     5.248583
      76App    5.248624    98Ap     5.361826    77App    5.363014
      78App    5.481152

    Final Occupation by Irrep:
             Ap   App
    DOCC [    10,    6 ]
    SOCC [     1,    0 ]

  @DF-UKS Final Energy:  -157.81305818487763

   => Energetics <=

    Nuclear Repulsion Energy =            125.3859512574696424
    One-Electron Energy =                -458.7314470527993535
    Two-Electron Energy =                 195.8393281764381300
    DFT Exchange-Correlation Energy =     -20.3068905659860341
    Empirical Dispersion Energy =           0.0000000000000000
    VV10 Nonlocal Energy =                  0.0000000000000000
    Total Energy =                       -157.8130581848776330

  UHF NO Occupations:
  HONO-2 :    9 Ap 1.9995999
  HONO-1 :   10 Ap 1.9989813
  HONO-0 :   11 Ap 1.0000000
  LUNO+0 :   12 Ap 0.0010187
  LUNO+1 :   13 Ap 0.0004001
  LUNO+2 :   14 Ap 0.0001987
  LUNO+3 :    7App 0.0001966

Computation Completed

Properties will be evaluated at   0.000000,   0.000000,   0.000000 [a0]

Properties computed using the SCF density matrix

  Nuclear Dipole Moment: [e a0]
     X:     0.8369      Y:     0.0096      Z:     0.0000

  Electronic Dipole Moment: [e a0]
     X:    -0.7591      Y:    -0.0108      Z:     0.0000

  Dipole Moment: [e a0]
     X:     0.0778      Y:    -0.0012      Z:     0.0000     Total:     0.0778

  Dipole Moment: [D]
     X:     0.1977      Y:    -0.0031      Z:     0.0000     Total:     0.1977

*** tstop() called on n073 at Fri Nov  5 13:30:58 2021
Module time:
	user time   =     566.21 seconds =       9.44 minutes
	system time =      12.74 seconds =       0.21 minutes
	total time  =        146 seconds =       2.43 minutes
Total time:
	user time   =     566.21 seconds =       9.44 minutes
	system time =      12.74 seconds =       0.21 minutes
	total time  =        146 seconds =       2.43 minutes
Grab this energy -157.81305818487763
    Psi4 stopped on: Friday, 05 November 2021 01:30PM
    Psi4 wall time for execution: 0:02:25.64

*** Psi4 exiting successfully. Buy a developer a beer!
