                               Psi4 1.4a2.dev629

  ==> Input File <==

--------------------------------------------------------------------------
import os
memory 14 GB

molecule {
 C   -0.3233524522   -0.0000025845    0.0002562309
 C    0.0627320951   -1.3997218921   -2.4251456294
 C    0.0608371737    2.8001199395   -0.0007677519
 C    0.0591829901   -1.4003937196    2.4247732985
 H    2.0867093432   -1.6444494657   -2.8478168115
 H   -0.7659104768   -0.3887896925   -4.0257234299
 H   -0.7659373036   -3.2920481589   -2.3494801810
 H    2.0867450951    3.2886016247    0.0002350527
 H   -0.7653896374    3.6806946485    1.6765607651
 H   -0.7656624818    3.6807811123   -1.6762292730
 H    2.0870603626   -1.6442437063    2.8479307944
 H   -0.7649611952   -3.2922507389    2.3494382059
 H   -0.7646613894   -0.3883216802    4.0259687291
units bohr
0 2
}

basis {

assign 6-31g_2dfp_

[ 6-31g_2dfp_ ]

spherical

!----------------------------------------------------------------------
! Basis Set Exchange
! Version v0.8.13
! https://www.basissetexchange.org
!----------------------------------------------------------------------
!   Basis set: 6-31G(2df,p)
! Description: 6-31G(2df,p)
!        Role: orbital
!     Version: 0  (Data from the original Basis Set Exchange)
!----------------------------------------------------------------------

****
H     0
S    3   1.00
     18.7311370              0.03349460
      2.8253937              0.23472695
      0.6401217              0.81375733
S    1   1.00
      0.1612778              1.00000000
P    1   1.00
      1.5000000              1.0000000
P    1   1.00
      0.3750000              1.0000000
****
B     0
S    6   1.00
   2068.8823000              0.0018663
    310.6495700              0.0142515
     70.6830330              0.0695516
     19.8610800              0.2325729
      6.2993048              0.4670787
      2.1270270              0.3634314
SP   3   1.00
      4.7279710             -0.1303938              0.0745976
      1.1903377             -0.1307889              0.3078467
      0.3594117              1.1309444              0.7434568
SP   1   1.00
      0.1267512              1.0000000              1.0000000
D    1   1.00
      0.8020000              1.0000000
D    1   1.00
      0.2005000              1.0000000
F    1   1.00
      0.5000000              1.0000000
****
C     0
S    6   1.00
   3047.5249000              0.0018347
    457.3695100              0.0140373
    103.9486900              0.0688426
     29.2101550              0.2321844
      9.2866630              0.4679413
      3.1639270              0.3623120
SP   3   1.00
      7.8682724             -0.1193324              0.0689991
      1.8812885             -0.1608542              0.3164240
      0.5442493              1.1434564              0.7443083
SP   1   1.00
      0.1687144              1.0000000              1.0000000
D    1   1.00
      1.2520000              1.0000000
D    1   1.00
      0.3130000              1.0000000
F    1   1.00
      0.8000000              1.0000000
****
N     0
S    6   1.00
   4173.5110000              0.0018348
    627.4579000              0.0139950
    142.9021000              0.0685870
     40.2343300              0.2322410
     12.8202100              0.4690700
      4.3904370              0.3604550
SP   3   1.00
     11.6263580             -0.1149610              0.0675800
      2.7162800             -0.1691180              0.3239070
      0.7722180              1.1458520              0.7408950
SP   1   1.00
      0.2120313              1.0000000              1.0000000
D    1   1.00
      1.8260000              1.0000000
D    1   1.00
      0.4565000              1.0000000
F    1   1.00
      1.0000000              1.0000000
****
O     0
S    6   1.00
   5484.6717000              0.0018311
    825.2349500              0.0139501
    188.0469600              0.0684451
     52.9645000              0.2327143
     16.8975700              0.4701930
      5.7996353              0.3585209
SP   3   1.00
     15.5396160             -0.1107775              0.0708743
      3.5999336             -0.1480263              0.3397528
      1.0137618              1.1307670              0.7271586
SP   1   1.00
      0.2700058              1.0000000              1.0000000
D    1   1.00
      2.5840000              1.0000000
D    1   1.00
      0.6460000              1.0000000
F    1   1.00
      1.4000000              1.0000000
****
F     0
S    6   1.00
   7001.7130900              0.0018196169
   1051.3660900              0.0139160796
    239.2856900              0.0684053245
     67.3974453              0.233185760
     21.5199573              0.471267439
      7.40310130             0.356618546
SP   3   1.00
     20.8479528             -0.108506975            0.0716287243
      4.80830834            -0.146451658            0.3459121030
      1.34406986             1.128688580            0.7224699570
SP   1   1.00
      0.358151393            1.0000000              1.0000000
D    1   1.00
      3.5000000              1.0000000
D    1   1.00
      0.8750000              1.0000000
F    1   1.00
      1.8500000              1.0000000
****
Al     0
S    6   1.00
  13983.1000000              0.00194267
   2098.7500000              0.0148599
    477.7050000              0.0728494
    134.3600000              0.2468300
     42.8709000              0.4872580
     14.5189000              0.3234960
SP   6   1.00
    239.6680000             -0.00292619             0.00460285
     57.4419000             -0.0374080              0.0331990
     18.2859000             -0.1144870              0.1362820
      6.5991400              0.1156350              0.3304760
      2.4904900              0.6125950              0.4491460
      0.9445400              0.3937990              0.2657040
SP   3   1.00
      1.2779000             -0.2276060             -0.0175130
      0.3975900              0.00144583             0.2445330
      0.1600950              1.0927900              0.8049340
SP   1   1.00
      0.0556577              1.0000000              1.0000000
D    1   1.00
      0.6500000              1.0000000
D    1   1.00
      0.1625000              1.0000000
F    1   1.00
      0.2500000              1.0000000
****
Si     0
S    6   1.00
  16115.9000000              0.00195948
   2425.5800000              0.01492880
    553.8670000              0.07284780
    156.3400000              0.24613000
     50.0683000              0.48591400
     17.0178000              0.32500200
SP   6   1.00
    292.7180000             -0.00278094             0.00443826
     69.8731000             -0.03571460             0.03266790
     22.3363000             -0.11498500             0.13472100
      8.1503900              0.09356340             0.32867800
      3.1345800              0.60301700             0.44964000
      1.2254300              0.41895900             0.26137200
SP   3   1.00
      1.7273800             -0.24463000            -0.01779510
      0.5729220              0.00431572             0.25353900
      0.2221920              1.09818000             0.80066900
SP   1   1.00
      0.0778369              1.00000000             1.00000000
D    1   1.00
      0.9000000              1.0000000
D    1   1.00
      0.2250000              1.0000000
F    1   1.00
      0.3200000              1.0000000
****
P     0
S    6   1.00
  19413.3000000              0.0018516
   2909.4200000              0.0142062
    661.3640000              0.0699995
    185.7590000              0.2400790
     59.1943000              0.4847620
     20.0310000              0.3352000
SP   6   1.00
    339.4780000             -0.00278217             0.00456462
     81.0101000             -0.0360499              0.03369360
     25.8780000             -0.1166310              0.13975500
      9.4522100              0.0968328              0.33936200
      3.6656600              0.6144180              0.45092100
      1.4674600              0.4037980              0.23858600
SP   3   1.00
      2.1562300             -0.2529230             -0.01776530
      0.7489970              0.0328517              0.27405800
      0.2831450              1.0812500              0.78542100
SP   1   1.00
      0.0998317              1.0000000              1.00000000
D    1   1.00
      1.1000000              1.0000000
D    1   1.00
      0.2750000              1.0000000
F    1   1.00
      0.4500000              1.0000000
****
S     0
S    6   1.00
  21917.1000000              0.0018690
   3301.4900000              0.0142300
    754.1460000              0.0696960
    212.7110000              0.2384870
     67.9896000              0.4833070
     23.0515000              0.3380740
SP   6   1.00
    423.7350000             -0.0023767              0.0040610
    100.7100000             -0.0316930              0.0306810
     32.1599000             -0.1133170              0.1304520
     11.8079000              0.0560900              0.3272050
      4.6311000              0.5922550              0.4528510
      1.8702500              0.4550060              0.2560420
SP   3   1.00
      2.6158400             -0.2503740             -0.0145110
      0.9221670              0.0669570              0.3102630
      0.3412870              1.0545100              0.7544830
SP   1   1.00
      0.1171670              1.0000000              1.0000000
D    1   1.00
      1.3000000              1.0000000
D    1   1.00
      0.3250000              1.0000000
F    1   1.00
      0.5500000              1.0000000
****
Cl     0
S    6   1.00
  25180.1000000              0.0018330
   3780.3500000              0.0140340
    860.4740000              0.0690970
    242.1450000              0.2374520
     77.3349000              0.4830340
     26.2470000              0.3398560
SP   6   1.00
    491.7650000             -0.0022974              0.0039894
    116.9840000             -0.0307140              0.0303180
     37.4153000             -0.1125280              0.1298800
     13.7834000              0.0450160              0.3279510
      5.4521500              0.5893530              0.4535270
      2.2258800              0.4652060              0.2521540
SP   3   1.00
      3.1864900             -0.2518300             -0.0142990
      1.1442700              0.0615890              0.3235720
      0.4203770              1.0601800              0.7435070
SP   1   1.00
      0.1426570              1.0000000              1.0000000
D    1   1.00
      1.5000000              1.0000000
D    1   1.00
      0.3750000              1.0000000
F    1   1.00
      0.7000000              1.0000000
****
}

set {
reference uhf
freeze_core true
e_convergence 10
d_convergence 10
dft_spherical_points 1202
dft_radial_points 99
}

e = energy('b3lyp')

print_out('Grab this energy {0}'.format(e))
--------------------------------------------------------------------------

    Molecular point group: c1

    Geometry (in Bohr), charge = 0, multiplicity = 2:

       Center              X                  Y                   Z               Mass
    ------------   -----------------  -----------------  -----------------  -----------------
         C           -0.323244552018    -0.000002490909     0.000426467144    12.000000000000
         C            0.062839995282    -1.399721798509    -2.424975393156    12.000000000000
         C            0.060945073882     2.800120033091    -0.000597515656    12.000000000000
         C            0.059290890282    -1.400393626009     2.424943534744    12.000000000000
         H            2.086817243382    -1.644449372109    -2.847646575256     1.007825032230
         H           -0.765802576618    -0.388789598909    -4.025553193656     1.007825032230
         H           -0.765829403418    -3.292048065309    -2.349309944756     1.007825032230
         H            2.086852995282     3.288601718291     0.000405288944     1.007825032230
         H           -0.765281737218     3.680694742091     1.676731001344     1.007825032230
         H           -0.765554581618     3.680781205891    -1.676059036756     1.007825032230
         H            2.087168262782    -1.644243612709     2.848101030644     1.007825032230
         H           -0.764853295018    -3.292250645309     2.349608442144     1.007825032230
         H           -0.764553489218    -0.388321586609     4.026138965344     1.007825032230

  Charge       = 0
  Multiplicity = 2
  Basis Set: ANONYMOUSCCABD114
    Blend: 6-31G_2DFP_
  Basis Set: (ANONYMOUSCCABD114 AUX)
    Blend: DEF2-UNIVERSAL-JKFIT

    Orbital Energies [Eh]
    ---------------------

    Alpha Occupied:

       1A    -10.180290     2A    -10.167103     3A    -10.167073
       4A    -10.167027     5A     -0.798023     6A     -0.686229
       7A     -0.686163     8A     -0.530942     9A     -0.441136
      10A     -0.434839    11A     -0.434638    12A     -0.382612
      13A     -0.382311    14A     -0.363411    15A     -0.338242
      16A     -0.338074    17A     -0.168982

    Alpha Virtual:

      18A      0.076065    19A      0.134064    20A      0.134131
      21A      0.142432    22A      0.142557    23A      0.154985
      24A      0.178499    25A      0.178726    26A      0.203837
      27A      0.214678    28A      0.276172    29A      0.276281
      30A      0.399064    31A      0.399379    32A      0.403256
      33A      0.423996    34A      0.424091    35A      0.456774
      36A      0.495351    37A      0.495408    38A      0.512105
      39A      0.513921    40A      0.578688    41A      0.578862
      42A      0.591414    43A      0.591652    44A      0.602529
      45A      0.624642    46A      0.631545    47A      0.636198
      48A      0.636411    49A      0.663360    50A      0.663696
      51A      0.683689    52A      0.683986    53A      0.734863
      54A      0.825414    55A      0.825442    56A      0.854052
      57A      0.914964    58A      0.915005    59A      0.944172
      60A      0.944925    61A      0.961147    62A      0.961302
      63A      1.003283    64A      1.128082    65A      1.128293
      66A      1.142637    67A      1.162566    68A      1.162754
      69A      1.223752    70A      1.274476    71A      1.274760
      72A      1.279521    73A      1.324304    74A      1.324810
      75A      1.356323    76A      1.365889    77A      1.366503
      78A      1.391959    79A      1.403212    80A      1.403457
      81A      1.416805    82A      1.417388    83A      1.427659
      84A      1.492016    85A      1.498497    86A      1.542937
      87A      1.543033    88A      1.574392    89A      1.574708
      90A      1.669043    91A      1.739513    92A      1.740321
      93A      1.768300    94A      1.830778    95A      1.831160
      96A      1.972328    97A      2.018045    98A      2.019202
      99A      2.020415   100A      2.052695   101A      2.053453
     102A      2.738620   103A      2.738699   104A      2.791148
     105A      2.811514   106A      2.889787   107A      2.890334
     108A      2.895349   109A      2.929306   110A      2.929371
     111A      2.958947   112A      2.964240   113A      2.964451
     114A      3.034182   115A      3.071110   116A      3.071349
     117A      3.084762   118A      3.168762   119A      3.169005
     120A      3.181181   121A      3.284951   122A      3.285016
     123A      3.327251   124A      3.327559   125A      3.375520
     126A      3.489940   127A      3.490558   128A      3.514164
     129A      3.525672   130A      3.568524   131A      3.568741
     132A      3.575005   133A      3.665312   134A      3.665886
     135A      3.679082   136A      3.694022   137A      3.694036
     138A      3.776813   139A      3.776909   140A      3.788823
     141A      3.913242   142A      3.913406   143A      4.035016
     144A      4.111005   145A      4.111189   146A      4.148074
     147A      4.148175   148A      4.173923   149A      4.203275
     150A      4.203687   151A      4.204038   152A      4.211204
     153A      4.315396   154A      4.316261   155A      4.358350
     156A      4.423162   157A      4.423406   158A      4.441457
     159A      4.516128   160A      4.518237   161A      4.578792
     162A      4.579203   163A      4.617909   164A      4.710731
     165A      4.774873   166A      4.775892   167A      4.838232
     168A      4.961552   169A      5.001616   170A      5.002522
     171A      5.227523   172A      5.246505   173A      5.246550
     174A      5.355399   175A      5.355934   176A      5.480569

    Beta Occupied:

       1A    -10.167861     2A    -10.167830     3A    -10.167795
       4A    -10.166478     5A     -0.781333     6A     -0.684026
       7A     -0.683960     8A     -0.511959     9A     -0.431197
      10A     -0.430986    11A     -0.421788    12A     -0.376689
      13A     -0.376371    14A     -0.362390    15A     -0.333382
      16A     -0.333210

    Beta Virtual:

      17A     -0.025912    18A      0.077077    19A      0.134971
      20A      0.135021    21A      0.144309    22A      0.144425
      23A      0.163486    24A      0.182184    25A      0.182415
      26A      0.214910    27A      0.219170    28A      0.282503
      29A      0.282607    30A      0.400239    31A      0.400558
      32A      0.419708    33A      0.426806    34A      0.426907
      35A      0.468758    36A      0.497623    37A      0.497672
      38A      0.513849    39A      0.556235    40A      0.584242
      41A      0.584406    42A      0.597579    43A      0.597827
      44A      0.609947    45A      0.628053    46A      0.631705
      47A      0.639500    48A      0.639715    49A      0.666941
      50A      0.667246    51A      0.686332    52A      0.686634
      53A      0.757309    54A      0.830601    55A      0.830623
      56A      0.855418    57A      0.922934    58A      0.922973
      59A      0.946016    60A      0.953867    61A      0.966455
      62A      0.966624    63A      1.008514    64A      1.132064
      65A      1.132352    66A      1.156055    67A      1.167677
      68A      1.167768    69A      1.232666    70A      1.280102
      71A      1.280395    72A      1.285250    73A      1.329305
      74A      1.329831    75A      1.365749    76A      1.371069
      77A      1.371684    78A      1.393026    79A      1.406699
      80A      1.406968    81A      1.421872    82A      1.422425
      83A      1.427915    84A      1.493077    85A      1.508962
      86A      1.547393    87A      1.547437    88A      1.582299
      89A      1.582507    90A      1.673884    91A      1.745280
      92A      1.746073    93A      1.779120    94A      1.834658
      95A      1.835040    96A      1.973195    97A      2.025617
      98A      2.026882    99A      2.039473   100A      2.059396
     101A      2.060101   102A      2.746929   103A      2.746999
     104A      2.811924   105A      2.816250   106A      2.902445
     107A      2.902974   108A      2.925097   109A      2.931817
     110A      2.931877   111A      2.960006   112A      2.968820
     113A      2.969022   114A      3.042160   115A      3.081066
     116A      3.081292   117A      3.086595   118A      3.184440
     119A      3.184640   120A      3.188836   121A      3.289807
     122A      3.289854   123A      3.331036   124A      3.331371
     125A      3.383371   126A      3.492679   127A      3.493296
     128A      3.512525   129A      3.528681   130A      3.574867
     131A      3.581856   132A      3.581949   133A      3.669939
     134A      3.670406   135A      3.692376   136A      3.725616
     137A      3.725920   138A      3.781412   139A      3.781485
     140A      3.817315   141A      3.923004   142A      3.923200
     143A      4.045824   144A      4.117969   145A      4.118047
     146A      4.155185   147A      4.155376   148A      4.188039
     149A      4.209478   150A      4.209826   151A      4.211578
     152A      4.215693   153A      4.322719   154A      4.323632
     155A      4.361736   156A      4.431455   157A      4.431676
     158A      4.444340   159A      4.523986   160A      4.526085
     161A      4.589428   162A      4.589808   163A      4.625121
     164A      4.721079   165A      4.781843   166A      4.782824
     167A      4.841147   168A      4.966369   169A      5.005696
     170A      5.006566   171A      5.233256   172A      5.248299
     173A      5.248345   174A      5.361909   175A      5.362442
     176A      5.482898

    Final Occupation by Irrep:
              A
    DOCC [    16 ]
    SOCC [     1 ]

  @DF-UKS Final Energy:  -157.81309212142034

   => Energetics <=

    Nuclear Repulsion Energy =            125.4225570727314931
    One-Electron Energy =                -458.8038782773425055
    Two-Electron Energy =                 195.8752555492785916
    DFT Exchange-Correlation Energy =     -20.3070264660879012
    Empirical Dispersion Energy =           0.0000000000000000
    VV10 Nonlocal Energy =                  0.0000000000000000
    Total Energy =                       -157.8130921214203397

  UHF NO Occupations:
  HONO-2 :   15  A 1.9995992
  HONO-1 :   16  A 1.9989827
  HONO-0 :   17  A 1.0000000
  LUNO+0 :   18  A 0.0010173
  LUNO+1 :   19  A 0.0004008
  LUNO+2 :   20  A 0.0001969
  LUNO+3 :   21  A 0.0001967

Computation Completed

Properties will be evaluated at   0.000000,   0.000000,   0.000000 [a0]

Properties computed using the SCF density matrix

  Nuclear Dipole Moment: [e a0]
     X:     0.8280      Y:    -0.0000      Z:     0.0012

  Electronic Dipole Moment: [e a0]
     X:    -0.7502      Y:     0.0000      Z:    -0.0011

  Dipole Moment: [e a0]
     X:     0.0778      Y:     0.0000      Z:     0.0001     Total:     0.0778

  Dipole Moment: [D]
     X:     0.1977      Y:     0.0000      Z:     0.0003     Total:     0.1977

*** tstop() called on n091 at Fri Nov  5 12:15:22 2021
Module time:
	user time   =     494.01 seconds =       8.23 minutes
	system time =       4.54 seconds =       0.08 minutes
	total time  =        125 seconds =       2.08 minutes
Total time:
	user time   =     494.01 seconds =       8.23 minutes
	system time =       4.54 seconds =       0.08 minutes
	total time  =        125 seconds =       2.08 minutes
Grab this energy -157.81309212142034
    Psi4 stopped on: Friday, 05 November 2021 12:15PM
    Psi4 wall time for execution: 0:02:05.36

*** Psi4 exiting successfully. Buy a developer a beer!
