                               Psi4 1.4a2.dev629

  ==> Input File <==

--------------------------------------------------------------------------
import os
memory 14 GB

molecule {
 C   -0.3251193354    0.0002218858    0.0000000000
 C    0.0606684615   -1.4012112856   -2.4277946595
 C    0.0602914423    2.7997471888    0.0000000000
 C    0.0606684615   -1.4012112856    2.4277946595
 H    2.0872924988   -1.6410481418   -2.8418404523
 H   -0.7651084589   -0.3901655675   -4.0277182387
 H   -0.7651629466   -3.2930950882   -2.3516906610
 H    2.0870367652    3.2827564490   -0.0000000000
 H   -0.7650979291    3.6841451645    1.6757793686
 H   -0.7650979291    3.6841451645   -1.6757793686
 H    2.0872924988   -1.6410481418    2.8418404523
 H   -0.7651629466   -3.2930950882    2.3516906610
 H   -0.7651084589   -0.3901655675    4.0277182387
units bohr
0 2
}

basis {

assign 6-31g_2dfp_

[ 6-31g_2dfp_ ]

spherical

!----------------------------------------------------------------------
! Basis Set Exchange
! Version v0.8.13
! https://www.basissetexchange.org
!----------------------------------------------------------------------
!   Basis set: 6-31G(2df,p)
! Description: 6-31G(2df,p)
!        Role: orbital
!     Version: 0  (Data from the original Basis Set Exchange)
!----------------------------------------------------------------------

****
H     0
S    3   1.00
     18.7311370              0.03349460
      2.8253937              0.23472695
      0.6401217              0.81375733
S    1   1.00
      0.1612778              1.00000000
P    1   1.00
      1.5000000              1.0000000
P    1   1.00
      0.3750000              1.0000000
****
B     0
S    6   1.00
   2068.8823000              0.0018663
    310.6495700              0.0142515
     70.6830330              0.0695516
     19.8610800              0.2325729
      6.2993048              0.4670787
      2.1270270              0.3634314
SP   3   1.00
      4.7279710             -0.1303938              0.0745976
      1.1903377             -0.1307889              0.3078467
      0.3594117              1.1309444              0.7434568
SP   1   1.00
      0.1267512              1.0000000              1.0000000
D    1   1.00
      0.8020000              1.0000000
D    1   1.00
      0.2005000              1.0000000
F    1   1.00
      0.5000000              1.0000000
****
C     0
S    6   1.00
   3047.5249000              0.0018347
    457.3695100              0.0140373
    103.9486900              0.0688426
     29.2101550              0.2321844
      9.2866630              0.4679413
      3.1639270              0.3623120
SP   3   1.00
      7.8682724             -0.1193324              0.0689991
      1.8812885             -0.1608542              0.3164240
      0.5442493              1.1434564              0.7443083
SP   1   1.00
      0.1687144              1.0000000              1.0000000
D    1   1.00
      1.2520000              1.0000000
D    1   1.00
      0.3130000              1.0000000
F    1   1.00
      0.8000000              1.0000000
****
N     0
S    6   1.00
   4173.5110000              0.0018348
    627.4579000              0.0139950
    142.9021000              0.0685870
     40.2343300              0.2322410
     12.8202100              0.4690700
      4.3904370              0.3604550
SP   3   1.00
     11.6263580             -0.1149610              0.0675800
      2.7162800             -0.1691180              0.3239070
      0.7722180              1.1458520              0.7408950
SP   1   1.00
      0.2120313              1.0000000              1.0000000
D    1   1.00
      1.8260000              1.0000000
D    1   1.00
      0.4565000              1.0000000
F    1   1.00
      1.0000000              1.0000000
****
O     0
S    6   1.00
   5484.6717000              0.0018311
    825.2349500              0.0139501
    188.0469600              0.0684451
     52.9645000              0.2327143
     16.8975700              0.4701930
      5.7996353              0.3585209
SP   3   1.00
     15.5396160             -0.1107775              0.0708743
      3.5999336             -0.1480263              0.3397528
      1.0137618              1.1307670              0.7271586
SP   1   1.00
      0.2700058              1.0000000              1.0000000
D    1   1.00
      2.5840000              1.0000000
D    1   1.00
      0.6460000              1.0000000
F    1   1.00
      1.4000000              1.0000000
****
F     0
S    6   1.00
   7001.7130900              0.0018196169
   1051.3660900              0.0139160796
    239.2856900              0.0684053245
     67.3974453              0.233185760
     21.5199573              0.471267439
      7.40310130             0.356618546
SP   3   1.00
     20.8479528             -0.108506975            0.0716287243
      4.80830834            -0.146451658            0.3459121030
      1.34406986             1.128688580            0.7224699570
SP   1   1.00
      0.358151393            1.0000000              1.0000000
D    1   1.00
      3.5000000              1.0000000
D    1   1.00
      0.8750000              1.0000000
F    1   1.00
      1.8500000              1.0000000
****
Al     0
S    6   1.00
  13983.1000000              0.00194267
   2098.7500000              0.0148599
    477.7050000              0.0728494
    134.3600000              0.2468300
     42.8709000              0.4872580
     14.5189000              0.3234960
SP   6   1.00
    239.6680000             -0.00292619             0.00460285
     57.4419000             -0.0374080              0.0331990
     18.2859000             -0.1144870              0.1362820
      6.5991400              0.1156350              0.3304760
      2.4904900              0.6125950              0.4491460
      0.9445400              0.3937990              0.2657040
SP   3   1.00
      1.2779000             -0.2276060             -0.0175130
      0.3975900              0.00144583             0.2445330
      0.1600950              1.0927900              0.8049340
SP   1   1.00
      0.0556577              1.0000000              1.0000000
D    1   1.00
      0.6500000              1.0000000
D    1   1.00
      0.1625000              1.0000000
F    1   1.00
      0.2500000              1.0000000
****
Si     0
S    6   1.00
  16115.9000000              0.00195948
   2425.5800000              0.01492880
    553.8670000              0.07284780
    156.3400000              0.24613000
     50.0683000              0.48591400
     17.0178000              0.32500200
SP   6   1.00
    292.7180000             -0.00278094             0.00443826
     69.8731000             -0.03571460             0.03266790
     22.3363000             -0.11498500             0.13472100
      8.1503900              0.09356340             0.32867800
      3.1345800              0.60301700             0.44964000
      1.2254300              0.41895900             0.26137200
SP   3   1.00
      1.7273800             -0.24463000            -0.01779510
      0.5729220              0.00431572             0.25353900
      0.2221920              1.09818000             0.80066900
SP   1   1.00
      0.0778369              1.00000000             1.00000000
D    1   1.00
      0.9000000              1.0000000
D    1   1.00
      0.2250000              1.0000000
F    1   1.00
      0.3200000              1.0000000
****
P     0
S    6   1.00
  19413.3000000              0.0018516
   2909.4200000              0.0142062
    661.3640000              0.0699995
    185.7590000              0.2400790
     59.1943000              0.4847620
     20.0310000              0.3352000
SP   6   1.00
    339.4780000             -0.00278217             0.00456462
     81.0101000             -0.0360499              0.03369360
     25.8780000             -0.1166310              0.13975500
      9.4522100              0.0968328              0.33936200
      3.6656600              0.6144180              0.45092100
      1.4674600              0.4037980              0.23858600
SP   3   1.00
      2.1562300             -0.2529230             -0.01776530
      0.7489970              0.0328517              0.27405800
      0.2831450              1.0812500              0.78542100
SP   1   1.00
      0.0998317              1.0000000              1.00000000
D    1   1.00
      1.1000000              1.0000000
D    1   1.00
      0.2750000              1.0000000
F    1   1.00
      0.4500000              1.0000000
****
S     0
S    6   1.00
  21917.1000000              0.0018690
   3301.4900000              0.0142300
    754.1460000              0.0696960
    212.7110000              0.2384870
     67.9896000              0.4833070
     23.0515000              0.3380740
SP   6   1.00
    423.7350000             -0.0023767              0.0040610
    100.7100000             -0.0316930              0.0306810
     32.1599000             -0.1133170              0.1304520
     11.8079000              0.0560900              0.3272050
      4.6311000              0.5922550              0.4528510
      1.8702500              0.4550060              0.2560420
SP   3   1.00
      2.6158400             -0.2503740             -0.0145110
      0.9221670              0.0669570              0.3102630
      0.3412870              1.0545100              0.7544830
SP   1   1.00
      0.1171670              1.0000000              1.0000000
D    1   1.00
      1.3000000              1.0000000
D    1   1.00
      0.3250000              1.0000000
F    1   1.00
      0.5500000              1.0000000
****
Cl     0
S    6   1.00
  25180.1000000              0.0018330
   3780.3500000              0.0140340
    860.4740000              0.0690970
    242.1450000              0.2374520
     77.3349000              0.4830340
     26.2470000              0.3398560
SP   6   1.00
    491.7650000             -0.0022974              0.0039894
    116.9840000             -0.0307140              0.0303180
     37.4153000             -0.1125280              0.1298800
     13.7834000              0.0450160              0.3279510
      5.4521500              0.5893530              0.4535270
      2.2258800              0.4652060              0.2521540
SP   3   1.00
      3.1864900             -0.2518300             -0.0142990
      1.1442700              0.0615890              0.3235720
      0.4203770              1.0601800              0.7435070
SP   1   1.00
      0.1426570              1.0000000              1.0000000
D    1   1.00
      1.5000000              1.0000000
D    1   1.00
      0.3750000              1.0000000
F    1   1.00
      0.7000000              1.0000000
****
}

set {
reference uhf
freeze_core true
e_convergence 10
d_convergence 10
dft_spherical_points 1202
dft_radial_points 99
}

e = energy('b3lyp')

print_out('Grab this energy {0}'.format(e))
--------------------------------------------------------------------------

    Molecular point group: cs

    Geometry (in Bohr), charge = 0, multiplicity = 2:

       Center              X                  Y                   Z               Mass
    ------------   -----------------  -----------------  -----------------  -----------------
         C           -0.324454650787     0.000694876278     0.000000000000    12.000000000000
         C            0.061333146113    -1.400738295122    -2.427794659500    12.000000000000
         C            0.060956126913     2.800220179278     0.000000000000    12.000000000000
         C            0.061333146113    -1.400738295122     2.427794659500    12.000000000000
         H            2.087957183413    -1.640575151322    -2.841840452300     1.007825032230
         H           -0.764443774287    -0.389692577022    -4.027718238700     1.007825032230
         H           -0.764498261987    -3.292622097722    -2.351690661000     1.007825032230
         H            2.087701449813     3.283229439478     0.000000000000     1.007825032230
         H           -0.764433244487     3.684618154978     1.675779368600     1.007825032230
         H           -0.764433244487     3.684618154978    -1.675779368600     1.007825032230
         H            2.087957183413    -1.640575151322     2.841840452300     1.007825032230
         H           -0.764498261987    -3.292622097722     2.351690661000     1.007825032230
         H           -0.764443774287    -0.389692577022     4.027718238700     1.007825032230

  Charge       = 0
  Multiplicity = 2
  Basis Set: ANONYMOUSA350F83D
    Blend: 6-31G_2DFP_
  Basis Set: (ANONYMOUSA350F83D AUX)
    Blend: DEF2-UNIVERSAL-JKFIT

    Orbital Energies [Eh]
    ---------------------

    Alpha Occupied:

       1Ap   -10.180355     2Ap   -10.167109     1App  -10.167056
       3Ap   -10.167020     4Ap    -0.797702     2App   -0.686172
       5Ap    -0.686126     6Ap    -0.530765     7Ap    -0.441293
       8Ap    -0.434542     3App   -0.434378     4App   -0.382842
       9Ap    -0.382662     5App   -0.363474    10Ap    -0.338184
       6App   -0.337766    11Ap    -0.168871

    Alpha Virtual:

      12Ap     0.076037    13Ap     0.134187     7App    0.134222
       8App    0.142496    14Ap     0.142623    15Ap     0.154674
      16Ap     0.178733     9App    0.178898    17Ap     0.203413
      10App    0.214581    11App    0.275721    18Ap     0.276173
      12App    0.398995    19Ap     0.399008    20Ap     0.403420
      13App    0.424206    21Ap     0.424293    22Ap     0.456358
      14App    0.495390    23Ap     0.495434    15App    0.512350
      24Ap     0.513925    16App    0.578614    25Ap     0.578689
      26Ap     0.591770    17App    0.591903    27Ap     0.602804
      28Ap     0.624700    18App    0.631521    19App    0.635990
      29Ap     0.636322    20App    0.663075    30Ap     0.663196
      31Ap     0.683915    21App    0.683958    32Ap     0.734909
      33Ap     0.825453    22App    0.825560    23App    0.853575
      24App    0.914867    34Ap     0.914901    25App    0.943905
      35Ap     0.945409    36Ap     0.961546    26App    0.961595
      37Ap     1.002723    27App    1.127591    38Ap     1.127720
      39Ap     1.142814    28App    1.162436    40Ap     1.163001
      41Ap     1.223406    29App    1.274210    42Ap     1.274798
      43Ap     1.279160    30App    1.324009    44Ap     1.324146
      45Ap     1.356406    31App    1.365586    46Ap     1.365889
      32App    1.392637    47Ap     1.404150    33App    1.404481
      34App    1.417116    48Ap     1.417409    35App    1.427308
      36App    1.490893    49Ap     1.499394    37App    1.542689
      50Ap     1.542838    38App    1.574878    51Ap     1.575261
      52Ap     1.669758    53Ap     1.739416    39App    1.739700
      54Ap     1.768464    55Ap     1.830616    40App    1.831621
      41App    1.971633    42App    2.017671    56Ap     2.018385
      57Ap     2.018858    43App    2.051482    58Ap     2.052851
      59Ap     2.738783    44App    2.739024    60Ap     2.790698
      45App    2.810911    46App    2.889722    61Ap     2.889856
      62Ap     2.894699    47App    2.928981    63Ap     2.929097
      48App    2.958933    49App    2.964253    64Ap     2.964396
      65Ap     3.033529    66Ap     3.071632    50App    3.071886
      51App    3.084710    52App    3.168665    67Ap     3.169014
      68Ap     3.180449    53App    3.285708    69Ap     3.285729
      54App    3.325870    70Ap     3.326233    71Ap     3.375900
      55App    3.490299    72Ap     3.490993    56App    3.513738
      73Ap     3.525156    57App    3.567766    74Ap     3.567945
      58App    3.574332    75Ap     3.665718    59App    3.667131
      76Ap     3.678572    77Ap     3.694536    60App    3.694759
      61App    3.775473    78Ap     3.775817    79Ap     3.790435
      62App    3.911386    80Ap     3.912873    81Ap     4.035571
      63App    4.111082    82Ap     4.111417    64App    4.148071
      83Ap     4.148638    84Ap     4.173303    65App    4.201868
      85Ap     4.202402    86Ap     4.203322    66App    4.210362
      67App    4.314923    87Ap     4.316378    68App    4.357799
      69App    4.423933    88Ap     4.425898    70App    4.442541
      71App    4.515364    89Ap     4.516662    72App    4.577292
      90Ap     4.577324    91Ap     4.616999    92Ap     4.709168
      93Ap     4.773899    73App    4.774502    74App    4.837937
      94Ap     4.962310    95Ap     5.002394    75App    5.003777
      96Ap     5.227688    76App    5.246667    97Ap     5.247067
      77App    5.354868    98Ap     5.354985    78App    5.479082

    Beta Occupied:

       1Ap   -10.167867     1App  -10.167806     2Ap   -10.167787
       3Ap   -10.166527     4Ap    -0.781024     2App   -0.683982
       5Ap    -0.683925     6Ap    -0.511740     7Ap    -0.430923
       3App   -0.430756     8Ap    -0.421985     4App   -0.376957
       9Ap    -0.376737     5App   -0.362464    10Ap    -0.333304
       6App   -0.332885

    Beta Virtual:

      11Ap    -0.025577    12Ap     0.077049     7App    0.135076
      13Ap     0.135083     8App    0.144373    14Ap     0.144466
      15Ap     0.163084    16Ap     0.182424     9App    0.182564
      10App    0.214809    17Ap     0.218835    11App    0.282088
      18Ap     0.282524    12App    0.400162    19Ap     0.400170
      20Ap     0.419844    13App    0.427022    21Ap     0.427111
      22Ap     0.468188    14App    0.497630    23Ap     0.497687
      15App    0.514079    24Ap     0.556354    16App    0.584140
      25Ap     0.584225    26Ap     0.597975    17App    0.598106
      27Ap     0.610209    28Ap     0.628072    18App    0.631673
      19App    0.639286    29Ap     0.639611    20App    0.666609
      30Ap     0.666742    31Ap     0.686581    21App    0.686600
      32Ap     0.757469    33Ap     0.830600    22App    0.830718
      23App    0.854925    24App    0.922789    34Ap     0.922829
      25App    0.945741    35Ap     0.954255    36Ap     0.966882
      26App    0.966925    37Ap     1.007934    27App    1.131621
      38Ap     1.131747    39Ap     1.156405    28App    1.167498
      40Ap     1.168103    41Ap     1.232274    29App    1.279786
      42Ap     1.280379    43Ap     1.284848    30App    1.328975
      44Ap     1.329083    45Ap     1.365882    31App    1.370863
      46Ap     1.371111    32App    1.393680    47Ap     1.407652
      33App    1.407879    34App    1.422229    48Ap     1.422495
      35App    1.427580    36App    1.491952    49Ap     1.509861
      37App    1.547096    50Ap     1.547257    38App    1.582732
      51Ap     1.583130    52Ap     1.674602    53Ap     1.745172
      39App    1.745463    54Ap     1.779231    55Ap     1.834483
      40App    1.835468    41App    1.972485    42App    2.024037
      56Ap     2.025119    57Ap     2.039857    43App    2.058210
      58Ap     2.059588    59Ap     2.747130    44App    2.747326
      45App    2.811318    60Ap     2.815830    46App    2.902499
      61Ap     2.902596    62Ap     2.924411    47App    2.931461
      63Ap     2.931551    48App    2.959993    49App    2.968745
      64Ap     2.968917    65Ap     3.041473    66Ap     3.081560
      50App    3.081801    51App    3.086529    52App    3.184413
      67Ap     3.184730    68Ap     3.188166    69Ap     3.290523
      53App    3.290557    54App    3.329705    70Ap     3.330054
      71Ap     3.383746    55App    3.492939    72Ap     3.493679
      56App    3.512096    73Ap     3.528239    57App    3.574200
      58App    3.581148    74Ap     3.581361    75Ap     3.670535
      59App    3.672004    76Ap     3.691922    77Ap     3.725993
      60App    3.726240    61App    3.779892    78Ap     3.780320
      79Ap     3.818957    62App    3.921300    80Ap     3.922686
      81Ap     4.046405    63App    4.117706    82Ap     4.118245
      64App    4.155453    83Ap     4.155830    84Ap     4.187396
      65App    4.207828    85Ap     4.208583    86Ap     4.211048
      66App    4.214804    67App    4.322319    87Ap     4.323831
      68App    4.361139    69App    4.432142    88Ap     4.434077
      70App    4.445477    71App    4.523171    89Ap     4.524461
      72App    4.587857    90Ap     4.587919    91Ap     4.624270
      92Ap     4.719407    93Ap     4.780886    73App    4.781448
      74App    4.840852    94Ap     4.967108    95Ap     5.006432
      75App    5.007785    96Ap     5.233418    76App    5.248454
      97Ap     5.248840    77App    5.361326    98Ap     5.361485
      78App    5.481399

    Final Occupation by Irrep:
             Ap   App
    DOCC [    10,    6 ]
    SOCC [     1,    0 ]

  @DF-UKS Final Energy:  -157.81306082138778

   => Energetics <=

    Nuclear Repulsion Energy =            125.3830211260351604
    One-Electron Energy =                -458.7262487640266500
    Two-Electron Energy =                 195.8369641867082294
    DFT Exchange-Correlation Energy =     -20.3067973701045119
    Empirical Dispersion Energy =           0.0000000000000000
    VV10 Nonlocal Energy =                  0.0000000000000000
    Total Energy =                       -157.8130608213877792

  UHF NO Occupations:
  HONO-2 :    9 Ap 1.9996022
  HONO-1 :   10 Ap 1.9989785
  HONO-0 :   11 Ap 1.0000000
  LUNO+0 :   12 Ap 0.0010215
  LUNO+1 :   13 Ap 0.0003978
  LUNO+2 :    7App 0.0001982
  LUNO+3 :   14 Ap 0.0001975

Computation Completed

Properties will be evaluated at   0.000000,   0.000000,   0.000000 [a0]

Properties computed using the SCF density matrix

  Nuclear Dipole Moment: [e a0]
     X:     0.8319      Y:     0.0033      Z:    -0.0000

  Electronic Dipole Moment: [e a0]
     X:    -0.7535      Y:    -0.0034      Z:     0.0000

  Dipole Moment: [e a0]
     X:     0.0783      Y:    -0.0001      Z:    -0.0000     Total:     0.0783

  Dipole Moment: [D]
     X:     0.1991      Y:    -0.0002      Z:    -0.0000     Total:     0.1991

*** tstop() called on n080 at Fri Nov  5 13:03:07 2021
Module time:
	user time   =     494.23 seconds =       8.24 minutes
	system time =       4.57 seconds =       0.08 minutes
	total time  =        125 seconds =       2.08 minutes
Total time:
	user time   =     494.23 seconds =       8.24 minutes
	system time =       4.57 seconds =       0.08 minutes
	total time  =        125 seconds =       2.08 minutes
Grab this energy -157.81306082138778
    Psi4 stopped on: Friday, 05 November 2021 01:03PM
    Psi4 wall time for execution: 0:02:05.44

*** Psi4 exiting successfully. Buy a developer a beer!
