                               Psi4 1.4a2.dev629

  ==> Input File <==

--------------------------------------------------------------------------
import os
memory 14 GB

molecule {
 C   -0.3233395741    0.0009242021   -0.0000000000
 C    0.0609378901   -1.3996184426   -2.4266746350
 C    0.0614270970    2.8025101244   -0.0000000000
 C    0.0609378901   -1.3996184426    2.4266746350
 H    2.0894855791   -1.6413681826   -2.8487234957
 H   -0.7639701928   -0.3884684261   -4.0243249872
 H   -0.7695305014   -3.2961631791   -2.3483655672
 H    2.0817062263    3.2886074462   -0.0000000000
 H   -0.7631235880    3.6795851871    1.6733744601
 H   -0.7631235880    3.6795851871   -1.6733744601
 H    2.0894855791   -1.6413681826    2.8487234957
 H   -0.7695305014   -3.2961631791    2.3483655672
 H   -0.7639701928   -0.3884684261    4.0243249872
units bohr
0 2
}

basis {

assign 6-31g_2dfp_

[ 6-31g_2dfp_ ]

spherical

!----------------------------------------------------------------------
! Basis Set Exchange
! Version v0.8.13
! https://www.basissetexchange.org
!----------------------------------------------------------------------
!   Basis set: 6-31G(2df,p)
! Description: 6-31G(2df,p)
!        Role: orbital
!     Version: 0  (Data from the original Basis Set Exchange)
!----------------------------------------------------------------------

****
H     0
S    3   1.00
     18.7311370              0.03349460
      2.8253937              0.23472695
      0.6401217              0.81375733
S    1   1.00
      0.1612778              1.00000000
P    1   1.00
      1.5000000              1.0000000
P    1   1.00
      0.3750000              1.0000000
****
B     0
S    6   1.00
   2068.8823000              0.0018663
    310.6495700              0.0142515
     70.6830330              0.0695516
     19.8610800              0.2325729
      6.2993048              0.4670787
      2.1270270              0.3634314
SP   3   1.00
      4.7279710             -0.1303938              0.0745976
      1.1903377             -0.1307889              0.3078467
      0.3594117              1.1309444              0.7434568
SP   1   1.00
      0.1267512              1.0000000              1.0000000
D    1   1.00
      0.8020000              1.0000000
D    1   1.00
      0.2005000              1.0000000
F    1   1.00
      0.5000000              1.0000000
****
C     0
S    6   1.00
   3047.5249000              0.0018347
    457.3695100              0.0140373
    103.9486900              0.0688426
     29.2101550              0.2321844
      9.2866630              0.4679413
      3.1639270              0.3623120
SP   3   1.00
      7.8682724             -0.1193324              0.0689991
      1.8812885             -0.1608542              0.3164240
      0.5442493              1.1434564              0.7443083
SP   1   1.00
      0.1687144              1.0000000              1.0000000
D    1   1.00
      1.2520000              1.0000000
D    1   1.00
      0.3130000              1.0000000
F    1   1.00
      0.8000000              1.0000000
****
N     0
S    6   1.00
   4173.5110000              0.0018348
    627.4579000              0.0139950
    142.9021000              0.0685870
     40.2343300              0.2322410
     12.8202100              0.4690700
      4.3904370              0.3604550
SP   3   1.00
     11.6263580             -0.1149610              0.0675800
      2.7162800             -0.1691180              0.3239070
      0.7722180              1.1458520              0.7408950
SP   1   1.00
      0.2120313              1.0000000              1.0000000
D    1   1.00
      1.8260000              1.0000000
D    1   1.00
      0.4565000              1.0000000
F    1   1.00
      1.0000000              1.0000000
****
O     0
S    6   1.00
   5484.6717000              0.0018311
    825.2349500              0.0139501
    188.0469600              0.0684451
     52.9645000              0.2327143
     16.8975700              0.4701930
      5.7996353              0.3585209
SP   3   1.00
     15.5396160             -0.1107775              0.0708743
      3.5999336             -0.1480263              0.3397528
      1.0137618              1.1307670              0.7271586
SP   1   1.00
      0.2700058              1.0000000              1.0000000
D    1   1.00
      2.5840000              1.0000000
D    1   1.00
      0.6460000              1.0000000
F    1   1.00
      1.4000000              1.0000000
****
F     0
S    6   1.00
   7001.7130900              0.0018196169
   1051.3660900              0.0139160796
    239.2856900              0.0684053245
     67.3974453              0.233185760
     21.5199573              0.471267439
      7.40310130             0.356618546
SP   3   1.00
     20.8479528             -0.108506975            0.0716287243
      4.80830834            -0.146451658            0.3459121030
      1.34406986             1.128688580            0.7224699570
SP   1   1.00
      0.358151393            1.0000000              1.0000000
D    1   1.00
      3.5000000              1.0000000
D    1   1.00
      0.8750000              1.0000000
F    1   1.00
      1.8500000              1.0000000
****
Al     0
S    6   1.00
  13983.1000000              0.00194267
   2098.7500000              0.0148599
    477.7050000              0.0728494
    134.3600000              0.2468300
     42.8709000              0.4872580
     14.5189000              0.3234960
SP   6   1.00
    239.6680000             -0.00292619             0.00460285
     57.4419000             -0.0374080              0.0331990
     18.2859000             -0.1144870              0.1362820
      6.5991400              0.1156350              0.3304760
      2.4904900              0.6125950              0.4491460
      0.9445400              0.3937990              0.2657040
SP   3   1.00
      1.2779000             -0.2276060             -0.0175130
      0.3975900              0.00144583             0.2445330
      0.1600950              1.0927900              0.8049340
SP   1   1.00
      0.0556577              1.0000000              1.0000000
D    1   1.00
      0.6500000              1.0000000
D    1   1.00
      0.1625000              1.0000000
F    1   1.00
      0.2500000              1.0000000
****
Si     0
S    6   1.00
  16115.9000000              0.00195948
   2425.5800000              0.01492880
    553.8670000              0.07284780
    156.3400000              0.24613000
     50.0683000              0.48591400
     17.0178000              0.32500200
SP   6   1.00
    292.7180000             -0.00278094             0.00443826
     69.8731000             -0.03571460             0.03266790
     22.3363000             -0.11498500             0.13472100
      8.1503900              0.09356340             0.32867800
      3.1345800              0.60301700             0.44964000
      1.2254300              0.41895900             0.26137200
SP   3   1.00
      1.7273800             -0.24463000            -0.01779510
      0.5729220              0.00431572             0.25353900
      0.2221920              1.09818000             0.80066900
SP   1   1.00
      0.0778369              1.00000000             1.00000000
D    1   1.00
      0.9000000              1.0000000
D    1   1.00
      0.2250000              1.0000000
F    1   1.00
      0.3200000              1.0000000
****
P     0
S    6   1.00
  19413.3000000              0.0018516
   2909.4200000              0.0142062
    661.3640000              0.0699995
    185.7590000              0.2400790
     59.1943000              0.4847620
     20.0310000              0.3352000
SP   6   1.00
    339.4780000             -0.00278217             0.00456462
     81.0101000             -0.0360499              0.03369360
     25.8780000             -0.1166310              0.13975500
      9.4522100              0.0968328              0.33936200
      3.6656600              0.6144180              0.45092100
      1.4674600              0.4037980              0.23858600
SP   3   1.00
      2.1562300             -0.2529230             -0.01776530
      0.7489970              0.0328517              0.27405800
      0.2831450              1.0812500              0.78542100
SP   1   1.00
      0.0998317              1.0000000              1.00000000
D    1   1.00
      1.1000000              1.0000000
D    1   1.00
      0.2750000              1.0000000
F    1   1.00
      0.4500000              1.0000000
****
S     0
S    6   1.00
  21917.1000000              0.0018690
   3301.4900000              0.0142300
    754.1460000              0.0696960
    212.7110000              0.2384870
     67.9896000              0.4833070
     23.0515000              0.3380740
SP   6   1.00
    423.7350000             -0.0023767              0.0040610
    100.7100000             -0.0316930              0.0306810
     32.1599000             -0.1133170              0.1304520
     11.8079000              0.0560900              0.3272050
      4.6311000              0.5922550              0.4528510
      1.8702500              0.4550060              0.2560420
SP   3   1.00
      2.6158400             -0.2503740             -0.0145110
      0.9221670              0.0669570              0.3102630
      0.3412870              1.0545100              0.7544830
SP   1   1.00
      0.1171670              1.0000000              1.0000000
D    1   1.00
      1.3000000              1.0000000
D    1   1.00
      0.3250000              1.0000000
F    1   1.00
      0.5500000              1.0000000
****
Cl     0
S    6   1.00
  25180.1000000              0.0018330
   3780.3500000              0.0140340
    860.4740000              0.0690970
    242.1450000              0.2374520
     77.3349000              0.4830340
     26.2470000              0.3398560
SP   6   1.00
    491.7650000             -0.0022974              0.0039894
    116.9840000             -0.0307140              0.0303180
     37.4153000             -0.1125280              0.1298800
     13.7834000              0.0450160              0.3279510
      5.4521500              0.5893530              0.4535270
      2.2258800              0.4652060              0.2521540
SP   3   1.00
      3.1864900             -0.2518300             -0.0142990
      1.1442700              0.0615890              0.3235720
      0.4203770              1.0601800              0.7435070
SP   1   1.00
      0.1426570              1.0000000              1.0000000
D    1   1.00
      1.5000000              1.0000000
D    1   1.00
      0.3750000              1.0000000
F    1   1.00
      0.7000000              1.0000000
****
}

set {
reference uhf
freeze_core true
e_convergence 10
d_convergence 10
dft_spherical_points 1202
dft_radial_points 99
}

e = energy('b3lyp')

print_out('Grab this energy {0}'.format(e))
--------------------------------------------------------------------------

    Molecular point group: cs

    Geometry (in Bohr), charge = 0, multiplicity = 2:

       Center              X                  Y                   Z               Mass
    ------------   -----------------  -----------------  -----------------  -----------------
         C           -0.323340207380     0.000116174040     0.000000000000    12.000000000000
         C            0.060937256820    -1.400426470660    -2.426674635000    12.000000000000
         C            0.061426463720     2.801702096340     0.000000000000    12.000000000000
         C            0.060937256820    -1.400426470660     2.426674635000    12.000000000000
         H            2.089484945820    -1.642176210660    -2.848723495700     1.007825032230
         H           -0.763970826080    -0.389276454160    -4.024324987200     1.007825032230
         H           -0.769531134680    -3.296971207160    -2.348365567200     1.007825032230
         H            2.081705593020     3.287799418140     0.000000000000     1.007825032230
         H           -0.763124221280     3.678777159040     1.673374460100     1.007825032230
         H           -0.763124221280     3.678777159040    -1.673374460100     1.007825032230
         H            2.089484945820    -1.642176210660     2.848723495700     1.007825032230
         H           -0.769531134680    -3.296971207160     2.348365567200     1.007825032230
         H           -0.763970826080    -0.389276454160     4.024324987200     1.007825032230

  Charge       = 0
  Multiplicity = 2
  Basis Set: ANONYMOUSDFFC359E
    Blend: 6-31G_2DFP_
  Basis Set: (ANONYMOUSDFFC359E AUX)
    Blend: DEF2-UNIVERSAL-JKFIT

    Orbital Energies [Eh]
    ---------------------

    Alpha Occupied:

       1Ap   -10.180342     1App  -10.167361     2Ap   -10.167331
       3Ap   -10.166351     4Ap    -0.797767     5Ap    -0.686451
       2App   -0.685927     6Ap    -0.530777     7Ap    -0.441129
       8Ap    -0.434767     3App   -0.434574     9Ap    -0.382844
       4App   -0.382355     5App   -0.363606     6App   -0.338194
      10Ap    -0.337805    11Ap    -0.168961

    Alpha Virtual:

      12Ap     0.076069    13Ap     0.134027     7App    0.134257
       8App    0.142537    14Ap     0.142738    15Ap     0.154881
       9App    0.178357    16Ap     0.179199    17Ap     0.203547
      10App    0.214807    11App    0.275921    18Ap     0.276051
      19Ap     0.399059    12App    0.399397    20Ap     0.403343
      21Ap     0.423839    13App    0.424354    22Ap     0.456592
      14App    0.495370    23Ap     0.495408    15App    0.512163
      24Ap     0.513979    16App    0.578639    25Ap     0.578990
      17App    0.591189    26Ap     0.592053    27Ap     0.602597
      28Ap     0.624723    18App    0.631659    29Ap     0.636184
      19App    0.636463    20App    0.663020    30Ap     0.663815
      21App    0.683752    31Ap     0.683984    32Ap     0.734994
      33Ap     0.825260    22App    0.825540    23App    0.853920
      34Ap     0.914804    24App    0.915250    25App    0.944132
      35Ap     0.944615    36Ap     0.960961    26App    0.961619
      37Ap     1.003459    27App    1.128075    38Ap     1.128145
      39Ap     1.142230    40Ap     1.163113    28App    1.163421
      41Ap     1.223330    29App    1.274061    42Ap     1.274899
      43Ap     1.279358    44Ap     1.324205    30App    1.324486
      45Ap     1.355976    31App    1.365481    46Ap     1.366636
      32App    1.392451    33App    1.403616    47Ap     1.404467
      48Ap     1.416716    34App    1.417487    35App    1.427907
      36App    1.491496    49Ap     1.499077    50Ap     1.542761
      37App    1.542909    51Ap     1.574370    38App    1.574547
      52Ap     1.669824    39App    1.738782    53Ap     1.740023
      54Ap     1.768281    40App    1.830571    55Ap     1.832297
      41App    1.971712    56Ap     2.018115    42App    2.018593
      57Ap     2.019662    43App    2.052193    58Ap     2.053183
      59Ap     2.738218    44App    2.738748    60Ap     2.790926
      45App    2.811428    46App    2.889524    61Ap     2.890330
      62Ap     2.894983    63Ap     2.929409    47App    2.929572
      48App    2.958999    49App    2.963827    64Ap     2.964963
      65Ap     3.034018    66Ap     3.070992    50App    3.071593
      51App    3.084385    52App    3.168503    67Ap     3.169050
      68Ap     3.180612    69Ap     3.285078    53App    3.285542
      54App    3.326826    70Ap     3.327500    71Ap     3.375632
      72Ap     3.489057    55App    3.491267    56App    3.514012
      73Ap     3.525345    74Ap     3.568006    57App    3.568721
      58App    3.575200    59App    3.665202    75Ap     3.667470
      76Ap     3.679646    60App    3.693878    77Ap     3.694476
      61App    3.776123    78Ap     3.777479    79Ap     3.789128
      80Ap     3.912060    62App    3.912357    81Ap     4.034428
      63App    4.110067    82Ap     4.112645    83Ap     4.145594
      64App    4.150226    84Ap     4.173447    85Ap     4.200849
      65App    4.203295    86Ap     4.204777    66App    4.211072
      67App    4.315911    87Ap     4.316028    68App    4.358916
      69App    4.423987    88Ap     4.424803    70App    4.443605
      71App    4.515584    89Ap     4.518077    90Ap     4.577809
      72App    4.578760    91Ap     4.617575    92Ap     4.709456
      73App    4.773519    93Ap     4.775712    74App    4.836884
      94Ap     4.962861    75App    5.002026    95Ap     5.003932
      96Ap     5.226955    97Ap     5.244005    76App    5.250557
      77App    5.351163    98Ap     5.359947    78App    5.479497

    Beta Occupied:

       1App  -10.168117     1Ap   -10.168097     2Ap   -10.167114
       3Ap   -10.166515     4Ap    -0.781093     5Ap    -0.684251
       2App   -0.683732     6Ap    -0.511748     7Ap    -0.431133
       3App   -0.430956     8Ap    -0.421821     9Ap    -0.376933
       4App   -0.376435     5App   -0.362590     6App   -0.333306
      10Ap    -0.332939

    Beta Virtual:

      11Ap    -0.025743    12Ap     0.077078    13Ap     0.134839
       7App    0.135233     8App    0.144327    14Ap     0.144683
      15Ap     0.163337     9App    0.182038    16Ap     0.182860
      10App    0.215037    17Ap     0.218929    11App    0.282272
      18Ap     0.282396    19Ap     0.400228    12App    0.400567
      20Ap     0.419790    21Ap     0.426648    13App    0.427168
      22Ap     0.468500    14App    0.497636    23Ap     0.497663
      15App    0.513898    24Ap     0.556324    16App    0.584183
      25Ap     0.584545    17App    0.597368    26Ap     0.598237
      27Ap     0.610019    28Ap     0.628095    18App    0.631868
      29Ap     0.639474    19App    0.639695    20App    0.666587
      30Ap     0.667379    21App    0.686398    31Ap     0.686606
      32Ap     0.757518    33Ap     0.830390    22App    0.830746
      23App    0.855274    34Ap     0.922798    24App    0.923199
      25App    0.945969    35Ap     0.953543    36Ap     0.966277
      26App    0.966915    37Ap     1.008699    27App    1.132082
      38Ap     1.132198    39Ap     1.155606    40Ap     1.168177
      28App    1.168503    41Ap     1.232302    29App    1.279639
      42Ap     1.280514    43Ap     1.285112    44Ap     1.329144
      30App    1.329523    45Ap     1.365383    31App    1.370800
      46Ap     1.371815    32App    1.393508    33App    1.407042
      47Ap     1.407969    48Ap     1.421864    34App    1.422442
      35App    1.428176    36App    1.492547    49Ap     1.509519
      50Ap     1.547095    37App    1.547394    51Ap     1.582250
      38App    1.582405    52Ap     1.674672    39App    1.744512
      53Ap     1.745816    54Ap     1.779062    40App    1.834460
      55Ap     1.836120    41App    1.972578    42App    2.024950
      56Ap     2.025965    57Ap     2.039588    43App    2.058955
      58Ap     2.059890    59Ap     2.746552    44App    2.747086
      45App    2.811841    60Ap     2.816061    46App    2.902248
      61Ap     2.903016    62Ap     2.924650    63Ap     2.931896
      47App    2.932049    48App    2.960068    49App    2.968317
      64Ap     2.969561    65Ap     3.041950    66Ap     3.080961
      50App    3.081417    51App    3.086232    52App    3.184328
      67Ap     3.184656    68Ap     3.188363    69Ap     3.289839
      53App    3.290379    54App    3.330575    70Ap     3.331359
      71Ap     3.383450    72Ap     3.491833    55App    3.493952
      56App    3.512376    73Ap     3.528389    57App    3.574954
      74Ap     3.581234    58App    3.582277    59App    3.670023
      75Ap     3.672155    76Ap     3.693015    60App    3.725331
      77Ap     3.726203    61App    3.780649    78Ap     3.782012
      79Ap     3.817669    80Ap     3.921796    62App    3.922253
      81Ap     4.045309    63App    4.116869    82Ap     4.119470
      83Ap     4.152807    64App    4.157480    84Ap     4.187479
      85Ap     4.207703    65App    4.209148    86Ap     4.211909
      66App    4.215541    87Ap     4.323386    67App    4.323437
      68App    4.362283    69App    4.432081    88Ap     4.433055
      70App    4.446569    71App    4.523426    89Ap     4.525813
      90Ap     4.588490    72App    4.589282    91Ap     4.624766
      92Ap     4.719799    73App    4.780467    93Ap     4.782672
      74App    4.839800    94Ap     4.967657    75App    5.006084
      95Ap     5.007952    96Ap     5.232417    97Ap     5.246058
      76App    5.252327    77App    5.357668    98Ap     5.366400
      78App    5.481820

    Final Occupation by Irrep:
             Ap   App
    DOCC [    10,    6 ]
    SOCC [     1,    0 ]

  @DF-UKS Final Energy:  -157.81304454091043

   => Energetics <=

    Nuclear Repulsion Energy =            125.3946985904110818
    One-Electron Energy =                -458.7489892874471593
    Two-Electron Energy =                 195.8483979639223378
    DFT Exchange-Correlation Energy =     -20.3071518077967283
    Empirical Dispersion Energy =           0.0000000000000000
    VV10 Nonlocal Energy =                  0.0000000000000000
    Total Energy =                       -157.8130445409104254

  UHF NO Occupations:
  HONO-2 :    9 Ap 1.9996009
  HONO-1 :   10 Ap 1.9989805
  HONO-0 :   11 Ap 1.0000000
  LUNO+0 :   12 Ap 0.0010195
  LUNO+1 :   13 Ap 0.0003991
  LUNO+2 :    7App 0.0001976
  LUNO+3 :   14 Ap 0.0001975

Computation Completed

Properties will be evaluated at   0.000000,   0.000000,   0.000000 [a0]

Properties computed using the SCF density matrix

  Nuclear Dipole Moment: [e a0]
     X:     0.8272      Y:    -0.0057      Z:     0.0000

  Electronic Dipole Moment: [e a0]
     X:    -0.7493      Y:     0.0099      Z:     0.0000

  Dipole Moment: [e a0]
     X:     0.0779      Y:     0.0042      Z:     0.0000     Total:     0.0780

  Dipole Moment: [D]
     X:     0.1980      Y:     0.0107      Z:     0.0000     Total:     0.1983

*** tstop() called on n082 at Fri Nov  5 14:24:53 2021
Module time:
	user time   =     494.86 seconds =       8.25 minutes
	system time =       4.43 seconds =       0.07 minutes
	total time  =        126 seconds =       2.10 minutes
Total time:
	user time   =     494.86 seconds =       8.25 minutes
	system time =       4.43 seconds =       0.07 minutes
	total time  =        126 seconds =       2.10 minutes
Grab this energy -157.81304454091043
    Psi4 stopped on: Friday, 05 November 2021 02:24PM
    Psi4 wall time for execution: 0:02:05.56

*** Psi4 exiting successfully. Buy a developer a beer!
