                               Psi4 1.4a2.dev629

  ==> Input File <==

--------------------------------------------------------------------------
import os
memory 14 GB

molecule {
 C   -0.3233610460   -0.0053457279    0.0000000000
 C    0.0609724281   -1.4013951246   -2.4253515411
 C    0.0610749935    2.8010449537    0.0000000000
 C    0.0609724281   -1.4013951246    2.4253515411
 H    2.0902088885   -1.6430164959   -2.8472989385
 H   -0.7661786713   -0.3853511276   -4.0277424885
 H   -0.7677927992   -3.2935573640   -2.3469777845
 H    2.0897142843    3.2883472731   -0.0000000000
 H   -0.7672279004    3.6812847059    1.6788982083
 H   -0.7672279004    3.6812847059   -1.6788982083
 H    2.0902088885   -1.6430164959    2.8472989385
 H   -0.7677927992   -3.2935573640    2.3469777845
 H   -0.7661786713   -0.3853511276    4.0277424885
units bohr
0 2
}

basis {

assign 6-31g_2dfp_

[ 6-31g_2dfp_ ]

spherical

!----------------------------------------------------------------------
! Basis Set Exchange
! Version v0.8.13
! https://www.basissetexchange.org
!----------------------------------------------------------------------
!   Basis set: 6-31G(2df,p)
! Description: 6-31G(2df,p)
!        Role: orbital
!     Version: 0  (Data from the original Basis Set Exchange)
!----------------------------------------------------------------------

****
H     0
S    3   1.00
     18.7311370              0.03349460
      2.8253937              0.23472695
      0.6401217              0.81375733
S    1   1.00
      0.1612778              1.00000000
P    1   1.00
      1.5000000              1.0000000
P    1   1.00
      0.3750000              1.0000000
****
B     0
S    6   1.00
   2068.8823000              0.0018663
    310.6495700              0.0142515
     70.6830330              0.0695516
     19.8610800              0.2325729
      6.2993048              0.4670787
      2.1270270              0.3634314
SP   3   1.00
      4.7279710             -0.1303938              0.0745976
      1.1903377             -0.1307889              0.3078467
      0.3594117              1.1309444              0.7434568
SP   1   1.00
      0.1267512              1.0000000              1.0000000
D    1   1.00
      0.8020000              1.0000000
D    1   1.00
      0.2005000              1.0000000
F    1   1.00
      0.5000000              1.0000000
****
C     0
S    6   1.00
   3047.5249000              0.0018347
    457.3695100              0.0140373
    103.9486900              0.0688426
     29.2101550              0.2321844
      9.2866630              0.4679413
      3.1639270              0.3623120
SP   3   1.00
      7.8682724             -0.1193324              0.0689991
      1.8812885             -0.1608542              0.3164240
      0.5442493              1.1434564              0.7443083
SP   1   1.00
      0.1687144              1.0000000              1.0000000
D    1   1.00
      1.2520000              1.0000000
D    1   1.00
      0.3130000              1.0000000
F    1   1.00
      0.8000000              1.0000000
****
N     0
S    6   1.00
   4173.5110000              0.0018348
    627.4579000              0.0139950
    142.9021000              0.0685870
     40.2343300              0.2322410
     12.8202100              0.4690700
      4.3904370              0.3604550
SP   3   1.00
     11.6263580             -0.1149610              0.0675800
      2.7162800             -0.1691180              0.3239070
      0.7722180              1.1458520              0.7408950
SP   1   1.00
      0.2120313              1.0000000              1.0000000
D    1   1.00
      1.8260000              1.0000000
D    1   1.00
      0.4565000              1.0000000
F    1   1.00
      1.0000000              1.0000000
****
O     0
S    6   1.00
   5484.6717000              0.0018311
    825.2349500              0.0139501
    188.0469600              0.0684451
     52.9645000              0.2327143
     16.8975700              0.4701930
      5.7996353              0.3585209
SP   3   1.00
     15.5396160             -0.1107775              0.0708743
      3.5999336             -0.1480263              0.3397528
      1.0137618              1.1307670              0.7271586
SP   1   1.00
      0.2700058              1.0000000              1.0000000
D    1   1.00
      2.5840000              1.0000000
D    1   1.00
      0.6460000              1.0000000
F    1   1.00
      1.4000000              1.0000000
****
F     0
S    6   1.00
   7001.7130900              0.0018196169
   1051.3660900              0.0139160796
    239.2856900              0.0684053245
     67.3974453              0.233185760
     21.5199573              0.471267439
      7.40310130             0.356618546
SP   3   1.00
     20.8479528             -0.108506975            0.0716287243
      4.80830834            -0.146451658            0.3459121030
      1.34406986             1.128688580            0.7224699570
SP   1   1.00
      0.358151393            1.0000000              1.0000000
D    1   1.00
      3.5000000              1.0000000
D    1   1.00
      0.8750000              1.0000000
F    1   1.00
      1.8500000              1.0000000
****
Al     0
S    6   1.00
  13983.1000000              0.00194267
   2098.7500000              0.0148599
    477.7050000              0.0728494
    134.3600000              0.2468300
     42.8709000              0.4872580
     14.5189000              0.3234960
SP   6   1.00
    239.6680000             -0.00292619             0.00460285
     57.4419000             -0.0374080              0.0331990
     18.2859000             -0.1144870              0.1362820
      6.5991400              0.1156350              0.3304760
      2.4904900              0.6125950              0.4491460
      0.9445400              0.3937990              0.2657040
SP   3   1.00
      1.2779000             -0.2276060             -0.0175130
      0.3975900              0.00144583             0.2445330
      0.1600950              1.0927900              0.8049340
SP   1   1.00
      0.0556577              1.0000000              1.0000000
D    1   1.00
      0.6500000              1.0000000
D    1   1.00
      0.1625000              1.0000000
F    1   1.00
      0.2500000              1.0000000
****
Si     0
S    6   1.00
  16115.9000000              0.00195948
   2425.5800000              0.01492880
    553.8670000              0.07284780
    156.3400000              0.24613000
     50.0683000              0.48591400
     17.0178000              0.32500200
SP   6   1.00
    292.7180000             -0.00278094             0.00443826
     69.8731000             -0.03571460             0.03266790
     22.3363000             -0.11498500             0.13472100
      8.1503900              0.09356340             0.32867800
      3.1345800              0.60301700             0.44964000
      1.2254300              0.41895900             0.26137200
SP   3   1.00
      1.7273800             -0.24463000            -0.01779510
      0.5729220              0.00431572             0.25353900
      0.2221920              1.09818000             0.80066900
SP   1   1.00
      0.0778369              1.00000000             1.00000000
D    1   1.00
      0.9000000              1.0000000
D    1   1.00
      0.2250000              1.0000000
F    1   1.00
      0.3200000              1.0000000
****
P     0
S    6   1.00
  19413.3000000              0.0018516
   2909.4200000              0.0142062
    661.3640000              0.0699995
    185.7590000              0.2400790
     59.1943000              0.4847620
     20.0310000              0.3352000
SP   6   1.00
    339.4780000             -0.00278217             0.00456462
     81.0101000             -0.0360499              0.03369360
     25.8780000             -0.1166310              0.13975500
      9.4522100              0.0968328              0.33936200
      3.6656600              0.6144180              0.45092100
      1.4674600              0.4037980              0.23858600
SP   3   1.00
      2.1562300             -0.2529230             -0.01776530
      0.7489970              0.0328517              0.27405800
      0.2831450              1.0812500              0.78542100
SP   1   1.00
      0.0998317              1.0000000              1.00000000
D    1   1.00
      1.1000000              1.0000000
D    1   1.00
      0.2750000              1.0000000
F    1   1.00
      0.4500000              1.0000000
****
S     0
S    6   1.00
  21917.1000000              0.0018690
   3301.4900000              0.0142300
    754.1460000              0.0696960
    212.7110000              0.2384870
     67.9896000              0.4833070
     23.0515000              0.3380740
SP   6   1.00
    423.7350000             -0.0023767              0.0040610
    100.7100000             -0.0316930              0.0306810
     32.1599000             -0.1133170              0.1304520
     11.8079000              0.0560900              0.3272050
      4.6311000              0.5922550              0.4528510
      1.8702500              0.4550060              0.2560420
SP   3   1.00
      2.6158400             -0.2503740             -0.0145110
      0.9221670              0.0669570              0.3102630
      0.3412870              1.0545100              0.7544830
SP   1   1.00
      0.1171670              1.0000000              1.0000000
D    1   1.00
      1.3000000              1.0000000
D    1   1.00
      0.3250000              1.0000000
F    1   1.00
      0.5500000              1.0000000
****
Cl     0
S    6   1.00
  25180.1000000              0.0018330
   3780.3500000              0.0140340
    860.4740000              0.0690970
    242.1450000              0.2374520
     77.3349000              0.4830340
     26.2470000              0.3398560
SP   6   1.00
    491.7650000             -0.0022974              0.0039894
    116.9840000             -0.0307140              0.0303180
     37.4153000             -0.1125280              0.1298800
     13.7834000              0.0450160              0.3279510
      5.4521500              0.5893530              0.4535270
      2.2258800              0.4652060              0.2521540
SP   3   1.00
      3.1864900             -0.2518300             -0.0142990
      1.1442700              0.0615890              0.3235720
      0.4203770              1.0601800              0.7435070
SP   1   1.00
      0.1426570              1.0000000              1.0000000
D    1   1.00
      1.5000000              1.0000000
D    1   1.00
      0.3750000              1.0000000
F    1   1.00
      0.7000000              1.0000000
****
}

set {
reference uhf
freeze_core true
e_convergence 10
d_convergence 10
dft_spherical_points 1202
dft_radial_points 99
}

e = energy('b3lyp')

print_out('Grab this energy {0}'.format(e))
--------------------------------------------------------------------------

    Molecular point group: cs

    Geometry (in Bohr), charge = 0, multiplicity = 2:

       Center              X                  Y                   Z               Mass
    ------------   -----------------  -----------------  -----------------  -----------------
         C           -0.323303030502    -0.003979516359     0.000000000000    12.000000000000
         C            0.061030443598    -1.400028913059    -2.425351541100    12.000000000000
         C            0.061133008998     2.802411165241     0.000000000000    12.000000000000
         C            0.061030443598    -1.400028913059     2.425351541100    12.000000000000
         H            2.090266903998    -1.641650284359    -2.847298938500     1.007825032230
         H           -0.766120655802    -0.383984916059    -4.027742488500     1.007825032230
         H           -0.767734783702    -3.292191152459    -2.346977784500     1.007825032230
         H            2.089772299798     3.289713484641     0.000000000000     1.007825032230
         H           -0.767169884902     3.682650917441     1.678898208300     1.007825032230
         H           -0.767169884902     3.682650917441    -1.678898208300     1.007825032230
         H            2.090266903998    -1.641650284359     2.847298938500     1.007825032230
         H           -0.767734783702    -3.292191152459     2.346977784500     1.007825032230
         H           -0.766120655802    -0.383984916059     4.027742488500     1.007825032230

  Charge       = 0
  Multiplicity = 2
  Basis Set: ANONYMOUS9439E92B
    Blend: 6-31G_2DFP_
  Basis Set: (ANONYMOUS9439E92B AUX)
    Blend: DEF2-UNIVERSAL-JKFIT

    Orbital Energies [Eh]
    ---------------------

    Alpha Occupied:

       1Ap   -10.180410     2Ap   -10.167590     1App  -10.167548
       3Ap   -10.167511     4Ap    -0.797809     2App   -0.686017
       5Ap    -0.685638     6Ap    -0.530464     7Ap    -0.441031
       8Ap    -0.434740     3App   -0.434320     4App   -0.382459
       9Ap    -0.382225     5App   -0.363293     6App   -0.338512
      10Ap    -0.337473    11Ap    -0.169022

    Alpha Virtual:

      12Ap     0.075740     7App    0.133775    13Ap     0.133800
      14Ap     0.142043     8App    0.142391    15Ap     0.154581
      16Ap     0.178265     9App    0.178278    17Ap     0.203653
      10App    0.214347    18Ap     0.275675    11App    0.276249
      19Ap     0.399157    12App    0.399410    20Ap     0.403136
      13App    0.423823    21Ap     0.423824    22Ap     0.456459
      23Ap     0.495117    14App    0.495215    15App    0.511891
      24Ap     0.513844    25Ap     0.578281    16App    0.578676
      17App    0.591037    26Ap     0.591043    27Ap     0.601925
      28Ap     0.623780    18App    0.631075    29Ap     0.635549
      19App    0.635840    20App    0.663013    30Ap     0.663146
      21App    0.683259    31Ap     0.683353    32Ap     0.734684
      33Ap     0.824483    22App    0.824697    23App    0.853399
      24App    0.914198    34Ap     0.914423    25App    0.943503
      35Ap     0.943830    36Ap     0.960472    26App    0.960806
      37Ap     1.003354    38Ap     1.127397    27App    1.127943
      39Ap     1.141391    40Ap     1.162617    28App    1.163407
      41Ap     1.222885    29App    1.273493    42Ap     1.274420
      43Ap     1.279800    44Ap     1.323549    30App    1.323738
      45Ap     1.355142    46Ap     1.365293    31App    1.365815
      32App    1.391858    47Ap     1.402971    33App    1.403068
      34App    1.415859    48Ap     1.416491    35App    1.427169
      36App    1.490602    49Ap     1.497722    50Ap     1.542314
      37App    1.542318    38App    1.574262    51Ap     1.574299
      52Ap     1.667659    53Ap     1.737791    39App    1.738189
      54Ap     1.766800    55Ap     1.828657    40App    1.829180
      41App    1.970102    56Ap     2.017214    42App    2.017275
      57Ap     2.018426    58Ap     2.051038    43App    2.052095
      59Ap     2.737275    44App    2.737746    60Ap     2.790714
      45App    2.810912    61Ap     2.888831    46App    2.889940
      62Ap     2.894863    63Ap     2.928714    47App    2.929518
      48App    2.958372    49App    2.963594    64Ap     2.963874
      65Ap     3.033101    66Ap     3.069854    50App    3.070838
      51App    3.083429    52App    3.169395    67Ap     3.169444
      68Ap     3.180365    69Ap     3.285048    53App    3.285653
      54App    3.327295    70Ap     3.328042    71Ap     3.376300
      72Ap     3.490630    55App    3.491649    56App    3.514320
      73Ap     3.525964    57App    3.567961    74Ap     3.568442
      58App    3.576819    59App    3.665353    75Ap     3.665923
      76Ap     3.677831    60App    3.693267    77Ap     3.693332
      78Ap     3.775491    61App    3.777004    79Ap     3.788607
      80Ap     3.910838    62App    3.911730    81Ap     4.032083
      82Ap     4.108584    63App    4.109208    83Ap     4.143835
      64App    4.145775    84Ap     4.170309    85Ap     4.200670
      86Ap     4.201855    65App    4.202053    66App    4.207206
      87Ap     4.313147    67App    4.314325    68App    4.356570
      88Ap     4.421813    69App    4.421930    70App    4.441413
      89Ap     4.514278    71App    4.514550    90Ap     4.576637
      72App    4.576654    91Ap     4.617144    92Ap     4.707445
      93Ap     4.772282    73App    4.773390    74App    4.834539
      94Ap     4.962050    75App    5.001614    95Ap     5.002169
      96Ap     5.222752    97Ap     5.241497    76App    5.241549
      98Ap     5.350353    77App    5.351484    78App    5.476130

    Beta Occupied:

       1Ap   -10.168345     1App  -10.168306     2Ap   -10.168283
       3Ap   -10.166602     4Ap    -0.781107     2App   -0.683810
       5Ap    -0.683454     6Ap    -0.511494     7Ap    -0.431108
       3App   -0.430685     8Ap    -0.421683     4App   -0.376495
       9Ap    -0.376342     5App   -0.362274     6App   -0.333655
      10Ap    -0.332596

    Beta Virtual:

      11Ap    -0.025976    12Ap     0.076752    13Ap     0.134665
       7App    0.134673    14Ap     0.143952     8App    0.144279
      15Ap     0.163103    16Ap     0.181934     9App    0.181971
      10App    0.214579    17Ap     0.219017    18Ap     0.282048
      11App    0.282552    19Ap     0.400335    12App    0.400581
      20Ap     0.419569    21Ap     0.426622    13App    0.426643
      22Ap     0.468385    23Ap     0.497376    14App    0.497479
      15App    0.513632    24Ap     0.556129    25Ap     0.583793
      16App    0.584233    26Ap     0.597192    17App    0.597204
      27Ap     0.609362    28Ap     0.627165    18App    0.631236
      29Ap     0.638845    19App    0.639162    20App    0.666578
      30Ap     0.666698    21App    0.685928    31Ap     0.686026
      32Ap     0.757182    33Ap     0.829658    22App    0.829864
      23App    0.854776    24App    0.922157    34Ap     0.922435
      25App    0.945340    35Ap     0.952736    36Ap     0.965780
      26App    0.966127    37Ap     1.008582    38Ap     1.131483
      27App    1.131958    39Ap     1.154763    40Ap     1.167666
      28App    1.168444    41Ap     1.231874    29App    1.279155
      42Ap     1.279977    43Ap     1.285565    44Ap     1.328524
      30App    1.328690    45Ap     1.364533    46Ap     1.370587
      31App    1.371012    32App    1.392922    47Ap     1.406387
      33App    1.406587    34App    1.420915    48Ap     1.421534
      35App    1.427451    36App    1.491645    49Ap     1.508164
      50Ap     1.546847    37App    1.546864    51Ap     1.582036
      38App    1.582051    52Ap     1.672434    53Ap     1.743542
      39App    1.743948    54Ap     1.777635    55Ap     1.832529
      40App    1.833079    41App    1.970965    42App    2.023707
      56Ap     2.024823    57Ap     2.038615    58Ap     2.057772
      43App    2.058800    59Ap     2.745569    44App    2.746100
      45App    2.811321    60Ap     2.815824    61Ap     2.901563
      46App    2.902491    62Ap     2.924533    63Ap     2.931191
      47App    2.932107    48App    2.959431    49App    2.968097
      64Ap     2.968376    65Ap     3.041116    66Ap     3.079781
      50App    3.080615    51App    3.085240    67Ap     3.184981
      52App    3.185282    68Ap     3.188160    69Ap     3.289942
      53App    3.290466    54App    3.331089    70Ap     3.331841
      71Ap     3.384096    72Ap     3.493304    55App    3.494337
      56App    3.512683    73Ap     3.528994    57App    3.576676
      58App    3.581333    74Ap     3.581716    59App    3.669911
      75Ap     3.670341    76Ap     3.691064    60App    3.724925
      77Ap     3.725225    78Ap     3.780065    61App    3.781534
      79Ap     3.817094    80Ap     3.920675    62App    3.921561
      81Ap     4.042847    82Ap     4.115368    63App    4.115902
      83Ap     4.151109    64App    4.152997    84Ap     4.184511
      85Ap     4.207047    65App    4.207962    86Ap     4.209473
      66App    4.211721    87Ap     4.320605    67App    4.321908
      68App    4.359943    88Ap     4.430064    69App    4.430163
      70App    4.444319    89Ap     4.522033    71App    4.522399
      90Ap     4.587244    72App    4.587292    91Ap     4.624367
      92Ap     4.717796    93Ap     4.779204    73App    4.780383
      74App    4.837450    94Ap     4.966869    75App    5.005688
      95Ap     5.006216    96Ap     5.228493    97Ap     5.243293
      76App    5.243333    98Ap     5.356835    77App    5.358019
      78App    5.478464

    Final Occupation by Irrep:
             Ap   App
    DOCC [    10,    6 ]
    SOCC [     1,    0 ]

  @DF-UKS Final Energy:  -157.81308476284781

   => Energetics <=

    Nuclear Repulsion Energy =            125.3573608308714711
    One-Electron Energy =                -458.6782319313857670
    Two-Electron Energy =                 195.8109122855087776
    DFT Exchange-Correlation Energy =     -20.3031259478423003
    Empirical Dispersion Energy =           0.0000000000000000
    VV10 Nonlocal Energy =                  0.0000000000000000
    Total Energy =                       -157.8130847628478080

  UHF NO Occupations:
  HONO-2 :    9 Ap 1.9995983
  HONO-1 :   10 Ap 1.9989811
  HONO-0 :   11 Ap 1.0000000
  LUNO+0 :   12 Ap 0.0010189
  LUNO+1 :   13 Ap 0.0004017
  LUNO+2 :   14 Ap 0.0001982
  LUNO+3 :    7App 0.0001961

Computation Completed

Properties will be evaluated at   0.000000,   0.000000,   0.000000 [a0]

Properties computed using the SCF density matrix

  Nuclear Dipole Moment: [e a0]
     X:     0.8276      Y:     0.0096      Z:    -0.0000

  Electronic Dipole Moment: [e a0]
     X:    -0.7503      Y:    -0.0108      Z:     0.0000

  Dipole Moment: [e a0]
     X:     0.0773      Y:    -0.0012      Z:    -0.0000     Total:     0.0773

  Dipole Moment: [D]
     X:     0.1964      Y:    -0.0031      Z:    -0.0000     Total:     0.1964

*** tstop() called on n082 at Fri Nov  5 13:44:52 2021
Module time:
	user time   =     493.24 seconds =       8.22 minutes
	system time =       4.42 seconds =       0.07 minutes
	total time  =        125 seconds =       2.08 minutes
Total time:
	user time   =     493.24 seconds =       8.22 minutes
	system time =       4.42 seconds =       0.07 minutes
	total time  =        125 seconds =       2.08 minutes
Grab this energy -157.8130847628478
    Psi4 stopped on: Friday, 05 November 2021 01:44PM
    Psi4 wall time for execution: 0:02:05.17

*** Psi4 exiting successfully. Buy a developer a beer!
