                               Psi4 1.4a2.dev629

  ==> Input File <==

--------------------------------------------------------------------------
import os
memory 14 GB

molecule {
 C   -0.3233400869    0.0002225985    0.0002462390
 C    0.0621854124   -1.4009649569   -2.4275160846
 C    0.0608524547    2.7994899293   -0.0001489338
 C    0.0602634368   -1.4011996031    2.4276274757
 H    2.0897835198   -1.6459035478   -2.8521044043
 H   -0.7645837191   -0.3873145858   -4.0231286895
 H   -0.7636735426   -3.2903294619   -2.3454113825
 H    2.0867137255    3.2887896564   -0.0018554328
 H   -0.7645512019    3.6794998806    1.6769180270
 H   -0.7664787788    3.6823363886   -1.6757677513
 H    2.0841595176   -1.6422323295    2.8420359267
 H   -0.7674801422   -3.2935984647    2.3518238744
 H   -0.7664584718   -0.3888198171    4.0272811358
units bohr
0 2
}

basis {

assign 6-31g_2dfp_

[ 6-31g_2dfp_ ]

spherical

!----------------------------------------------------------------------
! Basis Set Exchange
! Version v0.8.13
! https://www.basissetexchange.org
!----------------------------------------------------------------------
!   Basis set: 6-31G(2df,p)
! Description: 6-31G(2df,p)
!        Role: orbital
!     Version: 0  (Data from the original Basis Set Exchange)
!----------------------------------------------------------------------

****
H     0
S    3   1.00
     18.7311370              0.03349460
      2.8253937              0.23472695
      0.6401217              0.81375733
S    1   1.00
      0.1612778              1.00000000
P    1   1.00
      1.5000000              1.0000000
P    1   1.00
      0.3750000              1.0000000
****
B     0
S    6   1.00
   2068.8823000              0.0018663
    310.6495700              0.0142515
     70.6830330              0.0695516
     19.8610800              0.2325729
      6.2993048              0.4670787
      2.1270270              0.3634314
SP   3   1.00
      4.7279710             -0.1303938              0.0745976
      1.1903377             -0.1307889              0.3078467
      0.3594117              1.1309444              0.7434568
SP   1   1.00
      0.1267512              1.0000000              1.0000000
D    1   1.00
      0.8020000              1.0000000
D    1   1.00
      0.2005000              1.0000000
F    1   1.00
      0.5000000              1.0000000
****
C     0
S    6   1.00
   3047.5249000              0.0018347
    457.3695100              0.0140373
    103.9486900              0.0688426
     29.2101550              0.2321844
      9.2866630              0.4679413
      3.1639270              0.3623120
SP   3   1.00
      7.8682724             -0.1193324              0.0689991
      1.8812885             -0.1608542              0.3164240
      0.5442493              1.1434564              0.7443083
SP   1   1.00
      0.1687144              1.0000000              1.0000000
D    1   1.00
      1.2520000              1.0000000
D    1   1.00
      0.3130000              1.0000000
F    1   1.00
      0.8000000              1.0000000
****
N     0
S    6   1.00
   4173.5110000              0.0018348
    627.4579000              0.0139950
    142.9021000              0.0685870
     40.2343300              0.2322410
     12.8202100              0.4690700
      4.3904370              0.3604550
SP   3   1.00
     11.6263580             -0.1149610              0.0675800
      2.7162800             -0.1691180              0.3239070
      0.7722180              1.1458520              0.7408950
SP   1   1.00
      0.2120313              1.0000000              1.0000000
D    1   1.00
      1.8260000              1.0000000
D    1   1.00
      0.4565000              1.0000000
F    1   1.00
      1.0000000              1.0000000
****
O     0
S    6   1.00
   5484.6717000              0.0018311
    825.2349500              0.0139501
    188.0469600              0.0684451
     52.9645000              0.2327143
     16.8975700              0.4701930
      5.7996353              0.3585209
SP   3   1.00
     15.5396160             -0.1107775              0.0708743
      3.5999336             -0.1480263              0.3397528
      1.0137618              1.1307670              0.7271586
SP   1   1.00
      0.2700058              1.0000000              1.0000000
D    1   1.00
      2.5840000              1.0000000
D    1   1.00
      0.6460000              1.0000000
F    1   1.00
      1.4000000              1.0000000
****
F     0
S    6   1.00
   7001.7130900              0.0018196169
   1051.3660900              0.0139160796
    239.2856900              0.0684053245
     67.3974453              0.233185760
     21.5199573              0.471267439
      7.40310130             0.356618546
SP   3   1.00
     20.8479528             -0.108506975            0.0716287243
      4.80830834            -0.146451658            0.3459121030
      1.34406986             1.128688580            0.7224699570
SP   1   1.00
      0.358151393            1.0000000              1.0000000
D    1   1.00
      3.5000000              1.0000000
D    1   1.00
      0.8750000              1.0000000
F    1   1.00
      1.8500000              1.0000000
****
Al     0
S    6   1.00
  13983.1000000              0.00194267
   2098.7500000              0.0148599
    477.7050000              0.0728494
    134.3600000              0.2468300
     42.8709000              0.4872580
     14.5189000              0.3234960
SP   6   1.00
    239.6680000             -0.00292619             0.00460285
     57.4419000             -0.0374080              0.0331990
     18.2859000             -0.1144870              0.1362820
      6.5991400              0.1156350              0.3304760
      2.4904900              0.6125950              0.4491460
      0.9445400              0.3937990              0.2657040
SP   3   1.00
      1.2779000             -0.2276060             -0.0175130
      0.3975900              0.00144583             0.2445330
      0.1600950              1.0927900              0.8049340
SP   1   1.00
      0.0556577              1.0000000              1.0000000
D    1   1.00
      0.6500000              1.0000000
D    1   1.00
      0.1625000              1.0000000
F    1   1.00
      0.2500000              1.0000000
****
Si     0
S    6   1.00
  16115.9000000              0.00195948
   2425.5800000              0.01492880
    553.8670000              0.07284780
    156.3400000              0.24613000
     50.0683000              0.48591400
     17.0178000              0.32500200
SP   6   1.00
    292.7180000             -0.00278094             0.00443826
     69.8731000             -0.03571460             0.03266790
     22.3363000             -0.11498500             0.13472100
      8.1503900              0.09356340             0.32867800
      3.1345800              0.60301700             0.44964000
      1.2254300              0.41895900             0.26137200
SP   3   1.00
      1.7273800             -0.24463000            -0.01779510
      0.5729220              0.00431572             0.25353900
      0.2221920              1.09818000             0.80066900
SP   1   1.00
      0.0778369              1.00000000             1.00000000
D    1   1.00
      0.9000000              1.0000000
D    1   1.00
      0.2250000              1.0000000
F    1   1.00
      0.3200000              1.0000000
****
P     0
S    6   1.00
  19413.3000000              0.0018516
   2909.4200000              0.0142062
    661.3640000              0.0699995
    185.7590000              0.2400790
     59.1943000              0.4847620
     20.0310000              0.3352000
SP   6   1.00
    339.4780000             -0.00278217             0.00456462
     81.0101000             -0.0360499              0.03369360
     25.8780000             -0.1166310              0.13975500
      9.4522100              0.0968328              0.33936200
      3.6656600              0.6144180              0.45092100
      1.4674600              0.4037980              0.23858600
SP   3   1.00
      2.1562300             -0.2529230             -0.01776530
      0.7489970              0.0328517              0.27405800
      0.2831450              1.0812500              0.78542100
SP   1   1.00
      0.0998317              1.0000000              1.00000000
D    1   1.00
      1.1000000              1.0000000
D    1   1.00
      0.2750000              1.0000000
F    1   1.00
      0.4500000              1.0000000
****
S     0
S    6   1.00
  21917.1000000              0.0018690
   3301.4900000              0.0142300
    754.1460000              0.0696960
    212.7110000              0.2384870
     67.9896000              0.4833070
     23.0515000              0.3380740
SP   6   1.00
    423.7350000             -0.0023767              0.0040610
    100.7100000             -0.0316930              0.0306810
     32.1599000             -0.1133170              0.1304520
     11.8079000              0.0560900              0.3272050
      4.6311000              0.5922550              0.4528510
      1.8702500              0.4550060              0.2560420
SP   3   1.00
      2.6158400             -0.2503740             -0.0145110
      0.9221670              0.0669570              0.3102630
      0.3412870              1.0545100              0.7544830
SP   1   1.00
      0.1171670              1.0000000              1.0000000
D    1   1.00
      1.3000000              1.0000000
D    1   1.00
      0.3250000              1.0000000
F    1   1.00
      0.5500000              1.0000000
****
Cl     0
S    6   1.00
  25180.1000000              0.0018330
   3780.3500000              0.0140340
    860.4740000              0.0690970
    242.1450000              0.2374520
     77.3349000              0.4830340
     26.2470000              0.3398560
SP   6   1.00
    491.7650000             -0.0022974              0.0039894
    116.9840000             -0.0307140              0.0303180
     37.4153000             -0.1125280              0.1298800
     13.7834000              0.0450160              0.3279510
      5.4521500              0.5893530              0.4535270
      2.2258800              0.4652060              0.2521540
SP   3   1.00
      3.1864900             -0.2518300             -0.0142990
      1.1442700              0.0615890              0.3235720
      0.4203770              1.0601800              0.7435070
SP   1   1.00
      0.1426570              1.0000000              1.0000000
D    1   1.00
      1.5000000              1.0000000
D    1   1.00
      0.3750000              1.0000000
F    1   1.00
      0.7000000              1.0000000
****
}

set {
reference uhf
freeze_core true
e_convergence 10
d_convergence 10
dft_spherical_points 1202
dft_radial_points 99
}

e = energy('b3lyp')

print_out('Grab this energy {0}'.format(e))
--------------------------------------------------------------------------

    Molecular point group: c1

    Geometry (in Bohr), charge = 0, multiplicity = 2:

       Center              X                  Y                   Z               Mass
    ------------   -----------------  -----------------  -----------------  -----------------
         C           -0.323340318387     0.000695306921     0.000206042593    12.000000000000
         C            0.062185180913    -1.400492248479    -2.427556281007    12.000000000000
         C            0.060852223213     2.799962637721    -0.000189130207    12.000000000000
         C            0.060263205313    -1.400726894679     2.427587279293    12.000000000000
         H            2.089783288313    -1.645430839379    -2.852144600707     1.007825032230
         H           -0.764583950587    -0.386841877379    -4.023168885907     1.007825032230
         H           -0.763673774087    -3.289856753479    -2.345451578907     1.007825032230
         H            2.086713494013     3.289262364821    -0.001895629207     1.007825032230
         H           -0.764551433387     3.679972589021     1.676877830593     1.007825032230
         H           -0.766479010287     3.682809097021    -1.675807947707     1.007825032230
         H            2.084159286113    -1.641759621079     2.841995730293     1.007825032230
         H           -0.767480373687    -3.293125756279     2.351783677993     1.007825032230
         H           -0.766458703287    -0.388347108679     4.027240939393     1.007825032230

  Charge       = 0
  Multiplicity = 2
  Basis Set: ANONYMOUS4687FCCA
    Blend: 6-31G_2DFP_
  Basis Set: (ANONYMOUS4687FCCA AUX)
    Blend: DEF2-UNIVERSAL-JKFIT

    Orbital Energies [Eh]
    ---------------------

    Alpha Occupied:

       1A    -10.180342     2A    -10.167064     3A    -10.167024
       4A    -10.166958     5A     -0.797767     6A     -0.686225
       7A     -0.686150     8A     -0.530776     9A     -0.441125
      10A     -0.434791    11A     -0.434552    12A     -0.382839
      13A     -0.382357    14A     -0.363612    15A     -0.338257
      16A     -0.337740    17A     -0.168961

    Alpha Virtual:

      18A      0.076073    19A      0.134103    20A      0.134206
      21A      0.142413    22A      0.142843    23A      0.154880
      24A      0.178619    25A      0.178934    26A      0.203549
      27A      0.214802    28A      0.275759    29A      0.276213
      30A      0.399101    31A      0.399353    32A      0.403346
      33A      0.423986    34A      0.424209    35A      0.456595
      36A      0.495365    37A      0.495412    38A      0.512161
      39A      0.513982    40A      0.578675    41A      0.578943
      42A      0.591366    43A      0.591885    44A      0.602605
      45A      0.624763    46A      0.631747    47A      0.635972
      48A      0.636552    49A      0.663340    50A      0.663485
      51A      0.683736    52A      0.683967    53A      0.734993
      54A      0.825327    55A      0.825486    56A      0.853915
      57A      0.914707    58A      0.915342    59A      0.944109
      60A      0.944613    61A      0.961222    62A      0.961386
      63A      1.003450    64A      1.127699    65A      1.128514
      66A      1.142211    67A      1.162961    68A      1.163590
      69A      1.223326    70A      1.274154    71A      1.274798
      72A      1.279387    73A      1.324259    74A      1.324452
      75A      1.355974    76A      1.365916    77A      1.366211
      78A      1.392444    79A      1.403522    80A      1.404562
      81A      1.416724    82A      1.417478    83A      1.427938
      84A      1.491498    85A      1.499061    86A      1.542777
      87A      1.542893    88A      1.573925    89A      1.574980
      90A      1.669825    91A      1.739248    92A      1.739580
      93A      1.768328    94A      1.830737    95A      1.832067
      96A      1.971723    97A      2.018256    98A      2.018519
      99A      2.019623   100A      2.051816   101A      2.053475
     102A      2.738364   103A      2.738611   104A      2.790926
     105A      2.811428   106A      2.889739   107A      2.890133
     108A      2.894982   109A      2.929181   110A      2.929808
     111A      2.958988   112A      2.964187   113A      2.964574
     114A      3.034003   115A      3.070629   116A      3.071940
     117A      3.084353   118A      3.168484   119A      3.169063
     120A      3.180600   121A      3.285201   122A      3.285429
     123A      3.326268   124A      3.328060   125A      3.375614
     126A      3.489034   127A      3.491273   128A      3.514007
     129A      3.525336   130A      3.568250   131A      3.568387
     132A      3.575294   133A      3.665536   134A      3.667183
     135A      3.679676   136A      3.693442   137A      3.694798
     138A      3.776609   139A      3.776979   140A      3.789175
     141A      3.911478   142A      3.912985   143A      4.034447
     144A      4.111163   145A      4.111570   146A      4.147817
     147A      4.148408   148A      4.173250   149A      4.202089
     150A      4.202800   151A      4.203933   152A      4.210850
     153A      4.315207   154A      4.316693   155A      4.358981
     156A      4.423432   157A      4.425417   158A      4.443503
     159A      4.515891   160A      4.517761   161A      4.578250
     162A      4.578303   163A      4.617587   164A      4.709401
     165A      4.773927   166A      4.775243   167A      4.836931
     168A      4.962830   169A      5.002089   170A      5.003860
     171A      5.228065   172A      5.246228   173A      5.247396
     174A      5.355434   175A      5.355583   176A      5.479345

    Beta Occupied:

       1A    -10.167822     2A    -10.167778     3A    -10.167724
       4A    -10.166520     5A     -0.781092     6A     -0.684027
       7A     -0.683952     8A     -0.511747     9A     -0.431172
      10A     -0.430914    11A     -0.421823    12A     -0.376937
      13A     -0.376428    14A     -0.362596    15A     -0.333374
      16A     -0.332869

    Beta Virtual:

      17A     -0.025743    18A      0.077082    19A      0.135003
      20A      0.135085    21A      0.144310    22A      0.144688
      23A      0.163339    24A      0.182292    25A      0.182604
      26A      0.215031    27A      0.218930    28A      0.282115
      29A      0.282553    30A      0.400275    31A      0.400519
      32A      0.419792    33A      0.426796    34A      0.427022
      35A      0.468502    36A      0.497620    37A      0.497680
      38A      0.513896    39A      0.556326    40A      0.584220
      41A      0.584501    42A      0.597541    43A      0.598072
      44A      0.610022    45A      0.628138    46A      0.631914
      47A      0.639263    48A      0.639822    49A      0.666894
      50A      0.667059    51A      0.686389    52A      0.686585
      53A      0.757516    54A      0.830494    55A      0.830656
      56A      0.855269    57A      0.922704    58A      0.923288
      59A      0.945948    60A      0.953539    61A      0.966540
      62A      0.966680    63A      1.008690    64A      1.131773
      65A      1.132500    66A      1.155574    67A      1.168011
      68A      1.168696    69A      1.232298    70A      1.279755
      71A      1.280393    72A      1.285140    73A      1.329252
      74A      1.329437    75A      1.365375    76A      1.371200
      77A      1.371429    78A      1.393504    79A      1.406995
      80A      1.408018    81A      1.421768    82A      1.422514
      83A      1.428225    84A      1.492547    85A      1.509502
      86A      1.547122    87A      1.547372    88A      1.581708
      89A      1.582936    90A      1.674672    91A      1.745008
      92A      1.745345    93A      1.779107    94A      1.834603
      95A      1.835912    96A      1.972583    97A      2.024912
      98A      2.025998    99A      2.039658   100A      2.058523
     101A      2.060205   102A      2.746720   103A      2.746926
     104A      2.811840   105A      2.816061   106A      2.902443
     107A      2.902837   108A      2.924652   109A      2.931674
     110A      2.932283   111A      2.960056   112A      2.968723
     113A      2.969122   114A      3.041938   115A      3.080498
     116A      3.081887   117A      3.086175   118A      3.184215
     119A      3.184784   120A      3.188330   121A      3.289961
     122A      3.290266   123A      3.330084   124A      3.331852
     125A      3.383433   126A      3.491778   127A      3.493989
     128A      3.512374   129A      3.528381   130A      3.574883
     131A      3.581591   132A      3.581994   133A      3.670275
     134A      3.671951   135A      3.692961   136A      3.725320
     137A      3.726194   138A      3.781111   139A      3.781537
     140A      3.817704   141A      3.921344   142A      3.922752
     143A      4.045335   144A      4.117905   145A      4.118460
     146A      4.155096   147A      4.155547   148A      4.187307
     149A      4.208391   150A      4.209312   151A      4.210961
     152A      4.215326   153A      4.322625   154A      4.324155
     155A      4.362343   156A      4.431651   157A      4.433601
     158A      4.446414   159A      4.523691   160A      4.525540
     161A      4.588829   162A      4.588925   163A      4.624780
     164A      4.719745   165A      4.780864   166A      4.782212
     167A      4.839850   168A      4.967625   169A      5.006149
     170A      5.007878   171A      5.233780   172A      5.248016
     173A      5.249176   174A      5.361902   175A      5.362077
     176A      5.481666

    Final Occupation by Irrep:
              A
    DOCC [    16 ]
    SOCC [     1 ]

  @DF-UKS Final Energy:  -157.81306536226606

   => Energetics <=

    Nuclear Repulsion Energy =            125.3946217417562536
    One-Electron Energy =                -458.7488931632148024
    Two-Electron Energy =                 195.8483494794660658
    DFT Exchange-Correlation Energy =     -20.3071434202736150
    Empirical Dispersion Energy =           0.0000000000000000
    VV10 Nonlocal Energy =                  0.0000000000000000
    Total Energy =                       -157.8130653622660589

  UHF NO Occupations:
  HONO-2 :   15  A 1.9996008
  HONO-1 :   16  A 1.9989805
  HONO-0 :   17  A 1.0000000
  LUNO+0 :   18  A 0.0010195
  LUNO+1 :   19  A 0.0003992
  LUNO+2 :   20  A 0.0001979
  LUNO+3 :   21  A 0.0001971

Computation Completed

Properties will be evaluated at   0.000000,   0.000000,   0.000000 [a0]

Properties computed using the SCF density matrix

  Nuclear Dipole Moment: [e a0]
     X:     0.8272      Y:     0.0033      Z:    -0.0003

  Electronic Dipole Moment: [e a0]
     X:    -0.7493      Y:    -0.0034      Z:     0.0010

  Dipole Moment: [e a0]
     X:     0.0779      Y:    -0.0001      Z:     0.0008     Total:     0.0779

  Dipole Moment: [D]
     X:     0.1980      Y:    -0.0002      Z:     0.0019     Total:     0.1980

*** tstop() called on n079 at Fri Nov  5 13:00:38 2021
Module time:
	user time   =     496.00 seconds =       8.27 minutes
	system time =       4.57 seconds =       0.08 minutes
	total time  =        126 seconds =       2.10 minutes
Total time:
	user time   =     496.00 seconds =       8.27 minutes
	system time =       4.57 seconds =       0.08 minutes
	total time  =        126 seconds =       2.10 minutes
Grab this energy -157.81306536226606
    Psi4 stopped on: Friday, 05 November 2021 01:00PM
    Psi4 wall time for execution: 0:02:05.88

*** Psi4 exiting successfully. Buy a developer a beer!
