                               Psi4 1.4a2.dev629

  ==> Input File <==

--------------------------------------------------------------------------
import os
memory 14 GB

molecule {
 C   -0.3247908851   -0.0000018221   -0.0010216632
 C    0.0626435756   -1.4014377304   -2.4255519088
 C    0.0618759469    2.8016626784    0.0018009682
 C    0.0613494194   -1.4002193942    2.4270435808
 H    2.0868165068   -1.6438591880   -2.8477213880
 H   -0.7656786362   -0.3882270425   -4.0255006588
 H   -0.7659906478   -3.2918098029   -2.3492214940
 H    2.0867476438    3.2881423119   -0.0006943971
 H   -0.7659565843    3.6803376829    1.6761609656
 H   -0.7656585477    3.6801593880   -1.6767289604
 H    2.0869598724   -1.6443775713    2.8472305070
 H   -0.7654697779   -3.2920861672    2.3488031945
 H   -0.7654557626   -0.3883076563    4.0254012542
units bohr
0 2
}

basis {

assign 6-31g_2dfp_

[ 6-31g_2dfp_ ]

spherical

!----------------------------------------------------------------------
! Basis Set Exchange
! Version v0.8.13
! https://www.basissetexchange.org
!----------------------------------------------------------------------
!   Basis set: 6-31G(2df,p)
! Description: 6-31G(2df,p)
!        Role: orbital
!     Version: 0  (Data from the original Basis Set Exchange)
!----------------------------------------------------------------------

****
H     0
S    3   1.00
     18.7311370              0.03349460
      2.8253937              0.23472695
      0.6401217              0.81375733
S    1   1.00
      0.1612778              1.00000000
P    1   1.00
      1.5000000              1.0000000
P    1   1.00
      0.3750000              1.0000000
****
B     0
S    6   1.00
   2068.8823000              0.0018663
    310.6495700              0.0142515
     70.6830330              0.0695516
     19.8610800              0.2325729
      6.2993048              0.4670787
      2.1270270              0.3634314
SP   3   1.00
      4.7279710             -0.1303938              0.0745976
      1.1903377             -0.1307889              0.3078467
      0.3594117              1.1309444              0.7434568
SP   1   1.00
      0.1267512              1.0000000              1.0000000
D    1   1.00
      0.8020000              1.0000000
D    1   1.00
      0.2005000              1.0000000
F    1   1.00
      0.5000000              1.0000000
****
C     0
S    6   1.00
   3047.5249000              0.0018347
    457.3695100              0.0140373
    103.9486900              0.0688426
     29.2101550              0.2321844
      9.2866630              0.4679413
      3.1639270              0.3623120
SP   3   1.00
      7.8682724             -0.1193324              0.0689991
      1.8812885             -0.1608542              0.3164240
      0.5442493              1.1434564              0.7443083
SP   1   1.00
      0.1687144              1.0000000              1.0000000
D    1   1.00
      1.2520000              1.0000000
D    1   1.00
      0.3130000              1.0000000
F    1   1.00
      0.8000000              1.0000000
****
N     0
S    6   1.00
   4173.5110000              0.0018348
    627.4579000              0.0139950
    142.9021000              0.0685870
     40.2343300              0.2322410
     12.8202100              0.4690700
      4.3904370              0.3604550
SP   3   1.00
     11.6263580             -0.1149610              0.0675800
      2.7162800             -0.1691180              0.3239070
      0.7722180              1.1458520              0.7408950
SP   1   1.00
      0.2120313              1.0000000              1.0000000
D    1   1.00
      1.8260000              1.0000000
D    1   1.00
      0.4565000              1.0000000
F    1   1.00
      1.0000000              1.0000000
****
O     0
S    6   1.00
   5484.6717000              0.0018311
    825.2349500              0.0139501
    188.0469600              0.0684451
     52.9645000              0.2327143
     16.8975700              0.4701930
      5.7996353              0.3585209
SP   3   1.00
     15.5396160             -0.1107775              0.0708743
      3.5999336             -0.1480263              0.3397528
      1.0137618              1.1307670              0.7271586
SP   1   1.00
      0.2700058              1.0000000              1.0000000
D    1   1.00
      2.5840000              1.0000000
D    1   1.00
      0.6460000              1.0000000
F    1   1.00
      1.4000000              1.0000000
****
F     0
S    6   1.00
   7001.7130900              0.0018196169
   1051.3660900              0.0139160796
    239.2856900              0.0684053245
     67.3974453              0.233185760
     21.5199573              0.471267439
      7.40310130             0.356618546
SP   3   1.00
     20.8479528             -0.108506975            0.0716287243
      4.80830834            -0.146451658            0.3459121030
      1.34406986             1.128688580            0.7224699570
SP   1   1.00
      0.358151393            1.0000000              1.0000000
D    1   1.00
      3.5000000              1.0000000
D    1   1.00
      0.8750000              1.0000000
F    1   1.00
      1.8500000              1.0000000
****
Al     0
S    6   1.00
  13983.1000000              0.00194267
   2098.7500000              0.0148599
    477.7050000              0.0728494
    134.3600000              0.2468300
     42.8709000              0.4872580
     14.5189000              0.3234960
SP   6   1.00
    239.6680000             -0.00292619             0.00460285
     57.4419000             -0.0374080              0.0331990
     18.2859000             -0.1144870              0.1362820
      6.5991400              0.1156350              0.3304760
      2.4904900              0.6125950              0.4491460
      0.9445400              0.3937990              0.2657040
SP   3   1.00
      1.2779000             -0.2276060             -0.0175130
      0.3975900              0.00144583             0.2445330
      0.1600950              1.0927900              0.8049340
SP   1   1.00
      0.0556577              1.0000000              1.0000000
D    1   1.00
      0.6500000              1.0000000
D    1   1.00
      0.1625000              1.0000000
F    1   1.00
      0.2500000              1.0000000
****
Si     0
S    6   1.00
  16115.9000000              0.00195948
   2425.5800000              0.01492880
    553.8670000              0.07284780
    156.3400000              0.24613000
     50.0683000              0.48591400
     17.0178000              0.32500200
SP   6   1.00
    292.7180000             -0.00278094             0.00443826
     69.8731000             -0.03571460             0.03266790
     22.3363000             -0.11498500             0.13472100
      8.1503900              0.09356340             0.32867800
      3.1345800              0.60301700             0.44964000
      1.2254300              0.41895900             0.26137200
SP   3   1.00
      1.7273800             -0.24463000            -0.01779510
      0.5729220              0.00431572             0.25353900
      0.2221920              1.09818000             0.80066900
SP   1   1.00
      0.0778369              1.00000000             1.00000000
D    1   1.00
      0.9000000              1.0000000
D    1   1.00
      0.2250000              1.0000000
F    1   1.00
      0.3200000              1.0000000
****
P     0
S    6   1.00
  19413.3000000              0.0018516
   2909.4200000              0.0142062
    661.3640000              0.0699995
    185.7590000              0.2400790
     59.1943000              0.4847620
     20.0310000              0.3352000
SP   6   1.00
    339.4780000             -0.00278217             0.00456462
     81.0101000             -0.0360499              0.03369360
     25.8780000             -0.1166310              0.13975500
      9.4522100              0.0968328              0.33936200
      3.6656600              0.6144180              0.45092100
      1.4674600              0.4037980              0.23858600
SP   3   1.00
      2.1562300             -0.2529230             -0.01776530
      0.7489970              0.0328517              0.27405800
      0.2831450              1.0812500              0.78542100
SP   1   1.00
      0.0998317              1.0000000              1.00000000
D    1   1.00
      1.1000000              1.0000000
D    1   1.00
      0.2750000              1.0000000
F    1   1.00
      0.4500000              1.0000000
****
S     0
S    6   1.00
  21917.1000000              0.0018690
   3301.4900000              0.0142300
    754.1460000              0.0696960
    212.7110000              0.2384870
     67.9896000              0.4833070
     23.0515000              0.3380740
SP   6   1.00
    423.7350000             -0.0023767              0.0040610
    100.7100000             -0.0316930              0.0306810
     32.1599000             -0.1133170              0.1304520
     11.8079000              0.0560900              0.3272050
      4.6311000              0.5922550              0.4528510
      1.8702500              0.4550060              0.2560420
SP   3   1.00
      2.6158400             -0.2503740             -0.0145110
      0.9221670              0.0669570              0.3102630
      0.3412870              1.0545100              0.7544830
SP   1   1.00
      0.1171670              1.0000000              1.0000000
D    1   1.00
      1.3000000              1.0000000
D    1   1.00
      0.3250000              1.0000000
F    1   1.00
      0.5500000              1.0000000
****
Cl     0
S    6   1.00
  25180.1000000              0.0018330
   3780.3500000              0.0140340
    860.4740000              0.0690970
    242.1450000              0.2374520
     77.3349000              0.4830340
     26.2470000              0.3398560
SP   6   1.00
    491.7650000             -0.0022974              0.0039894
    116.9840000             -0.0307140              0.0303180
     37.4153000             -0.1125280              0.1298800
     13.7834000              0.0450160              0.3279510
      5.4521500              0.5893530              0.4535270
      2.2258800              0.4652060              0.2521540
SP   3   1.00
      3.1864900             -0.2518300             -0.0142990
      1.1442700              0.0615890              0.3235720
      0.4203770              1.0601800              0.7435070
SP   1   1.00
      0.1426570              1.0000000              1.0000000
D    1   1.00
      1.5000000              1.0000000
D    1   1.00
      0.3750000              1.0000000
F    1   1.00
      0.7000000              1.0000000
****
}

set {
reference uhf
freeze_core true
e_convergence 10
d_convergence 10
dft_spherical_points 1202
dft_radial_points 99
}

e = energy('b3lyp')

print_out('Grab this energy {0}'.format(e))
--------------------------------------------------------------------------

    Molecular point group: c1

    Geometry (in Bohr), charge = 0, multiplicity = 2:

       Center              X                  Y                   Z               Mass
    ------------   -----------------  -----------------  -----------------  -----------------
         C           -0.325006227974    -0.000002111489    -0.001459069727    12.000000000000
         C            0.062428232726    -1.401438019789    -2.425989315327    12.000000000000
         C            0.061660604026     2.801662389011     0.001363561673    12.000000000000
         C            0.061134076526    -1.400219683589     2.426606174273    12.000000000000
         H            2.086601163926    -1.643859477389    -2.848158794527     1.007825032230
         H           -0.765893979074    -0.388227331889    -4.025938065327     1.007825032230
         H           -0.766205990674    -3.291810092289    -2.349658900527     1.007825032230
         H            2.086532300926     3.288142022511    -0.001131803627     1.007825032230
         H           -0.766171927174     3.680337393511     1.675723559073     1.007825032230
         H           -0.765873890574     3.680159098611    -1.677166366927     1.007825032230
         H            2.086744529526    -1.644377860689     2.846793100473     1.007825032230
         H           -0.765685120774    -3.292086456589     2.348365787973     1.007825032230
         H           -0.765671105474    -0.388307945689     4.024963847673     1.007825032230

  Charge       = 0
  Multiplicity = 2
  Basis Set: ANONYMOUS009AE396
    Blend: 6-31G_2DFP_
  Basis Set: (ANONYMOUS009AE396 AUX)
    Blend: DEF2-UNIVERSAL-JKFIT

    Orbital Energies [Eh]
    ---------------------

    Alpha Occupied:

       1A    -10.180407     2A    -10.167041     3A    -10.167012
       4A    -10.166967     5A     -0.797750     6A     -0.686248
       7A     -0.686089     8A     -0.530782     9A     -0.441182
      10A     -0.434615    11A     -0.434599    12A     -0.382744
      13A     -0.382669    14A     -0.363483    15A     -0.338201
      16A     -0.337614    17A     -0.169144

    Alpha Virtual:

      18A      0.076076    19A      0.134114    20A      0.134191
      21A      0.142542    22A      0.142668    23A      0.154959
      24A      0.178796    25A      0.178897    26A      0.203573
      27A      0.214755    28A      0.275686    29A      0.275940
      30A      0.399100    31A      0.399318    32A      0.403263
      33A      0.424065    34A      0.424075    35A      0.456686
      36A      0.495329    37A      0.495399    38A      0.512206
      39A      0.513880    40A      0.578904    41A      0.578988
      42A      0.591642    43A      0.591679    44A      0.602789
      45A      0.624679    46A      0.631710    47A      0.636088
      48A      0.636097    49A      0.663481    50A      0.663659
      51A      0.683732    52A      0.683754    53A      0.734797
      54A      0.825348    55A      0.825356    56A      0.853918
      57A      0.914857    58A      0.915067    59A      0.944175
      60A      0.944661    61A      0.961245    62A      0.961372
      63A      1.003454    64A      1.128191    65A      1.128226
      66A      1.142228    67A      1.163679    68A      1.163725
      69A      1.223162    70A      1.274247    71A      1.274603
      72A      1.279596    73A      1.324050    74A      1.324168
      75A      1.356230    76A      1.365440    77A      1.365918
      78A      1.392445    79A      1.403865    80A      1.404340
      81A      1.417078    82A      1.417620    83A      1.427967
      84A      1.491311    85A      1.499473    86A      1.542708
      87A      1.543052    88A      1.573846    89A      1.574481
      90A      1.669546    91A      1.739065    92A      1.739276
      93A      1.768388    94A      1.830944    95A      1.831079
      96A      1.971460    97A      2.017237    98A      2.018960
      99A      2.019788   100A      2.052425   101A      2.053630
     102A      2.738242   103A      2.738336   104A      2.791121
     105A      2.811397   106A      2.889037   107A      2.890378
     108A      2.895256   109A      2.929351   110A      2.929681
     111A      2.958925   112A      2.963977   113A      2.964560
     114A      3.034358   115A      3.070310   116A      3.070571
     117A      3.084278   118A      3.168774   119A      3.169008
     120A      3.180575   121A      3.285891   122A      3.286325
     123A      3.327473   124A      3.327566   125A      3.375786
     126A      3.489893   127A      3.489969   128A      3.513838
     129A      3.525791   130A      3.568002   131A      3.568197
     132A      3.575763   133A      3.665586   134A      3.666007
     135A      3.679463   136A      3.694171   137A      3.694195
     138A      3.776518   139A      3.776545   140A      3.787848
     141A      3.911846   142A      3.912551   143A      4.034149
     144A      4.110920   145A      4.111362   146A      4.147911
     147A      4.148279   148A      4.173196   149A      4.202269
     150A      4.203332   151A      4.203382   152A      4.210900
     153A      4.315366   154A      4.316947   155A      4.359451
     156A      4.423722   157A      4.424834   158A      4.443200
     159A      4.516954   160A      4.517322   161A      4.578109
     162A      4.578686   163A      4.617029   164A      4.709782
     165A      4.774286   166A      4.774589   167A      4.835712
     168A      4.962960   169A      5.002809   170A      5.003375
     171A      5.227928   172A      5.246470   173A      5.246947
     174A      5.355200   175A      5.355256   176A      5.478984

    Beta Occupied:

       1A    -10.167794     2A    -10.167766     3A    -10.167733
       4A    -10.166580     5A     -0.781080     6A     -0.684046
       7A     -0.683892     8A     -0.511744     9A     -0.430984
      10A     -0.430954    11A     -0.421909    12A     -0.376847
      13A     -0.376757    14A     -0.362466    15A     -0.333327
      16A     -0.332741

    Beta Virtual:

      17A     -0.025843    18A      0.077080    19A      0.134981
      20A      0.135082    21A      0.144433    22A      0.144523
      23A      0.163407    24A      0.182480    25A      0.182557
      26A      0.214984    27A      0.218933    28A      0.282061
      29A      0.282286    30A      0.400269    31A      0.400487
      32A      0.419683    33A      0.426878    34A      0.426889
      35A      0.468608    36A      0.497597    37A      0.497662
      38A      0.513936    39A      0.556226    40A      0.584440
      41A      0.584524    42A      0.597818    43A      0.597874
      44A      0.610186    45A      0.628078    46A      0.631869
      47A      0.639379    48A      0.639385    49A      0.667044
      50A      0.667230    51A      0.686359    52A      0.686385
      53A      0.757341    54A      0.830523    55A      0.830526
      56A      0.855267    57A      0.922838    58A      0.923049
      59A      0.946008    60A      0.953584    61A      0.966527
      62A      0.966635    63A      1.008713    64A      1.132236
      65A      1.132252    66A      1.155569    67A      1.168741
      68A      1.168810    69A      1.232131    70A      1.279833
      71A      1.280241    72A      1.285360    73A      1.329038
      74A      1.329176    75A      1.365622    76A      1.370652
      77A      1.371182    78A      1.393497    79A      1.407318
      80A      1.407816    81A      1.422127    82A      1.422625
      83A      1.428243    84A      1.492358    85A      1.509924
      86A      1.547101    87A      1.547470    88A      1.581727
      89A      1.582346    90A      1.674409    91A      1.744827
      92A      1.745035    93A      1.779145    94A      1.834793
      95A      1.834924    96A      1.972318    97A      2.025337
      98A      2.026145    99A      2.038678   100A      2.059138
     101A      2.060387   102A      2.746584   103A      2.746666
     104A      2.811817   105A      2.816238   106A      2.901781
     107A      2.903097   108A      2.924947   109A      2.931788
     110A      2.932183   111A      2.959988   112A      2.968542
     113A      2.969102   114A      3.042251   115A      3.080252
     116A      3.080529   117A      3.086089   118A      3.184390
     119A      3.184669   120A      3.188332   121A      3.290681
     122A      3.291054   123A      3.331273   124A      3.331392
     125A      3.383615   126A      3.492626   127A      3.492732
     128A      3.512206   129A      3.528846   130A      3.575612
     131A      3.581436   132A      3.581544   133A      3.670227
     134A      3.670834   135A      3.692745   136A      3.725636
     137A      3.725999   138A      3.781041   139A      3.781162
     140A      3.816385   141A      3.921605   142A      3.922352
     143A      4.045064   144A      4.117720   145A      4.118163
     146A      4.155168   147A      4.155464   148A      4.187216
     149A      4.209226   150A      4.209307   151A      4.210308
     152A      4.215349   153A      4.322795   154A      4.324442
     155A      4.362813   156A      4.431892   157A      4.433000
     158A      4.446096   159A      4.524742   160A      4.525081
     161A      4.588766   162A      4.589299   163A      4.624213
     164A      4.720153   165A      4.781274   166A      4.781537
     167A      4.838639   168A      4.967751   169A      5.006833
     170A      5.007401   171A      5.233644   172A      5.248263
     173A      5.248723   174A      5.361669   175A      5.361763
     176A      5.481312

    Final Occupation by Irrep:
              A
    DOCC [    16 ]
    SOCC [     1 ]

  @DF-UKS Final Energy:  -157.81306248922121

   => Energetics <=

    Nuclear Repulsion Energy =            125.3921946339535793
    One-Electron Energy =                -458.7442255976584420
    Two-Electron Energy =                 195.8460418127280320
    DFT Exchange-Correlation Energy =     -20.3070733382443827
    Empirical Dispersion Energy =           0.0000000000000000
    VV10 Nonlocal Energy =                  0.0000000000000000
    Total Energy =                       -157.8130624892212097

  UHF NO Occupations:
  HONO-2 :   15  A 1.9996024
  HONO-1 :   16  A 1.9989820
  HONO-0 :   17  A 1.0000000
  LUNO+0 :   18  A 0.0010180
  LUNO+1 :   19  A 0.0003976
  LUNO+2 :   20  A 0.0001981
  LUNO+3 :   21  A 0.0001972

Computation Completed

Properties will be evaluated at   0.000000,   0.000000,   0.000000 [a0]

Properties computed using the SCF density matrix

  Nuclear Dipole Moment: [e a0]
     X:     0.8257      Y:    -0.0000      Z:    -0.0031

  Electronic Dipole Moment: [e a0]
     X:    -0.7470      Y:     0.0000      Z:     0.0030

  Dipole Moment: [e a0]
     X:     0.0787      Y:     0.0000      Z:    -0.0000     Total:     0.0787

  Dipole Moment: [D]
     X:     0.2000      Y:     0.0000      Z:    -0.0001     Total:     0.2000

*** tstop() called on n071 at Fri Nov  5 11:29:19 2021
Module time:
	user time   =     572.76 seconds =       9.55 minutes
	system time =      13.30 seconds =       0.22 minutes
	total time  =        148 seconds =       2.47 minutes
Total time:
	user time   =     572.76 seconds =       9.55 minutes
	system time =      13.30 seconds =       0.22 minutes
	total time  =        148 seconds =       2.47 minutes
Grab this energy -157.8130624892212
    Psi4 stopped on: Friday, 05 November 2021 11:29AM
    Psi4 wall time for execution: 0:02:27.50

*** Psi4 exiting successfully. Buy a developer a beer!
