                               Psi4 1.4a2.dev629

  ==> Input File <==

--------------------------------------------------------------------------
import os
memory 14 GB

molecule {
 C   -0.3236404828   -0.0000023056    0.0004945412
 C    0.0611952612   -1.4032462926   -2.4304427328
 C    0.0611588762    2.8072044200    0.0000401951
 C    0.0613628569   -1.4039546006    2.4317499361
 H    2.0908516300   -1.6471677122   -2.8527856848
 H   -0.7674085594   -0.3880639779   -4.0333082234
 H   -0.7676635814   -3.2983247265   -2.3524998034
 H    2.0870904858    3.2946970872   -0.0000280844
 H   -0.7659031351    3.6857613788    1.6765568269
 H   -0.7657211529    3.6867509916   -1.6772132584
 H    2.0836083808   -1.6476214075    2.8535161208
 H   -0.7638053987   -3.2923434444    2.3554848025
 H   -0.7637330574   -0.3937137238    4.0284353646
units bohr
0 2
}

basis {

assign 6-31g_2dfp_

[ 6-31g_2dfp_ ]

spherical

!----------------------------------------------------------------------
! Basis Set Exchange
! Version v0.8.13
! https://www.basissetexchange.org
!----------------------------------------------------------------------
!   Basis set: 6-31G(2df,p)
! Description: 6-31G(2df,p)
!        Role: orbital
!     Version: 0  (Data from the original Basis Set Exchange)
!----------------------------------------------------------------------

****
H     0
S    3   1.00
     18.7311370              0.03349460
      2.8253937              0.23472695
      0.6401217              0.81375733
S    1   1.00
      0.1612778              1.00000000
P    1   1.00
      1.5000000              1.0000000
P    1   1.00
      0.3750000              1.0000000
****
B     0
S    6   1.00
   2068.8823000              0.0018663
    310.6495700              0.0142515
     70.6830330              0.0695516
     19.8610800              0.2325729
      6.2993048              0.4670787
      2.1270270              0.3634314
SP   3   1.00
      4.7279710             -0.1303938              0.0745976
      1.1903377             -0.1307889              0.3078467
      0.3594117              1.1309444              0.7434568
SP   1   1.00
      0.1267512              1.0000000              1.0000000
D    1   1.00
      0.8020000              1.0000000
D    1   1.00
      0.2005000              1.0000000
F    1   1.00
      0.5000000              1.0000000
****
C     0
S    6   1.00
   3047.5249000              0.0018347
    457.3695100              0.0140373
    103.9486900              0.0688426
     29.2101550              0.2321844
      9.2866630              0.4679413
      3.1639270              0.3623120
SP   3   1.00
      7.8682724             -0.1193324              0.0689991
      1.8812885             -0.1608542              0.3164240
      0.5442493              1.1434564              0.7443083
SP   1   1.00
      0.1687144              1.0000000              1.0000000
D    1   1.00
      1.2520000              1.0000000
D    1   1.00
      0.3130000              1.0000000
F    1   1.00
      0.8000000              1.0000000
****
N     0
S    6   1.00
   4173.5110000              0.0018348
    627.4579000              0.0139950
    142.9021000              0.0685870
     40.2343300              0.2322410
     12.8202100              0.4690700
      4.3904370              0.3604550
SP   3   1.00
     11.6263580             -0.1149610              0.0675800
      2.7162800             -0.1691180              0.3239070
      0.7722180              1.1458520              0.7408950
SP   1   1.00
      0.2120313              1.0000000              1.0000000
D    1   1.00
      1.8260000              1.0000000
D    1   1.00
      0.4565000              1.0000000
F    1   1.00
      1.0000000              1.0000000
****
O     0
S    6   1.00
   5484.6717000              0.0018311
    825.2349500              0.0139501
    188.0469600              0.0684451
     52.9645000              0.2327143
     16.8975700              0.4701930
      5.7996353              0.3585209
SP   3   1.00
     15.5396160             -0.1107775              0.0708743
      3.5999336             -0.1480263              0.3397528
      1.0137618              1.1307670              0.7271586
SP   1   1.00
      0.2700058              1.0000000              1.0000000
D    1   1.00
      2.5840000              1.0000000
D    1   1.00
      0.6460000              1.0000000
F    1   1.00
      1.4000000              1.0000000
****
F     0
S    6   1.00
   7001.7130900              0.0018196169
   1051.3660900              0.0139160796
    239.2856900              0.0684053245
     67.3974453              0.233185760
     21.5199573              0.471267439
      7.40310130             0.356618546
SP   3   1.00
     20.8479528             -0.108506975            0.0716287243
      4.80830834            -0.146451658            0.3459121030
      1.34406986             1.128688580            0.7224699570
SP   1   1.00
      0.358151393            1.0000000              1.0000000
D    1   1.00
      3.5000000              1.0000000
D    1   1.00
      0.8750000              1.0000000
F    1   1.00
      1.8500000              1.0000000
****
Al     0
S    6   1.00
  13983.1000000              0.00194267
   2098.7500000              0.0148599
    477.7050000              0.0728494
    134.3600000              0.2468300
     42.8709000              0.4872580
     14.5189000              0.3234960
SP   6   1.00
    239.6680000             -0.00292619             0.00460285
     57.4419000             -0.0374080              0.0331990
     18.2859000             -0.1144870              0.1362820
      6.5991400              0.1156350              0.3304760
      2.4904900              0.6125950              0.4491460
      0.9445400              0.3937990              0.2657040
SP   3   1.00
      1.2779000             -0.2276060             -0.0175130
      0.3975900              0.00144583             0.2445330
      0.1600950              1.0927900              0.8049340
SP   1   1.00
      0.0556577              1.0000000              1.0000000
D    1   1.00
      0.6500000              1.0000000
D    1   1.00
      0.1625000              1.0000000
F    1   1.00
      0.2500000              1.0000000
****
Si     0
S    6   1.00
  16115.9000000              0.00195948
   2425.5800000              0.01492880
    553.8670000              0.07284780
    156.3400000              0.24613000
     50.0683000              0.48591400
     17.0178000              0.32500200
SP   6   1.00
    292.7180000             -0.00278094             0.00443826
     69.8731000             -0.03571460             0.03266790
     22.3363000             -0.11498500             0.13472100
      8.1503900              0.09356340             0.32867800
      3.1345800              0.60301700             0.44964000
      1.2254300              0.41895900             0.26137200
SP   3   1.00
      1.7273800             -0.24463000            -0.01779510
      0.5729220              0.00431572             0.25353900
      0.2221920              1.09818000             0.80066900
SP   1   1.00
      0.0778369              1.00000000             1.00000000
D    1   1.00
      0.9000000              1.0000000
D    1   1.00
      0.2250000              1.0000000
F    1   1.00
      0.3200000              1.0000000
****
P     0
S    6   1.00
  19413.3000000              0.0018516
   2909.4200000              0.0142062
    661.3640000              0.0699995
    185.7590000              0.2400790
     59.1943000              0.4847620
     20.0310000              0.3352000
SP   6   1.00
    339.4780000             -0.00278217             0.00456462
     81.0101000             -0.0360499              0.03369360
     25.8780000             -0.1166310              0.13975500
      9.4522100              0.0968328              0.33936200
      3.6656600              0.6144180              0.45092100
      1.4674600              0.4037980              0.23858600
SP   3   1.00
      2.1562300             -0.2529230             -0.01776530
      0.7489970              0.0328517              0.27405800
      0.2831450              1.0812500              0.78542100
SP   1   1.00
      0.0998317              1.0000000              1.00000000
D    1   1.00
      1.1000000              1.0000000
D    1   1.00
      0.2750000              1.0000000
F    1   1.00
      0.4500000              1.0000000
****
S     0
S    6   1.00
  21917.1000000              0.0018690
   3301.4900000              0.0142300
    754.1460000              0.0696960
    212.7110000              0.2384870
     67.9896000              0.4833070
     23.0515000              0.3380740
SP   6   1.00
    423.7350000             -0.0023767              0.0040610
    100.7100000             -0.0316930              0.0306810
     32.1599000             -0.1133170              0.1304520
     11.8079000              0.0560900              0.3272050
      4.6311000              0.5922550              0.4528510
      1.8702500              0.4550060              0.2560420
SP   3   1.00
      2.6158400             -0.2503740             -0.0145110
      0.9221670              0.0669570              0.3102630
      0.3412870              1.0545100              0.7544830
SP   1   1.00
      0.1171670              1.0000000              1.0000000
D    1   1.00
      1.3000000              1.0000000
D    1   1.00
      0.3250000              1.0000000
F    1   1.00
      0.5500000              1.0000000
****
Cl     0
S    6   1.00
  25180.1000000              0.0018330
   3780.3500000              0.0140340
    860.4740000              0.0690970
    242.1450000              0.2374520
     77.3349000              0.4830340
     26.2470000              0.3398560
SP   6   1.00
    491.7650000             -0.0022974              0.0039894
    116.9840000             -0.0307140              0.0303180
     37.4153000             -0.1125280              0.1298800
     13.7834000              0.0450160              0.3279510
      5.4521500              0.5893530              0.4535270
      2.2258800              0.4652060              0.2521540
SP   3   1.00
      3.1864900             -0.2518300             -0.0142990
      1.1442700              0.0615890              0.3235720
      0.4203770              1.0601800              0.7435070
SP   1   1.00
      0.1426570              1.0000000              1.0000000
D    1   1.00
      1.5000000              1.0000000
D    1   1.00
      0.3750000              1.0000000
F    1   1.00
      0.7000000              1.0000000
****
}

set {
reference uhf
freeze_core true
e_convergence 10
d_convergence 10
dft_spherical_points 1202
dft_radial_points 99
}

e = energy('b3lyp')

print_out('Grab this energy {0}'.format(e))
--------------------------------------------------------------------------

    Molecular point group: c1

    Geometry (in Bohr), charge = 0, multiplicity = 2:

       Center              X                  Y                   Z               Mass
    ------------   -----------------  -----------------  -----------------  -----------------
         C           -0.323662920833    -0.000002111452     0.000139770366    12.000000000000
         C            0.061172823167    -1.403246098452    -2.430797503634    12.000000000000
         C            0.061136438167     2.807204614148    -0.000314575734    12.000000000000
         C            0.061340418867    -1.403954406452     2.431395165266    12.000000000000
         H            2.090829191967    -1.647167518052    -2.853140455634     1.007825032230
         H           -0.767430997433    -0.388063783752    -4.033662994234     1.007825032230
         H           -0.767686019433    -3.298324532352    -2.352854574234     1.007825032230
         H            2.087068047767     3.294697281348    -0.000382855234     1.007825032230
         H           -0.765925573133     3.685761572948     1.676202056066     1.007825032230
         H           -0.765743590933     3.686751185748    -1.677568029234     1.007825032230
         H            2.083585942767    -1.647621213352     2.853161349966     1.007825032230
         H           -0.763827836733    -3.292343250252     2.355130031666     1.007825032230
         H           -0.763755495433    -0.393713529652     4.028080593766     1.007825032230

  Charge       = 0
  Multiplicity = 2
  Basis Set: ANONYMOUS33549507
    Blend: 6-31G_2DFP_
  Basis Set: (ANONYMOUS33549507 AUX)
    Blend: DEF2-UNIVERSAL-JKFIT

    Orbital Energies [Eh]
    ---------------------

    Alpha Occupied:

       1A    -10.181113     2A    -10.167957     3A    -10.167377
       4A    -10.166794     5A     -0.796722     6A     -0.686210
       7A     -0.685566     8A     -0.530777     9A     -0.440532
      10A     -0.434281    11A     -0.434104    12A     -0.382747
      13A     -0.382302    14A     -0.363730    15A     -0.337842
      16A     -0.337779    17A     -0.169286

    Alpha Virtual:

      18A      0.076100    19A      0.134103    20A      0.134112
      21A      0.142324    22A      0.142541    23A      0.154813
      24A      0.178282    25A      0.178928    26A      0.202437
      27A      0.214460    28A      0.275409    29A      0.275497
      30A      0.399169    31A      0.399326    32A      0.403548
      33A      0.424286    34A      0.424478    35A      0.456029
      36A      0.495094    37A      0.495235    38A      0.511828
      39A      0.513569    40A      0.577998    41A      0.578238
      42A      0.590779    43A      0.591380    44A      0.602143
      45A      0.624359    46A      0.631331    47A      0.635114
      48A      0.635881    49A      0.662752    50A      0.663116
      51A      0.683101    52A      0.683738    53A      0.735194
      54A      0.825160    55A      0.825953    56A      0.852912
      57A      0.914290    58A      0.914312    59A      0.942806
      60A      0.945181    61A      0.960088    62A      0.960590
      63A      1.002336    64A      1.126890    65A      1.127545
      66A      1.141880    67A      1.162404    68A      1.162575
      69A      1.222434    70A      1.273402    71A      1.273765
      72A      1.278834    73A      1.323660    74A      1.324373
      75A      1.355808    76A      1.363967    77A      1.364496
      78A      1.390940    79A      1.403930    80A      1.404700
      81A      1.416435    82A      1.417068    83A      1.426486
      84A      1.490296    85A      1.498514    86A      1.542038
      87A      1.542149    88A      1.572997    89A      1.573572
      90A      1.669870    91A      1.738681    92A      1.738856
      93A      1.766816    94A      1.828625    95A      1.831838
      96A      1.970331    97A      2.015898    98A      2.017851
      99A      2.018105   100A      2.048173   101A      2.048258
     102A      2.737440   103A      2.738325   104A      2.789762
     105A      2.808707   106A      2.888479   107A      2.889046
     108A      2.893460   109A      2.929205   110A      2.929446
     111A      2.958769   112A      2.964149   113A      2.965220
     114A      3.034050   115A      3.070131   116A      3.070552
     117A      3.082814   118A      3.167806   119A      3.168059
     120A      3.178741   121A      3.284727   122A      3.284856
     123A      3.326701   124A      3.326788   125A      3.376967
     126A      3.487523   127A      3.489194   128A      3.513234
     129A      3.522994   130A      3.568386   131A      3.568480
     132A      3.573100   133A      3.665647   134A      3.667118
     135A      3.677739   136A      3.692245   137A      3.693192
     138A      3.771768   139A      3.772929   140A      3.788418
     141A      3.909700   142A      3.910557   143A      4.032604
     144A      4.107630   145A      4.109215   146A      4.145320
     147A      4.149418   148A      4.172100   149A      4.198862
     150A      4.200683   151A      4.203107   152A      4.209549
     153A      4.313703   154A      4.315143   155A      4.356455
     156A      4.422116   157A      4.422592   158A      4.441141
     159A      4.513640   160A      4.514056   161A      4.574316
     162A      4.575166   163A      4.610242   164A      4.704718
     165A      4.768075   166A      4.768259   167A      4.832918
     168A      4.959850   169A      5.000784   170A      5.001935
     171A      5.226816   172A      5.241712   173A      5.249064
     174A      5.349987   175A      5.356021   176A      5.473737

    Beta Occupied:

       1A    -10.168717     2A    -10.168136     3A    -10.167567
       4A    -10.167247     5A     -0.780070     6A     -0.684033
       7A     -0.683389     8A     -0.511648     9A     -0.430681
      10A     -0.430484    11A     -0.421327    12A     -0.376878
      13A     -0.376415    14A     -0.362725    15A     -0.332953
      16A     -0.332905

    Beta Virtual:

      17A     -0.025775    18A      0.077098    19A      0.134950
      20A      0.135058    21A      0.144214    22A      0.144333
      23A      0.163229    24A      0.181936    25A      0.182564
      26A      0.214683    27A      0.217999    28A      0.281825
      29A      0.281917    30A      0.400303    31A      0.400468
      32A      0.420091    33A      0.427104    34A      0.427302
      35A      0.467583    36A      0.497340    37A      0.497481
      38A      0.513548    39A      0.555985    40A      0.583534
      41A      0.583789    42A      0.597042    43A      0.597599
      44A      0.609526    45A      0.627675    46A      0.631520
      47A      0.638326    48A      0.639052    49A      0.666344
      50A      0.666731    51A      0.685691    52A      0.686262
      53A      0.757895    54A      0.830285    55A      0.831131
      56A      0.854229    57A      0.922251    58A      0.922268
      59A      0.944640    60A      0.954199    61A      0.965398
      62A      0.965843    63A      1.007654    64A      1.130904
      65A      1.131590    66A      1.155244    67A      1.167461
      68A      1.167659    69A      1.231267    70A      1.278958
      71A      1.279326    72A      1.284652    73A      1.328605
      74A      1.329413    75A      1.365184    76A      1.369235
      77A      1.369740    78A      1.391989    79A      1.407411
      80A      1.408217    81A      1.421384    82A      1.422106
      83A      1.426722    84A      1.491346    85A      1.508893
      86A      1.546456    87A      1.546659    88A      1.580810
      89A      1.581366    90A      1.674708    91A      1.744458
      92A      1.744600    93A      1.777570    94A      1.832492
      95A      1.835646    96A      1.971190    97A      2.024262
      98A      2.024363    99A      2.037314   100A      2.054794
     101A      2.055014   102A      2.745857   103A      2.746770
     104A      2.809113   105A      2.814917   106A      2.901472
     107A      2.901893   108A      2.923070   109A      2.931572
     110A      2.931727   111A      2.959821   112A      2.968597
     113A      2.969745   114A      3.041896   115A      3.079876
     116A      3.080411   117A      3.084658   118A      3.183610
     119A      3.183941   120A      3.186505   121A      3.289325
     122A      3.289505   123A      3.330601   124A      3.330647
     125A      3.384803   126A      3.490301   127A      3.491910
     128A      3.511608   129A      3.526090   130A      3.572829
     131A      3.581776   132A      3.581842   133A      3.670443
     134A      3.672043   135A      3.691070   136A      3.724047
     137A      3.724974   138A      3.776287   139A      3.777383
     140A      3.817097   141A      3.919522   142A      3.920355
     143A      4.043555   144A      4.114907   145A      4.116094
     146A      4.152548   147A      4.156272   148A      4.186039
     149A      4.205317   150A      4.206814   151A      4.210301
     152A      4.213957   153A      4.321233   154A      4.322425
     155A      4.359840   156A      4.430244   157A      4.430635
     158A      4.444058   159A      4.521364   160A      4.521660
     161A      4.584942   162A      4.585701   163A      4.617449
     164A      4.714981   165A      4.774993   166A      4.775241
     167A      4.835836   168A      4.964623   169A      5.004800
     170A      5.005918   171A      5.232485   172A      5.243493
     173A      5.250840   174A      5.356425   175A      5.362431
     176A      5.476035

    Final Occupation by Irrep:
              A
    DOCC [    16 ]
    SOCC [     1 ]

  @DF-UKS Final Energy:  -157.81305822675714

   => Energetics <=

    Nuclear Repulsion Energy =            125.2137011024262137
    One-Electron Energy =                -458.3926390050550026
    Two-Electron Energy =                 195.6692350477343609
    DFT Exchange-Correlation Energy =     -20.3033553718627111
    Empirical Dispersion Energy =           0.0000000000000000
    VV10 Nonlocal Energy =                  0.0000000000000000
    Total Energy =                       -157.8130582267571356

  UHF NO Occupations:
  HONO-2 :   15  A 1.9996026
  HONO-1 :   16  A 1.9989734
  HONO-0 :   17  A 1.0000000
  LUNO+0 :   18  A 0.0010266
  LUNO+1 :   19  A 0.0003974
  LUNO+2 :   20  A 0.0001998
  LUNO+3 :   21  A 0.0001997

Computation Completed

Properties will be evaluated at   0.000000,   0.000000,   0.000000 [a0]

Properties computed using the SCF density matrix

  Nuclear Dipole Moment: [e a0]
     X:     0.8270      Y:    -0.0000      Z:    -0.0025

  Electronic Dipole Moment: [e a0]
     X:    -0.7483      Y:     0.0000      Z:     0.0049

  Dipole Moment: [e a0]
     X:     0.0788      Y:     0.0000      Z:     0.0024     Total:     0.0788

  Dipole Moment: [D]
     X:     0.2002      Y:     0.0000      Z:     0.0062     Total:     0.2003

*** tstop() called on n089 at Fri Nov  5 15:07:41 2021
Module time:
	user time   =     508.94 seconds =       8.48 minutes
	system time =       4.69 seconds =       0.08 minutes
	total time  =        129 seconds =       2.15 minutes
Total time:
	user time   =     508.94 seconds =       8.48 minutes
	system time =       4.69 seconds =       0.08 minutes
	total time  =        129 seconds =       2.15 minutes
Grab this energy -157.81305822675714
    Psi4 stopped on: Friday, 05 November 2021 03:07PM
    Psi4 wall time for execution: 0:02:09.18

*** Psi4 exiting successfully. Buy a developer a beer!
