                               Psi4 1.4a2.dev629

  ==> Input File <==

--------------------------------------------------------------------------
import os
memory 14 GB

molecule {
 C   -0.3233400526    0.0024906039   -0.0000000000
 C    0.0611680353   -1.3999780499   -2.4268932800
 C    0.0609646494    2.8017715767   -0.0000000000
 C    0.0611680353   -1.3999780499    2.4268932800
 H    2.0889121333   -1.6420722656   -2.8509764824
 H   -0.7680146187   -0.3892842641   -4.0301728573
 H   -0.7656393405   -3.2927701007   -2.3435768396
 H    2.0828409612    3.2840179727   -0.0000000000
 H   -0.7629629267    3.6799524468    1.6716933367
 H   -0.7629629267    3.6799524468   -1.6716933367
 H    2.0889121333   -1.6420722656    2.8509764824
 H   -0.7656393405   -3.2927701007    2.3435768396
 H   -0.7680146187   -0.3892842641    4.0301728573
units bohr
0 2
}

basis {

assign 6-31g_2dfp_

[ 6-31g_2dfp_ ]

spherical

!----------------------------------------------------------------------
! Basis Set Exchange
! Version v0.8.13
! https://www.basissetexchange.org
!----------------------------------------------------------------------
!   Basis set: 6-31G(2df,p)
! Description: 6-31G(2df,p)
!        Role: orbital
!     Version: 0  (Data from the original Basis Set Exchange)
!----------------------------------------------------------------------

****
H     0
S    3   1.00
     18.7311370              0.03349460
      2.8253937              0.23472695
      0.6401217              0.81375733
S    1   1.00
      0.1612778              1.00000000
P    1   1.00
      1.5000000              1.0000000
P    1   1.00
      0.3750000              1.0000000
****
B     0
S    6   1.00
   2068.8823000              0.0018663
    310.6495700              0.0142515
     70.6830330              0.0695516
     19.8610800              0.2325729
      6.2993048              0.4670787
      2.1270270              0.3634314
SP   3   1.00
      4.7279710             -0.1303938              0.0745976
      1.1903377             -0.1307889              0.3078467
      0.3594117              1.1309444              0.7434568
SP   1   1.00
      0.1267512              1.0000000              1.0000000
D    1   1.00
      0.8020000              1.0000000
D    1   1.00
      0.2005000              1.0000000
F    1   1.00
      0.5000000              1.0000000
****
C     0
S    6   1.00
   3047.5249000              0.0018347
    457.3695100              0.0140373
    103.9486900              0.0688426
     29.2101550              0.2321844
      9.2866630              0.4679413
      3.1639270              0.3623120
SP   3   1.00
      7.8682724             -0.1193324              0.0689991
      1.8812885             -0.1608542              0.3164240
      0.5442493              1.1434564              0.7443083
SP   1   1.00
      0.1687144              1.0000000              1.0000000
D    1   1.00
      1.2520000              1.0000000
D    1   1.00
      0.3130000              1.0000000
F    1   1.00
      0.8000000              1.0000000
****
N     0
S    6   1.00
   4173.5110000              0.0018348
    627.4579000              0.0139950
    142.9021000              0.0685870
     40.2343300              0.2322410
     12.8202100              0.4690700
      4.3904370              0.3604550
SP   3   1.00
     11.6263580             -0.1149610              0.0675800
      2.7162800             -0.1691180              0.3239070
      0.7722180              1.1458520              0.7408950
SP   1   1.00
      0.2120313              1.0000000              1.0000000
D    1   1.00
      1.8260000              1.0000000
D    1   1.00
      0.4565000              1.0000000
F    1   1.00
      1.0000000              1.0000000
****
O     0
S    6   1.00
   5484.6717000              0.0018311
    825.2349500              0.0139501
    188.0469600              0.0684451
     52.9645000              0.2327143
     16.8975700              0.4701930
      5.7996353              0.3585209
SP   3   1.00
     15.5396160             -0.1107775              0.0708743
      3.5999336             -0.1480263              0.3397528
      1.0137618              1.1307670              0.7271586
SP   1   1.00
      0.2700058              1.0000000              1.0000000
D    1   1.00
      2.5840000              1.0000000
D    1   1.00
      0.6460000              1.0000000
F    1   1.00
      1.4000000              1.0000000
****
F     0
S    6   1.00
   7001.7130900              0.0018196169
   1051.3660900              0.0139160796
    239.2856900              0.0684053245
     67.3974453              0.233185760
     21.5199573              0.471267439
      7.40310130             0.356618546
SP   3   1.00
     20.8479528             -0.108506975            0.0716287243
      4.80830834            -0.146451658            0.3459121030
      1.34406986             1.128688580            0.7224699570
SP   1   1.00
      0.358151393            1.0000000              1.0000000
D    1   1.00
      3.5000000              1.0000000
D    1   1.00
      0.8750000              1.0000000
F    1   1.00
      1.8500000              1.0000000
****
Al     0
S    6   1.00
  13983.1000000              0.00194267
   2098.7500000              0.0148599
    477.7050000              0.0728494
    134.3600000              0.2468300
     42.8709000              0.4872580
     14.5189000              0.3234960
SP   6   1.00
    239.6680000             -0.00292619             0.00460285
     57.4419000             -0.0374080              0.0331990
     18.2859000             -0.1144870              0.1362820
      6.5991400              0.1156350              0.3304760
      2.4904900              0.6125950              0.4491460
      0.9445400              0.3937990              0.2657040
SP   3   1.00
      1.2779000             -0.2276060             -0.0175130
      0.3975900              0.00144583             0.2445330
      0.1600950              1.0927900              0.8049340
SP   1   1.00
      0.0556577              1.0000000              1.0000000
D    1   1.00
      0.6500000              1.0000000
D    1   1.00
      0.1625000              1.0000000
F    1   1.00
      0.2500000              1.0000000
****
Si     0
S    6   1.00
  16115.9000000              0.00195948
   2425.5800000              0.01492880
    553.8670000              0.07284780
    156.3400000              0.24613000
     50.0683000              0.48591400
     17.0178000              0.32500200
SP   6   1.00
    292.7180000             -0.00278094             0.00443826
     69.8731000             -0.03571460             0.03266790
     22.3363000             -0.11498500             0.13472100
      8.1503900              0.09356340             0.32867800
      3.1345800              0.60301700             0.44964000
      1.2254300              0.41895900             0.26137200
SP   3   1.00
      1.7273800             -0.24463000            -0.01779510
      0.5729220              0.00431572             0.25353900
      0.2221920              1.09818000             0.80066900
SP   1   1.00
      0.0778369              1.00000000             1.00000000
D    1   1.00
      0.9000000              1.0000000
D    1   1.00
      0.2250000              1.0000000
F    1   1.00
      0.3200000              1.0000000
****
P     0
S    6   1.00
  19413.3000000              0.0018516
   2909.4200000              0.0142062
    661.3640000              0.0699995
    185.7590000              0.2400790
     59.1943000              0.4847620
     20.0310000              0.3352000
SP   6   1.00
    339.4780000             -0.00278217             0.00456462
     81.0101000             -0.0360499              0.03369360
     25.8780000             -0.1166310              0.13975500
      9.4522100              0.0968328              0.33936200
      3.6656600              0.6144180              0.45092100
      1.4674600              0.4037980              0.23858600
SP   3   1.00
      2.1562300             -0.2529230             -0.01776530
      0.7489970              0.0328517              0.27405800
      0.2831450              1.0812500              0.78542100
SP   1   1.00
      0.0998317              1.0000000              1.00000000
D    1   1.00
      1.1000000              1.0000000
D    1   1.00
      0.2750000              1.0000000
F    1   1.00
      0.4500000              1.0000000
****
S     0
S    6   1.00
  21917.1000000              0.0018690
   3301.4900000              0.0142300
    754.1460000              0.0696960
    212.7110000              0.2384870
     67.9896000              0.4833070
     23.0515000              0.3380740
SP   6   1.00
    423.7350000             -0.0023767              0.0040610
    100.7100000             -0.0316930              0.0306810
     32.1599000             -0.1133170              0.1304520
     11.8079000              0.0560900              0.3272050
      4.6311000              0.5922550              0.4528510
      1.8702500              0.4550060              0.2560420
SP   3   1.00
      2.6158400             -0.2503740             -0.0145110
      0.9221670              0.0669570              0.3102630
      0.3412870              1.0545100              0.7544830
SP   1   1.00
      0.1171670              1.0000000              1.0000000
D    1   1.00
      1.3000000              1.0000000
D    1   1.00
      0.3250000              1.0000000
F    1   1.00
      0.5500000              1.0000000
****
Cl     0
S    6   1.00
  25180.1000000              0.0018330
   3780.3500000              0.0140340
    860.4740000              0.0690970
    242.1450000              0.2374520
     77.3349000              0.4830340
     26.2470000              0.3398560
SP   6   1.00
    491.7650000             -0.0022974              0.0039894
    116.9840000             -0.0307140              0.0303180
     37.4153000             -0.1125280              0.1298800
     13.7834000              0.0450160              0.3279510
      5.4521500              0.5893530              0.4535270
      2.2258800              0.4652060              0.2521540
SP   3   1.00
      3.1864900             -0.2518300             -0.0142990
      1.1442700              0.0615890              0.3235720
      0.4203770              1.0601800              0.7435070
SP   1   1.00
      0.1426570              1.0000000              1.0000000
D    1   1.00
      1.5000000              1.0000000
D    1   1.00
      0.3750000              1.0000000
F    1   1.00
      0.7000000              1.0000000
****
}

set {
reference uhf
freeze_core true
e_convergence 10
d_convergence 10
dft_spherical_points 1202
dft_radial_points 99
}

e = energy('b3lyp')

print_out('Grab this energy {0}'.format(e))
--------------------------------------------------------------------------

    Molecular point group: cs

    Geometry (in Bohr), charge = 0, multiplicity = 2:

       Center              X                  Y                   Z               Mass
    ------------   -----------------  -----------------  -----------------  -----------------
         C           -0.323340178229     0.001661651086     0.000000000000    12.000000000000
         C            0.061167909671    -1.400807002714    -2.426893280000    12.000000000000
         C            0.060964523771     2.800942623886     0.000000000000    12.000000000000
         C            0.061167909671    -1.400807002714     2.426893280000    12.000000000000
         H            2.088912007671    -1.642901218414    -2.850976482400     1.007825032230
         H           -0.768014744329    -0.390113216914    -4.030172857300     1.007825032230
         H           -0.765639466129    -3.293599053514    -2.343576839600     1.007825032230
         H            2.082840835571     3.283189019886     0.000000000000     1.007825032230
         H           -0.762963052329     3.679123493986     1.671693336700     1.007825032230
         H           -0.762963052329     3.679123493986    -1.671693336700     1.007825032230
         H            2.088912007671    -1.642901218414     2.850976482400     1.007825032230
         H           -0.765639466129    -3.293599053514     2.343576839600     1.007825032230
         H           -0.768014744329    -0.390113216914     4.030172857300     1.007825032230

  Charge       = 0
  Multiplicity = 2
  Basis Set: ANONYMOUS9F1B431F
    Blend: 6-31G_2DFP_
  Basis Set: (ANONYMOUS9F1B431F AUX)
    Blend: DEF2-UNIVERSAL-JKFIT

    Orbital Energies [Eh]
    ---------------------

    Alpha Occupied:

       1Ap   -10.180342     1App  -10.167456     2Ap   -10.167426
       3Ap   -10.166162     4Ap    -0.797768     5Ap    -0.686630
       2App   -0.685743     6Ap    -0.530776     7Ap    -0.441130
       3App   -0.434692     8Ap    -0.434652     9Ap    -0.382855
       4App   -0.382340     5App   -0.363608    10Ap    -0.338033
       6App   -0.337965    11Ap    -0.168961

    Alpha Virtual:

      12Ap     0.076070     7App    0.134115    13Ap     0.134175
      14Ap     0.142471     8App    0.142801    15Ap     0.154874
       9App    0.178496    16Ap     0.179067    17Ap     0.203547
      10App    0.214803    11App    0.275761    18Ap     0.276210
      12App    0.399116    19Ap     0.399339    20Ap     0.403345
      21Ap     0.423949    13App    0.424248    22Ap     0.456593
      14App    0.495380    23Ap     0.495400    15App    0.512158
      24Ap     0.513979    16App    0.578411    25Ap     0.579222
      17App    0.591040    26Ap     0.592183    27Ap     0.602617
      28Ap     0.624756    18App    0.631675    29Ap     0.635914
      19App    0.636693    20App    0.663262    30Ap     0.663566
      21App    0.683515    31Ap     0.684207    32Ap     0.734994
      33Ap     0.824792    22App    0.826014    23App    0.853915
      24App    0.914896    34Ap     0.915142    25App    0.944131
      35Ap     0.944622    36Ap     0.960365    26App    0.962230
      37Ap     1.003458    27App    1.128002    38Ap     1.128207
      39Ap     1.142223    40Ap     1.163078    28App    1.163474
      41Ap     1.223323    29App    1.274152    42Ap     1.274822
      43Ap     1.279349    44Ap     1.324001    30App    1.324710
      45Ap     1.355983    31App    1.365613    46Ap     1.366479
      32App    1.392441    33App    1.403373    47Ap     1.404737
      34App    1.416396    48Ap     1.417829    35App    1.427912
      36App    1.491495    49Ap     1.499092    50Ap     1.542504
      37App    1.543163    51Ap     1.574162    38App    1.574734
      52Ap     1.669806    39App    1.739130    53Ap     1.739702
      54Ap     1.768284    40App    1.829312    55Ap     1.833561
      41App    1.971678    56Ap     2.017585    42App    2.019228
      57Ap     2.019612    43App    2.051920    58Ap     2.053396
      59Ap     2.737754    44App    2.739214    60Ap     2.790932
      45App    2.811420    46App    2.889423    61Ap     2.890492
      62Ap     2.894935    63Ap     2.929411    47App    2.929581
      48App    2.959003    49App    2.964020    64Ap     2.964749
      65Ap     3.034017    50App    3.071180    66Ap     3.071393
      51App    3.084364    52App    3.168719    67Ap     3.168844
      68Ap     3.180600    69Ap     3.285296    53App    3.285343
      54App    3.326880    70Ap     3.327440    71Ap     3.375617
      72Ap     3.489493    55App    3.490803    56App    3.514025
      73Ap     3.525341    57App    3.567772    74Ap     3.568752
      58App    3.575409    59App    3.665813    75Ap     3.666737
      76Ap     3.679756    60App    3.693248    77Ap     3.695037
      78Ap     3.776176    61App    3.777479    79Ap     3.789164
      62App    3.911524    80Ap     3.912930    81Ap     4.034412
      63App    4.109274    82Ap     4.113236    83Ap     4.146978
      64App    4.149138    84Ap     4.173452    85Ap     4.201024
      65App    4.202209    86Ap     4.205410    66App    4.211275
      67App    4.314392    87Ap     4.317432    68App    4.359029
      88Ap     4.424015    69App    4.424766    70App    4.443617
      71App    4.516189    89Ap     4.517429    90Ap     4.578125
      72App    4.578417    91Ap     4.617520    92Ap     4.709501
      93Ap     4.773693    73App    4.775506    74App    4.836956
      94Ap     4.962847    75App    5.002027    95Ap     5.003944
      96Ap     5.227841    97Ap     5.242667    76App    5.250843
      77App    5.351786    98Ap     5.359442    78App    5.479483

    Beta Occupied:

       1App  -10.168212     1Ap   -10.168192     2Ap   -10.166930
       3Ap   -10.166509     4Ap    -0.781094     5Ap    -0.684424
       2App   -0.683554     6Ap    -0.511748     3App   -0.431082
       7Ap    -0.431007     8Ap    -0.421824     9Ap    -0.376943
       4App   -0.376421     5App   -0.362593    10Ap    -0.333159
       6App   -0.333085

    Beta Virtual:

      11Ap    -0.025743    12Ap     0.077079    13Ap     0.135000
       7App    0.135070    14Ap     0.144388     8App    0.144625
      15Ap     0.163334     9App    0.182158    16Ap     0.182747
      10App    0.215033    17Ap     0.218929    11App    0.282121
      18Ap     0.282546    12App    0.400282    19Ap     0.400514
      20Ap     0.419786    21Ap     0.426759    13App    0.427063
      22Ap     0.468501    14App    0.497637    23Ap     0.497663
      15App    0.513894    24Ap     0.556325    16App    0.583952
      25Ap     0.584780    17App    0.597256    26Ap     0.598335
      27Ap     0.610027    28Ap     0.628137    18App    0.631869
      29Ap     0.639242    19App    0.639899    20App    0.666814
      30Ap     0.667143    21App    0.686164    31Ap     0.686828
      32Ap     0.757517    33Ap     0.829913    22App    0.831230
      23App    0.855270    24App    0.922895    34Ap     0.923080
      25App    0.945968    35Ap     0.953547    36Ap     0.965758
      26App    0.967454    37Ap     1.008699    27App    1.132088
      38Ap     1.132178    39Ap     1.155599    40Ap     1.168221
      28App    1.168478    41Ap     1.232295    29App    1.279749
      42Ap     1.280420    43Ap     1.285102    44Ap     1.328960
      30App    1.329729    45Ap     1.365389    31App    1.370897
      46Ap     1.371690    32App    1.393507    33App    1.406790
      47Ap     1.408246    34App    1.421405    48Ap     1.422921
      35App    1.428180    36App    1.492544    49Ap     1.509534
      50Ap     1.546865    37App    1.547618    51Ap     1.582045
      38App    1.582595    52Ap     1.674651    39App    1.744866
      53Ap     1.745491    54Ap     1.779064    40App    1.833199
      55Ap     1.837387    41App    1.972543    56Ap     2.025283
      42App    2.025572    57Ap     2.039740    43App    2.058668
      58Ap     2.060080    59Ap     2.746095    44App    2.747548
      45App    2.811833    60Ap     2.816065    46App    2.902248
      61Ap     2.903036    62Ap     2.924644    63Ap     2.931929
      47App    2.932028    48App    2.960067    49App    2.968506
      64Ap     2.969353    65Ap     3.041952    50App    3.080997
      66Ap     3.081368    51App    3.086210    52App    3.184476
      67Ap     3.184559    68Ap     3.188308    69Ap     3.290094
      53App    3.290143    54App    3.330681    70Ap     3.331248
      71Ap     3.383434    72Ap     3.492238    55App    3.493516
      56App    3.512392    73Ap     3.528390    57App    3.574711
      58App    3.581657    74Ap     3.582096    59App    3.670296
      75Ap     3.671846    76Ap     3.692993    60App    3.725184
      77Ap     3.726328    78Ap     3.780723    61App    3.781989
      79Ap     3.817709    62App    3.921371    80Ap     3.922718
      81Ap     4.045291    63App    4.116390    82Ap     4.119726
      83Ap     4.154449    64App    4.156137    84Ap     4.187488
      65App    4.208061    85Ap     4.208073    86Ap     4.212344
      66App    4.215767    67App    4.321921    87Ap     4.324764
      68App    4.362404    88Ap     4.432338    69App    4.432793
      70App    4.446589    71App    4.524048    89Ap     4.525148
      90Ap     4.588767    72App    4.588973    91Ap     4.624715
      92Ap     4.719845    93Ap     4.780722    73App    4.782381
      74App    4.839876    94Ap     4.967643    75App    5.006073
      95Ap     5.007975    96Ap     5.233549    97Ap     5.244454
      76App    5.252637    77App    5.358258    98Ap     5.365926
      78App    5.481804

    Final Occupation by Irrep:
             Ap   App
    DOCC [    10,    6 ]
    SOCC [     1,    0 ]

  @DF-UKS Final Energy:  -157.81305158548437

   => Energetics <=

    Nuclear Repulsion Energy =            125.3946946170872820
    One-Electron Energy =                -458.7490062767785730
    Two-Electron Energy =                 195.8484091169521548
    DFT Exchange-Correlation Energy =     -20.3071490427452339
    Empirical Dispersion Energy =           0.0000000000000000
    VV10 Nonlocal Energy =                  0.0000000000000000
    Total Energy =                       -157.8130515854843736

  UHF NO Occupations:
  HONO-2 :    9 Ap 1.9996009
  HONO-1 :   10 Ap 1.9989805
  HONO-0 :   11 Ap 1.0000000
  LUNO+0 :   12 Ap 0.0010195
  LUNO+1 :   13 Ap 0.0003991
  LUNO+2 :    7App 0.0001979
  LUNO+3 :   14 Ap 0.0001972

Computation Completed

Properties will be evaluated at   0.000000,   0.000000,   0.000000 [a0]

Properties computed using the SCF density matrix

  Nuclear Dipole Moment: [e a0]
     X:     0.8272      Y:    -0.0058      Z:     0.0000

  Electronic Dipole Moment: [e a0]
     X:    -0.7493      Y:     0.0083      Z:     0.0000

  Dipole Moment: [e a0]
     X:     0.0779      Y:     0.0025      Z:     0.0000     Total:     0.0780

  Dipole Moment: [D]
     X:     0.1980      Y:     0.0063      Z:     0.0000     Total:     0.1981

*** tstop() called on n031 at Fri Nov  5 15:12:28 2021
Module time:
	user time   =     916.61 seconds =      15.28 minutes
	system time =      18.46 seconds =       0.31 minutes
	total time  =        235 seconds =       3.92 minutes
Total time:
	user time   =     916.61 seconds =      15.28 minutes
	system time =      18.46 seconds =       0.31 minutes
	total time  =        235 seconds =       3.92 minutes
Grab this energy -157.81305158548437
    Psi4 stopped on: Friday, 05 November 2021 03:12PM
    Psi4 wall time for execution: 0:03:54.74

*** Psi4 exiting successfully. Buy a developer a beer!
