                               Psi4 1.4a2.dev629

  ==> Input File <==

--------------------------------------------------------------------------
import os
memory 14 GB

molecule {
 C   -0.3233401264    0.0004921077   -0.0000013359
 C    0.0610890182   -1.4006730199   -2.4260029045
 C    0.0611175708    2.8026173201   -0.0000482516
 C    0.0610945784   -1.4005925026    2.4260513813
 H    2.0890190313   -1.6480311562   -2.8448850765
 H   -0.7625576027   -0.3847921445   -4.0270020935
 H   -0.7705955973   -3.2927185271   -2.3496263751
 H    2.0826122437    3.2885998069   -0.0046444144
 H   -0.7594700742    3.6795038634    1.6744412689
 H   -0.7674688222    3.6799617292   -1.6704667514
 H    2.0890280120   -1.6399582346    2.8495427602
 H   -0.7625548633   -3.2959533491    2.3472407632
 H   -0.7705812450   -0.3884802068    4.0254010292
units bohr
0 2
}

basis {

assign 6-31g_2dfp_

[ 6-31g_2dfp_ ]

spherical

!----------------------------------------------------------------------
! Basis Set Exchange
! Version v0.8.13
! https://www.basissetexchange.org
!----------------------------------------------------------------------
!   Basis set: 6-31G(2df,p)
! Description: 6-31G(2df,p)
!        Role: orbital
!     Version: 0  (Data from the original Basis Set Exchange)
!----------------------------------------------------------------------

****
H     0
S    3   1.00
     18.7311370              0.03349460
      2.8253937              0.23472695
      0.6401217              0.81375733
S    1   1.00
      0.1612778              1.00000000
P    1   1.00
      1.5000000              1.0000000
P    1   1.00
      0.3750000              1.0000000
****
B     0
S    6   1.00
   2068.8823000              0.0018663
    310.6495700              0.0142515
     70.6830330              0.0695516
     19.8610800              0.2325729
      6.2993048              0.4670787
      2.1270270              0.3634314
SP   3   1.00
      4.7279710             -0.1303938              0.0745976
      1.1903377             -0.1307889              0.3078467
      0.3594117              1.1309444              0.7434568
SP   1   1.00
      0.1267512              1.0000000              1.0000000
D    1   1.00
      0.8020000              1.0000000
D    1   1.00
      0.2005000              1.0000000
F    1   1.00
      0.5000000              1.0000000
****
C     0
S    6   1.00
   3047.5249000              0.0018347
    457.3695100              0.0140373
    103.9486900              0.0688426
     29.2101550              0.2321844
      9.2866630              0.4679413
      3.1639270              0.3623120
SP   3   1.00
      7.8682724             -0.1193324              0.0689991
      1.8812885             -0.1608542              0.3164240
      0.5442493              1.1434564              0.7443083
SP   1   1.00
      0.1687144              1.0000000              1.0000000
D    1   1.00
      1.2520000              1.0000000
D    1   1.00
      0.3130000              1.0000000
F    1   1.00
      0.8000000              1.0000000
****
N     0
S    6   1.00
   4173.5110000              0.0018348
    627.4579000              0.0139950
    142.9021000              0.0685870
     40.2343300              0.2322410
     12.8202100              0.4690700
      4.3904370              0.3604550
SP   3   1.00
     11.6263580             -0.1149610              0.0675800
      2.7162800             -0.1691180              0.3239070
      0.7722180              1.1458520              0.7408950
SP   1   1.00
      0.2120313              1.0000000              1.0000000
D    1   1.00
      1.8260000              1.0000000
D    1   1.00
      0.4565000              1.0000000
F    1   1.00
      1.0000000              1.0000000
****
O     0
S    6   1.00
   5484.6717000              0.0018311
    825.2349500              0.0139501
    188.0469600              0.0684451
     52.9645000              0.2327143
     16.8975700              0.4701930
      5.7996353              0.3585209
SP   3   1.00
     15.5396160             -0.1107775              0.0708743
      3.5999336             -0.1480263              0.3397528
      1.0137618              1.1307670              0.7271586
SP   1   1.00
      0.2700058              1.0000000              1.0000000
D    1   1.00
      2.5840000              1.0000000
D    1   1.00
      0.6460000              1.0000000
F    1   1.00
      1.4000000              1.0000000
****
F     0
S    6   1.00
   7001.7130900              0.0018196169
   1051.3660900              0.0139160796
    239.2856900              0.0684053245
     67.3974453              0.233185760
     21.5199573              0.471267439
      7.40310130             0.356618546
SP   3   1.00
     20.8479528             -0.108506975            0.0716287243
      4.80830834            -0.146451658            0.3459121030
      1.34406986             1.128688580            0.7224699570
SP   1   1.00
      0.358151393            1.0000000              1.0000000
D    1   1.00
      3.5000000              1.0000000
D    1   1.00
      0.8750000              1.0000000
F    1   1.00
      1.8500000              1.0000000
****
Al     0
S    6   1.00
  13983.1000000              0.00194267
   2098.7500000              0.0148599
    477.7050000              0.0728494
    134.3600000              0.2468300
     42.8709000              0.4872580
     14.5189000              0.3234960
SP   6   1.00
    239.6680000             -0.00292619             0.00460285
     57.4419000             -0.0374080              0.0331990
     18.2859000             -0.1144870              0.1362820
      6.5991400              0.1156350              0.3304760
      2.4904900              0.6125950              0.4491460
      0.9445400              0.3937990              0.2657040
SP   3   1.00
      1.2779000             -0.2276060             -0.0175130
      0.3975900              0.00144583             0.2445330
      0.1600950              1.0927900              0.8049340
SP   1   1.00
      0.0556577              1.0000000              1.0000000
D    1   1.00
      0.6500000              1.0000000
D    1   1.00
      0.1625000              1.0000000
F    1   1.00
      0.2500000              1.0000000
****
Si     0
S    6   1.00
  16115.9000000              0.00195948
   2425.5800000              0.01492880
    553.8670000              0.07284780
    156.3400000              0.24613000
     50.0683000              0.48591400
     17.0178000              0.32500200
SP   6   1.00
    292.7180000             -0.00278094             0.00443826
     69.8731000             -0.03571460             0.03266790
     22.3363000             -0.11498500             0.13472100
      8.1503900              0.09356340             0.32867800
      3.1345800              0.60301700             0.44964000
      1.2254300              0.41895900             0.26137200
SP   3   1.00
      1.7273800             -0.24463000            -0.01779510
      0.5729220              0.00431572             0.25353900
      0.2221920              1.09818000             0.80066900
SP   1   1.00
      0.0778369              1.00000000             1.00000000
D    1   1.00
      0.9000000              1.0000000
D    1   1.00
      0.2250000              1.0000000
F    1   1.00
      0.3200000              1.0000000
****
P     0
S    6   1.00
  19413.3000000              0.0018516
   2909.4200000              0.0142062
    661.3640000              0.0699995
    185.7590000              0.2400790
     59.1943000              0.4847620
     20.0310000              0.3352000
SP   6   1.00
    339.4780000             -0.00278217             0.00456462
     81.0101000             -0.0360499              0.03369360
     25.8780000             -0.1166310              0.13975500
      9.4522100              0.0968328              0.33936200
      3.6656600              0.6144180              0.45092100
      1.4674600              0.4037980              0.23858600
SP   3   1.00
      2.1562300             -0.2529230             -0.01776530
      0.7489970              0.0328517              0.27405800
      0.2831450              1.0812500              0.78542100
SP   1   1.00
      0.0998317              1.0000000              1.00000000
D    1   1.00
      1.1000000              1.0000000
D    1   1.00
      0.2750000              1.0000000
F    1   1.00
      0.4500000              1.0000000
****
S     0
S    6   1.00
  21917.1000000              0.0018690
   3301.4900000              0.0142300
    754.1460000              0.0696960
    212.7110000              0.2384870
     67.9896000              0.4833070
     23.0515000              0.3380740
SP   6   1.00
    423.7350000             -0.0023767              0.0040610
    100.7100000             -0.0316930              0.0306810
     32.1599000             -0.1133170              0.1304520
     11.8079000              0.0560900              0.3272050
      4.6311000              0.5922550              0.4528510
      1.8702500              0.4550060              0.2560420
SP   3   1.00
      2.6158400             -0.2503740             -0.0145110
      0.9221670              0.0669570              0.3102630
      0.3412870              1.0545100              0.7544830
SP   1   1.00
      0.1171670              1.0000000              1.0000000
D    1   1.00
      1.3000000              1.0000000
D    1   1.00
      0.3250000              1.0000000
F    1   1.00
      0.5500000              1.0000000
****
Cl     0
S    6   1.00
  25180.1000000              0.0018330
   3780.3500000              0.0140340
    860.4740000              0.0690970
    242.1450000              0.2374520
     77.3349000              0.4830340
     26.2470000              0.3398560
SP   6   1.00
    491.7650000             -0.0022974              0.0039894
    116.9840000             -0.0307140              0.0303180
     37.4153000             -0.1125280              0.1298800
     13.7834000              0.0450160              0.3279510
      5.4521500              0.5893530              0.4535270
      2.2258800              0.4652060              0.2521540
SP   3   1.00
      3.1864900             -0.2518300             -0.0142990
      1.1442700              0.0615890              0.3235720
      0.4203770              1.0601800              0.7435070
SP   1   1.00
      0.1426570              1.0000000              1.0000000
D    1   1.00
      1.5000000              1.0000000
D    1   1.00
      0.3750000              1.0000000
F    1   1.00
      0.7000000              1.0000000
****
}

set {
reference uhf
freeze_core true
e_convergence 10
d_convergence 10
dft_spherical_points 1202
dft_radial_points 99
}

e = energy('b3lyp')

print_out('Grab this energy {0}'.format(e))
--------------------------------------------------------------------------

    Molecular point group: c1

    Geometry (in Bohr), charge = 0, multiplicity = 2:

       Center              X                  Y                   Z               Mass
    ------------   -----------------  -----------------  -----------------  -----------------
         C           -0.323340323985     0.000137387618    -0.000001121969    12.000000000000
         C            0.061088820615    -1.401027739982    -2.426002690569    12.000000000000
         C            0.061117373215     2.802262600018    -0.000048037669    12.000000000000
         C            0.061094380815    -1.400947222682     2.426051595231    12.000000000000
         H            2.089018833715    -1.648385876282    -2.844884862569     1.007825032230
         H           -0.762557800285    -0.385146864582    -4.027001879569     1.007825032230
         H           -0.770595794885    -3.293073247182    -2.349626161169     1.007825032230
         H            2.082612046115     3.288245086818    -0.004644200469     1.007825032230
         H           -0.759470271785     3.679149143318     1.674441482831     1.007825032230
         H           -0.767469019785     3.679607009118    -1.670466537469     1.007825032230
         H            2.089027814415    -1.640312954682     2.849542974131     1.007825032230
         H           -0.762555060885    -3.296308069182     2.347240977131     1.007825032230
         H           -0.770581442585    -0.388834926882     4.025401243131     1.007825032230

  Charge       = 0
  Multiplicity = 2
  Basis Set: ANONYMOUSB2027EE5
    Blend: 6-31G_2DFP_
  Basis Set: (ANONYMOUSB2027EE5 AUX)
    Blend: DEF2-UNIVERSAL-JKFIT

    Orbital Energies [Eh]
    ---------------------

    Alpha Occupied:

       1A    -10.180342     2A    -10.167365     3A    -10.167335
       4A    -10.166344     5A     -0.797766     6A     -0.686510
       7A     -0.685865     8A     -0.530775     9A     -0.441125
      10A     -0.434759    11A     -0.434583    12A     -0.382822
      13A     -0.382376    14A     -0.363612    15A     -0.338029
      16A     -0.337968    17A     -0.168961

    Alpha Virtual:

      18A      0.076071    19A      0.134146    20A      0.134151
      21A      0.142532    22A      0.142737    23A      0.154875
      24A      0.178454    25A      0.179105    26A      0.203546
      27A      0.214805    28A      0.275942    29A      0.276030
      30A      0.399151    31A      0.399305    32A      0.403345
      33A      0.424002    34A      0.424192    35A      0.456592
      36A      0.495320    37A      0.495460    38A      0.512148
      39A      0.513992    40A      0.578699    41A      0.578931
      42A      0.591332    43A      0.591915    44A      0.602590
      45A      0.624765    46A      0.631703    47A      0.635864
      48A      0.636706    49A      0.663229    50A      0.663599
      51A      0.683541    52A      0.684177    53A      0.734994
      54A      0.825010    55A      0.825797    56A      0.853915
      57A      0.915016    58A      0.915033    59A      0.944015
      60A      0.944717    61A      0.961059    62A      0.961543
      63A      1.003466    64A      1.127790    65A      1.128430
      66A      1.142224    67A      1.163175    68A      1.163361
      69A      1.223324    70A      1.274307    71A      1.274665
      72A      1.279350    73A      1.324004    74A      1.324705
      75A      1.355964    76A      1.365783    77A      1.366320
      78A      1.392471    79A      1.403668    80A      1.404427
      81A      1.416788    82A      1.417429    83A      1.427911
      84A      1.491464    85A      1.499108    86A      1.542776
      87A      1.542886    88A      1.574165    89A      1.574730
      90A      1.669800    91A      1.739308    92A      1.739499
      93A      1.768327    94A      1.829807    95A      1.833054
      96A      1.971698    97A      2.018067    98A      2.019148
      99A      2.019157   100A      2.052606   101A      2.052723
     102A      2.738041   103A      2.738932   104A      2.790917
     105A      2.811429   106A      2.889678   107A      2.890181
     108A      2.894984   109A      2.929389   110A      2.929600
     111A      2.959004   112A      2.963868   113A      2.964899
     114A      3.034020   115A      3.071036   116A      3.071523
     117A      3.084381   118A      3.168644   119A      3.168918
     120A      3.180593   121A      3.285247   122A      3.285389
     123A      3.327121   124A      3.327203   125A      3.375613
     126A      3.489340   127A      3.490990   128A      3.514001
     129A      3.525349   130A      3.568295   131A      3.568443
     132A      3.575199   133A      3.665663   134A      3.667026
     135A      3.679654   136A      3.693640   137A      3.694645
     138A      3.776240   139A      3.777386   140A      3.789121
     141A      3.911777   142A      3.912651   143A      4.034442
     144A      4.110594   145A      4.112030   146A      4.146148
     147A      4.150000   148A      4.173317   149A      4.201100
     150A      4.202333   151A      4.205284   152A      4.211174
     153A      4.315256   154A      4.316666   155A      4.358945
     156A      4.424252   157A      4.424566   158A      4.443549
     159A      4.516602   160A      4.517042   161A      4.577834
     162A      4.578753   163A      4.617533   164A      4.709476
     165A      4.774494   166A      4.774687   167A      4.836873
     168A      4.962866   169A      5.002380   170A      5.003564
     171A      5.227836   172A      5.243165   173A      5.250434
     174A      5.352496   175A      5.358694   176A      5.479434

    Beta Occupied:

       1A    -10.168120     2A    -10.168101     3A    -10.167106
       4A    -10.166515     5A     -0.781092     6A     -0.684312
       7A     -0.683668     8A     -0.511746     9A     -0.431141
      10A     -0.430944    11A     -0.421823    12A     -0.376915
      13A     -0.376452    14A     -0.362596    15A     -0.333145
      16A     -0.333098

    Beta Virtual:

      17A     -0.025743    18A      0.077080    19A      0.134981
      20A      0.135097    21A      0.144450    22A      0.144559
      23A      0.163334    24A      0.182134    25A      0.182767
      26A      0.215033    27A      0.218930    28A      0.282288
      29A      0.282380    30A      0.400317    31A      0.400479
      32A      0.419791    33A      0.426810    34A      0.427006
      35A      0.468500    36A      0.497580    37A      0.497720
      38A      0.513896    39A      0.556324    40A      0.584241
      41A      0.584488    42A      0.597534    43A      0.598077
      44A      0.610008    45A      0.628141    46A      0.631892
      47A      0.639172    48A      0.639937    49A      0.666779
      50A      0.667177    51A      0.686211    52A      0.686777
      53A      0.757518    54A      0.830152    55A      0.830991
      56A      0.855270    57A      0.922990    58A      0.923002
      59A      0.945948    60A      0.953549    61A      0.966395
      62A      0.966820    63A      1.008706    64A      1.131802
      65A      1.132476    66A      1.155600    67A      1.168236
      68A      1.168447    69A      1.232297    70A      1.279902
      71A      1.280264    72A      1.285103    73A      1.328946
      74A      1.329741    75A      1.365368    76A      1.371038
      77A      1.371558    78A      1.393535    79A      1.407114
      80A      1.407911    81A      1.421793    82A      1.422525
      83A      1.428180    84A      1.492527    85A      1.509537
      86A      1.547137    87A      1.547339    88A      1.582047
      89A      1.582592    90A      1.674645    91A      1.745092
      92A      1.745243    93A      1.779104    94A      1.833691
      95A      1.836880    96A      1.972562    97A      2.025381
      98A      2.025489    99A      2.039671   100A      2.059268
     101A      2.059496   102A      2.746363   103A      2.747282
     104A      2.811794   105A      2.816100   106A      2.902447
     107A      2.902818   108A      2.924660   109A      2.931921
     110A      2.932031   111A      2.960068   112A      2.968370
     113A      2.969484   114A      3.041954   115A      3.080856
     116A      3.081489   117A      3.086232   118A      3.184339
     119A      3.184709   120A      3.188288   121A      3.290019
     122A      3.290213   123A      3.330946   124A      3.330987
     125A      3.383431   126A      3.492102   127A      3.493688
     128A      3.512370   129A      3.528389   130A      3.574960
     131A      3.581750   132A      3.581765   133A      3.670352
     134A      3.671843   135A      3.692972   136A      3.725281
     137A      3.726234   138A      3.780797   139A      3.781882
     140A      3.817667   141A      3.921607   142A      3.922455
     143A      4.045324   144A      4.117605   145A      4.118628
     146A      4.153580   147A      4.157017   148A      4.187369
     149A      4.208112   150A      4.208212   151A      4.212234
     152A      4.215656   153A      4.322819   154A      4.323979
     155A      4.362310   156A      4.432525   157A      4.432676
     158A      4.446481   159A      4.524454   160A      4.524774
     161A      4.588482   162A      4.589306   163A      4.624724
     164A      4.719820   165A      4.781414   166A      4.781673
     167A      4.839789   168A      4.967662   169A      5.006436
     170A      5.007586   171A      5.233540   172A      5.244964
     173A      5.252219   174A      5.358990   175A      5.365157
     176A      5.481755

    Final Occupation by Irrep:
              A
    DOCC [    16 ]
    SOCC [     1 ]

  @DF-UKS Final Energy:  -157.81305831765374

   => Energetics <=

    Nuclear Repulsion Energy =            125.3946376691621793
    One-Electron Energy =                -458.7489105600744779
    Two-Electron Energy =                 195.8483615403434897
    DFT Exchange-Correlation Energy =     -20.3071469670849432
    Empirical Dispersion Energy =           0.0000000000000000
    VV10 Nonlocal Energy =                  0.0000000000000000
    Total Energy =                       -157.8130583176537414

  UHF NO Occupations:
  HONO-2 :   15  A 1.9996009
  HONO-1 :   16  A 1.9989805
  HONO-0 :   17  A 1.0000000
  LUNO+0 :   18  A 0.0010195
  LUNO+1 :   19  A 0.0003991
  LUNO+2 :   20  A 0.0001976
  LUNO+3 :   21  A 0.0001975

Computation Completed

Properties will be evaluated at   0.000000,   0.000000,   0.000000 [a0]

Properties computed using the SCF density matrix

  Nuclear Dipole Moment: [e a0]
     X:     0.8272      Y:    -0.0025      Z:     0.0000

  Electronic Dipole Moment: [e a0]
     X:    -0.7493      Y:     0.0050      Z:    -0.0000

  Dipole Moment: [e a0]
     X:     0.0779      Y:     0.0024      Z:    -0.0000     Total:     0.0780

  Dipole Moment: [D]
     X:     0.1980      Y:     0.0062      Z:    -0.0000     Total:     0.1981

*** tstop() called on n036 at Fri Nov  5 15:12:30 2021
Module time:
	user time   =     636.86 seconds =      10.61 minutes
	system time =      12.34 seconds =       0.21 minutes
	total time  =        163 seconds =       2.72 minutes
Total time:
	user time   =     636.86 seconds =      10.61 minutes
	system time =      12.34 seconds =       0.21 minutes
	total time  =        163 seconds =       2.72 minutes
Grab this energy -157.81305831765374
    Psi4 stopped on: Friday, 05 November 2021 03:12PM
    Psi4 wall time for execution: 0:02:43.23

*** Psi4 exiting successfully. Buy a developer a beer!
