                               Psi4 1.4a2.dev629

  ==> Input File <==

--------------------------------------------------------------------------
import os
memory 14 GB

molecule {
 C   -0.3233400015    0.0002435047   -0.0019988211
 C    0.0615620125   -1.4000925552   -2.4259178689
 C    0.0599092993    2.8018822654   -0.0011574066
 C    0.0618300266   -1.4018239494    2.4266086244
 H    2.0887553380   -1.6432534848   -2.8468603082
 H   -0.7639988858   -0.3888155999   -4.0252674546
 H   -0.7644579824   -3.2897626080   -2.3467518005
 H    2.0835434104    3.2820165480   -0.0041008531
 H   -0.7659104993    3.6779646381    1.6774024007
 H   -0.7686506555    3.6892086925   -1.6758020943
 H    2.0883527464   -1.6507715639    2.8517011991
 H   -0.7667073688   -3.2928406053    2.3510253691
 H   -0.7634953166   -0.3839795957    4.0211190139
units bohr
0 2
}

basis {

assign 6-31g_2dfp_

[ 6-31g_2dfp_ ]

spherical

!----------------------------------------------------------------------
! Basis Set Exchange
! Version v0.8.13
! https://www.basissetexchange.org
!----------------------------------------------------------------------
!   Basis set: 6-31G(2df,p)
! Description: 6-31G(2df,p)
!        Role: orbital
!     Version: 0  (Data from the original Basis Set Exchange)
!----------------------------------------------------------------------

****
H     0
S    3   1.00
     18.7311370              0.03349460
      2.8253937              0.23472695
      0.6401217              0.81375733
S    1   1.00
      0.1612778              1.00000000
P    1   1.00
      1.5000000              1.0000000
P    1   1.00
      0.3750000              1.0000000
****
B     0
S    6   1.00
   2068.8823000              0.0018663
    310.6495700              0.0142515
     70.6830330              0.0695516
     19.8610800              0.2325729
      6.2993048              0.4670787
      2.1270270              0.3634314
SP   3   1.00
      4.7279710             -0.1303938              0.0745976
      1.1903377             -0.1307889              0.3078467
      0.3594117              1.1309444              0.7434568
SP   1   1.00
      0.1267512              1.0000000              1.0000000
D    1   1.00
      0.8020000              1.0000000
D    1   1.00
      0.2005000              1.0000000
F    1   1.00
      0.5000000              1.0000000
****
C     0
S    6   1.00
   3047.5249000              0.0018347
    457.3695100              0.0140373
    103.9486900              0.0688426
     29.2101550              0.2321844
      9.2866630              0.4679413
      3.1639270              0.3623120
SP   3   1.00
      7.8682724             -0.1193324              0.0689991
      1.8812885             -0.1608542              0.3164240
      0.5442493              1.1434564              0.7443083
SP   1   1.00
      0.1687144              1.0000000              1.0000000
D    1   1.00
      1.2520000              1.0000000
D    1   1.00
      0.3130000              1.0000000
F    1   1.00
      0.8000000              1.0000000
****
N     0
S    6   1.00
   4173.5110000              0.0018348
    627.4579000              0.0139950
    142.9021000              0.0685870
     40.2343300              0.2322410
     12.8202100              0.4690700
      4.3904370              0.3604550
SP   3   1.00
     11.6263580             -0.1149610              0.0675800
      2.7162800             -0.1691180              0.3239070
      0.7722180              1.1458520              0.7408950
SP   1   1.00
      0.2120313              1.0000000              1.0000000
D    1   1.00
      1.8260000              1.0000000
D    1   1.00
      0.4565000              1.0000000
F    1   1.00
      1.0000000              1.0000000
****
O     0
S    6   1.00
   5484.6717000              0.0018311
    825.2349500              0.0139501
    188.0469600              0.0684451
     52.9645000              0.2327143
     16.8975700              0.4701930
      5.7996353              0.3585209
SP   3   1.00
     15.5396160             -0.1107775              0.0708743
      3.5999336             -0.1480263              0.3397528
      1.0137618              1.1307670              0.7271586
SP   1   1.00
      0.2700058              1.0000000              1.0000000
D    1   1.00
      2.5840000              1.0000000
D    1   1.00
      0.6460000              1.0000000
F    1   1.00
      1.4000000              1.0000000
****
F     0
S    6   1.00
   7001.7130900              0.0018196169
   1051.3660900              0.0139160796
    239.2856900              0.0684053245
     67.3974453              0.233185760
     21.5199573              0.471267439
      7.40310130             0.356618546
SP   3   1.00
     20.8479528             -0.108506975            0.0716287243
      4.80830834            -0.146451658            0.3459121030
      1.34406986             1.128688580            0.7224699570
SP   1   1.00
      0.358151393            1.0000000              1.0000000
D    1   1.00
      3.5000000              1.0000000
D    1   1.00
      0.8750000              1.0000000
F    1   1.00
      1.8500000              1.0000000
****
Al     0
S    6   1.00
  13983.1000000              0.00194267
   2098.7500000              0.0148599
    477.7050000              0.0728494
    134.3600000              0.2468300
     42.8709000              0.4872580
     14.5189000              0.3234960
SP   6   1.00
    239.6680000             -0.00292619             0.00460285
     57.4419000             -0.0374080              0.0331990
     18.2859000             -0.1144870              0.1362820
      6.5991400              0.1156350              0.3304760
      2.4904900              0.6125950              0.4491460
      0.9445400              0.3937990              0.2657040
SP   3   1.00
      1.2779000             -0.2276060             -0.0175130
      0.3975900              0.00144583             0.2445330
      0.1600950              1.0927900              0.8049340
SP   1   1.00
      0.0556577              1.0000000              1.0000000
D    1   1.00
      0.6500000              1.0000000
D    1   1.00
      0.1625000              1.0000000
F    1   1.00
      0.2500000              1.0000000
****
Si     0
S    6   1.00
  16115.9000000              0.00195948
   2425.5800000              0.01492880
    553.8670000              0.07284780
    156.3400000              0.24613000
     50.0683000              0.48591400
     17.0178000              0.32500200
SP   6   1.00
    292.7180000             -0.00278094             0.00443826
     69.8731000             -0.03571460             0.03266790
     22.3363000             -0.11498500             0.13472100
      8.1503900              0.09356340             0.32867800
      3.1345800              0.60301700             0.44964000
      1.2254300              0.41895900             0.26137200
SP   3   1.00
      1.7273800             -0.24463000            -0.01779510
      0.5729220              0.00431572             0.25353900
      0.2221920              1.09818000             0.80066900
SP   1   1.00
      0.0778369              1.00000000             1.00000000
D    1   1.00
      0.9000000              1.0000000
D    1   1.00
      0.2250000              1.0000000
F    1   1.00
      0.3200000              1.0000000
****
P     0
S    6   1.00
  19413.3000000              0.0018516
   2909.4200000              0.0142062
    661.3640000              0.0699995
    185.7590000              0.2400790
     59.1943000              0.4847620
     20.0310000              0.3352000
SP   6   1.00
    339.4780000             -0.00278217             0.00456462
     81.0101000             -0.0360499              0.03369360
     25.8780000             -0.1166310              0.13975500
      9.4522100              0.0968328              0.33936200
      3.6656600              0.6144180              0.45092100
      1.4674600              0.4037980              0.23858600
SP   3   1.00
      2.1562300             -0.2529230             -0.01776530
      0.7489970              0.0328517              0.27405800
      0.2831450              1.0812500              0.78542100
SP   1   1.00
      0.0998317              1.0000000              1.00000000
D    1   1.00
      1.1000000              1.0000000
D    1   1.00
      0.2750000              1.0000000
F    1   1.00
      0.4500000              1.0000000
****
S     0
S    6   1.00
  21917.1000000              0.0018690
   3301.4900000              0.0142300
    754.1460000              0.0696960
    212.7110000              0.2384870
     67.9896000              0.4833070
     23.0515000              0.3380740
SP   6   1.00
    423.7350000             -0.0023767              0.0040610
    100.7100000             -0.0316930              0.0306810
     32.1599000             -0.1133170              0.1304520
     11.8079000              0.0560900              0.3272050
      4.6311000              0.5922550              0.4528510
      1.8702500              0.4550060              0.2560420
SP   3   1.00
      2.6158400             -0.2503740             -0.0145110
      0.9221670              0.0669570              0.3102630
      0.3412870              1.0545100              0.7544830
SP   1   1.00
      0.1171670              1.0000000              1.0000000
D    1   1.00
      1.3000000              1.0000000
D    1   1.00
      0.3250000              1.0000000
F    1   1.00
      0.5500000              1.0000000
****
Cl     0
S    6   1.00
  25180.1000000              0.0018330
   3780.3500000              0.0140340
    860.4740000              0.0690970
    242.1450000              0.2374520
     77.3349000              0.4830340
     26.2470000              0.3398560
SP   6   1.00
    491.7650000             -0.0022974              0.0039894
    116.9840000             -0.0307140              0.0303180
     37.4153000             -0.1125280              0.1298800
     13.7834000              0.0450160              0.3279510
      5.4521500              0.5893530              0.4535270
      2.2258800              0.4652060              0.2521540
SP   3   1.00
      3.1864900             -0.2518300             -0.0142990
      1.1442700              0.0615890              0.3235720
      0.4203770              1.0601800              0.7435070
SP   1   1.00
      0.1426570              1.0000000              1.0000000
D    1   1.00
      1.5000000              1.0000000
D    1   1.00
      0.3750000              1.0000000
F    1   1.00
      0.7000000              1.0000000
****
}

set {
reference uhf
freeze_core true
e_convergence 10
d_convergence 10
dft_spherical_points 1202
dft_radial_points 99
}

e = energy('b3lyp')

print_out('Grab this energy {0}'.format(e))
--------------------------------------------------------------------------

    Molecular point group: c1

    Geometry (in Bohr), charge = 0, multiplicity = 2:

       Center              X                  Y                   Z               Mass
    ------------   -----------------  -----------------  -----------------  -----------------
         C           -0.323340256077     0.000203628017    -0.001523953395    12.000000000000
         C            0.061561757923    -1.400132431883    -2.425443001195    12.000000000000
         C            0.059909044723     2.801842388717    -0.000682538895    12.000000000000
         C            0.061829772023    -1.401863826083     2.427083492105    12.000000000000
         H            2.088755083423    -1.643293361483    -2.846385440495     1.007825032230
         H           -0.763999140377    -0.388855476583    -4.024792586895     1.007825032230
         H           -0.764458236977    -3.289802484683    -2.346276932795     1.007825032230
         H            2.083543155823     3.281976671317    -0.003625985395     1.007825032230
         H           -0.765910753877     3.677924761417     1.677877268405     1.007825032230
         H           -0.768650910077     3.689168815817    -1.675327226595     1.007825032230
         H            2.088352491823    -1.650811440583     2.852176066805     1.007825032230
         H           -0.766707623377    -3.292880481983     2.351500236805     1.007825032230
         H           -0.763495571177    -0.384019472383     4.021593881605     1.007825032230

  Charge       = 0
  Multiplicity = 2
  Basis Set: ANONYMOUS9E144AB4
    Blend: 6-31G_2DFP_
  Basis Set: (ANONYMOUS9E144AB4 AUX)
    Blend: DEF2-UNIVERSAL-JKFIT

    Orbital Energies [Eh]
    ---------------------

    Alpha Occupied:

       1A    -10.180342     2A    -10.167158     3A    -10.167048
       4A    -10.166839     5A     -0.797768     6A     -0.686313
       7A     -0.686062     8A     -0.530775     9A     -0.441130
      10A     -0.434781    11A     -0.434559    12A     -0.382826
      13A     -0.382370    14A     -0.363611    15A     -0.338164
      16A     -0.337832    17A     -0.168961

    Alpha Virtual:

      18A      0.076073    19A      0.134098    20A      0.134212
      21A      0.142410    22A      0.142842    23A      0.154881
      24A      0.178638    25A      0.178915    26A      0.203551
      27A      0.214804    28A      0.275716    29A      0.276254
      30A      0.399094    31A      0.399353    32A      0.403353
      33A      0.423981    34A      0.424216    35A      0.456594
      36A      0.495329    37A      0.495448    38A      0.512160
      39A      0.513982    40A      0.578493    41A      0.579129
      42A      0.591231    43A      0.592013    44A      0.602607
      45A      0.624759    46A      0.631748    47A      0.636058
      48A      0.636473    49A      0.663361    50A      0.663464
      51A      0.683736    52A      0.683969    53A      0.734993
      54A      0.825182    55A      0.825628    56A      0.853915
      57A      0.914662    58A      0.915374    59A      0.944105
      60A      0.944612    61A      0.960626    62A      0.961991
      63A      1.003461    64A      1.127635    65A      1.128568
      66A      1.142204    67A      1.163097    68A      1.163471
      69A      1.223327    70A      1.274291    71A      1.274674
      72A      1.279365    73A      1.324279    74A      1.324430
      75A      1.355978    76A      1.365894    77A      1.366223
      78A      1.392450    79A      1.403468    80A      1.404629
      81A      1.416571    82A      1.417639    83A      1.427925
      84A      1.491502    85A      1.499060    86A      1.542561
      87A      1.543111    88A      1.573969    89A      1.574936
      90A      1.669835    91A      1.739037    92A      1.739789
      93A      1.768326    94A      1.830753    95A      1.832053
      96A      1.971722    97A      2.018016    98A      2.019113
      99A      2.019274   100A      2.051712   101A      2.053571
     102A      2.738206   103A      2.738765   104A      2.790932
     105A      2.811418   106A      2.889650   107A      2.890189
     108A      2.895028   109A      2.929191   110A      2.929802
     111A      2.958989   112A      2.964133   113A      2.964626
     114A      3.034003   115A      3.070622   116A      3.071947
     117A      3.084351   118A      3.168480   119A      3.169094
     120A      3.180578   121A      3.285190   122A      3.285440
     123A      3.326229   124A      3.328097   125A      3.375619
     126A      3.489071   127A      3.491221   128A      3.514017
     129A      3.525314   130A      3.568081   131A      3.568471
     132A      3.575398   133A      3.665891   134A      3.666807
     135A      3.679640   136A      3.693337   137A      3.694943
     138A      3.775565   139A      3.778034   140A      3.789205
     141A      3.911939   142A      3.912534   143A      4.034443
     144A      4.110080   145A      4.112631   146A      4.147202
     147A      4.148995   148A      4.173285   149A      4.202102
     150A      4.203221   151A      4.203485   152A      4.210851
     153A      4.315117   154A      4.316762   155A      4.359029
     156A      4.424204   157A      4.424734   158A      4.443427
     159A      4.516093   160A      4.517539   161A      4.577933
     162A      4.578596   163A      4.617577   164A      4.709403
     165A      4.773371   166A      4.775834   167A      4.836960
     168A      4.962861   169A      5.002308   170A      5.003604
     171A      5.228062   172A      5.246101   173A      5.247526
     174A      5.354785   175A      5.356228   176A      5.479353

    Beta Occupied:

       1A    -10.167918     2A    -10.167804     3A    -10.167602
       4A    -10.166519     5A     -0.781093     6A     -0.684107
       7A     -0.683873     8A     -0.511747     9A     -0.431158
      10A     -0.430932    11A     -0.421820    12A     -0.376917
      13A     -0.376449    14A     -0.362595    15A     -0.333275
      16A     -0.332967

    Beta Virtual:

      17A     -0.025743    18A      0.077082    19A      0.134997
      20A      0.135092    21A      0.144302    22A      0.144692
      23A      0.163340    24A      0.182309    25A      0.182587
      26A      0.215033    27A      0.218932    28A      0.282074
      29A      0.282593    30A      0.400268    31A      0.400526
      32A      0.419790    33A      0.426790    34A      0.427031
      35A      0.468501    36A      0.497592    37A      0.497708
      38A      0.513896    39A      0.556325    40A      0.584040
      41A      0.584683    42A      0.597421    43A      0.598187
      44A      0.610023    45A      0.628137    46A      0.631916
      47A      0.639331    48A      0.639762    49A      0.666917
      50A      0.667035    51A      0.686379    52A      0.686597
      53A      0.757516    54A      0.830331    55A      0.830817
      56A      0.855269    57A      0.922670    58A      0.923308
      59A      0.945945    60A      0.953532    61A      0.965992
      62A      0.967241    63A      1.008702    64A      1.131661
      65A      1.132599    66A      1.155576    67A      1.168172
      68A      1.168547    69A      1.232298    70A      1.279898
      71A      1.280263    72A      1.285118    73A      1.329264
      74A      1.329423    75A      1.365380    76A      1.371177
      77A      1.371441    78A      1.393511    79A      1.406913
      80A      1.408111    81A      1.421619    82A      1.422678
      83A      1.428208    84A      1.492550    85A      1.509500
      86A      1.546960    87A      1.547536    88A      1.581748
      89A      1.582896    90A      1.674682    91A      1.744791
      92A      1.745561    93A      1.779103    94A      1.834614
      95A      1.835904    96A      1.972582    97A      2.025355
      98A      2.025538    99A      2.039686   100A      2.058396
     101A      2.060319   102A      2.746557   103A      2.747086
     104A      2.811832   105A      2.816065   106A      2.902371
     107A      2.902907   108A      2.924668   109A      2.931683
     110A      2.932274   111A      2.960056   112A      2.968689
     113A      2.969155   114A      3.041938   115A      3.080491
     116A      3.081896   117A      3.086168   118A      3.184212
     119A      3.184870   120A      3.188252   121A      3.289944
     122A      3.290283   123A      3.330049   124A      3.331885
     125A      3.383438   126A      3.491826   127A      3.493924
     128A      3.512386   129A      3.528366   130A      3.574808
     131A      3.581367   132A      3.582300   133A      3.670706
     134A      3.671532   135A      3.692926   136A      3.725320
     137A      3.726202   138A      3.780143   139A      3.782516
     140A      3.817736   141A      3.921768   142A      3.922338
     143A      4.045331   144A      4.117012   145A      4.119335
     146A      4.154383   147A      4.156235   148A      4.187336
     149A      4.208492   150A      4.209362   151A      4.210795
     152A      4.215326   153A      4.322536   154A      4.324218
     155A      4.362396   156A      4.432461   157A      4.432906
     158A      4.446314   159A      4.523894   160A      4.525317
     161A      4.588534   162A      4.589194   163A      4.624773
     164A      4.719746   165A      4.780347   166A      4.782765
     167A      4.839879   168A      4.967655   169A      5.006356
     170A      5.007636   171A      5.233777   172A      5.247882
     173A      5.249314   174A      5.361245   175A      5.362729
     176A      5.481674

    Final Occupation by Irrep:
              A
    DOCC [    16 ]
    SOCC [     1 ]

  @DF-UKS Final Energy:  -157.81306286767571

   => Energetics <=

    Nuclear Repulsion Energy =            125.3946366440092532
    One-Electron Energy =                -458.7489173535603300
    Two-Electron Energy =                 195.8483618158636546
    DFT Exchange-Correlation Energy =     -20.3071439739883033
    Empirical Dispersion Energy =           0.0000000000000000
    VV10 Nonlocal Energy =                  0.0000000000000000
    Total Energy =                       -157.8130628676757112

  UHF NO Occupations:
  HONO-2 :   15  A 1.9996009
  HONO-1 :   16  A 1.9989804
  HONO-0 :   17  A 1.0000000
  LUNO+0 :   18  A 0.0010196
  LUNO+1 :   19  A 0.0003991
  LUNO+2 :   20  A 0.0001979
  LUNO+3 :   21  A 0.0001972

Computation Completed

Properties will be evaluated at   0.000000,   0.000000,   0.000000 [a0]

Properties computed using the SCF density matrix

  Nuclear Dipole Moment: [e a0]
     X:     0.8272      Y:    -0.0003      Z:     0.0033

  Electronic Dipole Moment: [e a0]
     X:    -0.7493      Y:     0.0011      Z:    -0.0034

  Dipole Moment: [e a0]
     X:     0.0779      Y:     0.0008      Z:    -0.0000     Total:     0.0779

  Dipole Moment: [D]
     X:     0.1980      Y:     0.0019      Z:    -0.0001     Total:     0.1980

*** tstop() called on n021 at Fri Nov  5 15:23:17 2021
Module time:
	user time   =     636.81 seconds =      10.61 minutes
	system time =      12.29 seconds =       0.20 minutes
	total time  =        164 seconds =       2.73 minutes
Total time:
	user time   =     636.81 seconds =      10.61 minutes
	system time =      12.29 seconds =       0.20 minutes
	total time  =        164 seconds =       2.73 minutes
Grab this energy -157.8130628676757
    Psi4 stopped on: Friday, 05 November 2021 03:23PM
    Psi4 wall time for execution: 0:02:43.19

*** Psi4 exiting successfully. Buy a developer a beer!
