                               Psi4 1.4a2.dev629

  ==> Input File <==

--------------------------------------------------------------------------
import os
memory 14 GB

molecule {
 C   -0.3233514895    0.0010179904    0.0000000000
 C    0.0605827893   -1.4015075338   -2.4243499815
 C    0.0615849508    2.7997255748   -0.0000000000
 C    0.0605827893   -1.4015075338    2.4243499815
 H    2.0869243251   -1.6437988802   -2.8481343262
 H   -0.7650501616   -0.3882443412   -4.0258936338
 H   -0.7654695662   -3.2919986571   -2.3495877955
 H    2.0866625721    3.2886968646    0.0000000000
 H   -0.7657393417    3.6808170406    1.6762997850
 H   -0.7657393417    3.6808170406   -1.6762997850
 H    2.0869243251   -1.6437988802    2.8481343262
 H   -0.7654695662   -3.2919986571    2.3495877955
 H   -0.7650501616   -0.3882443412    4.0258936338
units bohr
0 2
}

basis {

assign 6-31g_2dfp_

[ 6-31g_2dfp_ ]

spherical

!----------------------------------------------------------------------
! Basis Set Exchange
! Version v0.8.13
! https://www.basissetexchange.org
!----------------------------------------------------------------------
!   Basis set: 6-31G(2df,p)
! Description: 6-31G(2df,p)
!        Role: orbital
!     Version: 0  (Data from the original Basis Set Exchange)
!----------------------------------------------------------------------

****
H     0
S    3   1.00
     18.7311370              0.03349460
      2.8253937              0.23472695
      0.6401217              0.81375733
S    1   1.00
      0.1612778              1.00000000
P    1   1.00
      1.5000000              1.0000000
P    1   1.00
      0.3750000              1.0000000
****
B     0
S    6   1.00
   2068.8823000              0.0018663
    310.6495700              0.0142515
     70.6830330              0.0695516
     19.8610800              0.2325729
      6.2993048              0.4670787
      2.1270270              0.3634314
SP   3   1.00
      4.7279710             -0.1303938              0.0745976
      1.1903377             -0.1307889              0.3078467
      0.3594117              1.1309444              0.7434568
SP   1   1.00
      0.1267512              1.0000000              1.0000000
D    1   1.00
      0.8020000              1.0000000
D    1   1.00
      0.2005000              1.0000000
F    1   1.00
      0.5000000              1.0000000
****
C     0
S    6   1.00
   3047.5249000              0.0018347
    457.3695100              0.0140373
    103.9486900              0.0688426
     29.2101550              0.2321844
      9.2866630              0.4679413
      3.1639270              0.3623120
SP   3   1.00
      7.8682724             -0.1193324              0.0689991
      1.8812885             -0.1608542              0.3164240
      0.5442493              1.1434564              0.7443083
SP   1   1.00
      0.1687144              1.0000000              1.0000000
D    1   1.00
      1.2520000              1.0000000
D    1   1.00
      0.3130000              1.0000000
F    1   1.00
      0.8000000              1.0000000
****
N     0
S    6   1.00
   4173.5110000              0.0018348
    627.4579000              0.0139950
    142.9021000              0.0685870
     40.2343300              0.2322410
     12.8202100              0.4690700
      4.3904370              0.3604550
SP   3   1.00
     11.6263580             -0.1149610              0.0675800
      2.7162800             -0.1691180              0.3239070
      0.7722180              1.1458520              0.7408950
SP   1   1.00
      0.2120313              1.0000000              1.0000000
D    1   1.00
      1.8260000              1.0000000
D    1   1.00
      0.4565000              1.0000000
F    1   1.00
      1.0000000              1.0000000
****
O     0
S    6   1.00
   5484.6717000              0.0018311
    825.2349500              0.0139501
    188.0469600              0.0684451
     52.9645000              0.2327143
     16.8975700              0.4701930
      5.7996353              0.3585209
SP   3   1.00
     15.5396160             -0.1107775              0.0708743
      3.5999336             -0.1480263              0.3397528
      1.0137618              1.1307670              0.7271586
SP   1   1.00
      0.2700058              1.0000000              1.0000000
D    1   1.00
      2.5840000              1.0000000
D    1   1.00
      0.6460000              1.0000000
F    1   1.00
      1.4000000              1.0000000
****
F     0
S    6   1.00
   7001.7130900              0.0018196169
   1051.3660900              0.0139160796
    239.2856900              0.0684053245
     67.3974453              0.233185760
     21.5199573              0.471267439
      7.40310130             0.356618546
SP   3   1.00
     20.8479528             -0.108506975            0.0716287243
      4.80830834            -0.146451658            0.3459121030
      1.34406986             1.128688580            0.7224699570
SP   1   1.00
      0.358151393            1.0000000              1.0000000
D    1   1.00
      3.5000000              1.0000000
D    1   1.00
      0.8750000              1.0000000
F    1   1.00
      1.8500000              1.0000000
****
Al     0
S    6   1.00
  13983.1000000              0.00194267
   2098.7500000              0.0148599
    477.7050000              0.0728494
    134.3600000              0.2468300
     42.8709000              0.4872580
     14.5189000              0.3234960
SP   6   1.00
    239.6680000             -0.00292619             0.00460285
     57.4419000             -0.0374080              0.0331990
     18.2859000             -0.1144870              0.1362820
      6.5991400              0.1156350              0.3304760
      2.4904900              0.6125950              0.4491460
      0.9445400              0.3937990              0.2657040
SP   3   1.00
      1.2779000             -0.2276060             -0.0175130
      0.3975900              0.00144583             0.2445330
      0.1600950              1.0927900              0.8049340
SP   1   1.00
      0.0556577              1.0000000              1.0000000
D    1   1.00
      0.6500000              1.0000000
D    1   1.00
      0.1625000              1.0000000
F    1   1.00
      0.2500000              1.0000000
****
Si     0
S    6   1.00
  16115.9000000              0.00195948
   2425.5800000              0.01492880
    553.8670000              0.07284780
    156.3400000              0.24613000
     50.0683000              0.48591400
     17.0178000              0.32500200
SP   6   1.00
    292.7180000             -0.00278094             0.00443826
     69.8731000             -0.03571460             0.03266790
     22.3363000             -0.11498500             0.13472100
      8.1503900              0.09356340             0.32867800
      3.1345800              0.60301700             0.44964000
      1.2254300              0.41895900             0.26137200
SP   3   1.00
      1.7273800             -0.24463000            -0.01779510
      0.5729220              0.00431572             0.25353900
      0.2221920              1.09818000             0.80066900
SP   1   1.00
      0.0778369              1.00000000             1.00000000
D    1   1.00
      0.9000000              1.0000000
D    1   1.00
      0.2250000              1.0000000
F    1   1.00
      0.3200000              1.0000000
****
P     0
S    6   1.00
  19413.3000000              0.0018516
   2909.4200000              0.0142062
    661.3640000              0.0699995
    185.7590000              0.2400790
     59.1943000              0.4847620
     20.0310000              0.3352000
SP   6   1.00
    339.4780000             -0.00278217             0.00456462
     81.0101000             -0.0360499              0.03369360
     25.8780000             -0.1166310              0.13975500
      9.4522100              0.0968328              0.33936200
      3.6656600              0.6144180              0.45092100
      1.4674600              0.4037980              0.23858600
SP   3   1.00
      2.1562300             -0.2529230             -0.01776530
      0.7489970              0.0328517              0.27405800
      0.2831450              1.0812500              0.78542100
SP   1   1.00
      0.0998317              1.0000000              1.00000000
D    1   1.00
      1.1000000              1.0000000
D    1   1.00
      0.2750000              1.0000000
F    1   1.00
      0.4500000              1.0000000
****
S     0
S    6   1.00
  21917.1000000              0.0018690
   3301.4900000              0.0142300
    754.1460000              0.0696960
    212.7110000              0.2384870
     67.9896000              0.4833070
     23.0515000              0.3380740
SP   6   1.00
    423.7350000             -0.0023767              0.0040610
    100.7100000             -0.0316930              0.0306810
     32.1599000             -0.1133170              0.1304520
     11.8079000              0.0560900              0.3272050
      4.6311000              0.5922550              0.4528510
      1.8702500              0.4550060              0.2560420
SP   3   1.00
      2.6158400             -0.2503740             -0.0145110
      0.9221670              0.0669570              0.3102630
      0.3412870              1.0545100              0.7544830
SP   1   1.00
      0.1171670              1.0000000              1.0000000
D    1   1.00
      1.3000000              1.0000000
D    1   1.00
      0.3250000              1.0000000
F    1   1.00
      0.5500000              1.0000000
****
Cl     0
S    6   1.00
  25180.1000000              0.0018330
   3780.3500000              0.0140340
    860.4740000              0.0690970
    242.1450000              0.2374520
     77.3349000              0.4830340
     26.2470000              0.3398560
SP   6   1.00
    491.7650000             -0.0022974              0.0039894
    116.9840000             -0.0307140              0.0303180
     37.4153000             -0.1125280              0.1298800
     13.7834000              0.0450160              0.3279510
      5.4521500              0.5893530              0.4535270
      2.2258800              0.4652060              0.2521540
SP   3   1.00
      3.1864900             -0.2518300             -0.0142990
      1.1442700              0.0615890              0.3235720
      0.4203770              1.0601800              0.7435070
SP   1   1.00
      0.1426570              1.0000000              1.0000000
D    1   1.00
      1.5000000              1.0000000
D    1   1.00
      0.3750000              1.0000000
F    1   1.00
      0.7000000              1.0000000
****
}

set {
reference uhf
freeze_core true
e_convergence 10
d_convergence 10
dft_spherical_points 1202
dft_radial_points 99
}

e = energy('b3lyp')

print_out('Grab this energy {0}'.format(e))
--------------------------------------------------------------------------

    Molecular point group: cs

    Geometry (in Bohr), charge = 0, multiplicity = 2:

       Center              X                  Y                   Z               Mass
    ------------   -----------------  -----------------  -----------------  -----------------
         C           -0.323243441623     0.001455927485     0.000000000000    12.000000000000
         C            0.060690837177    -1.401069596715    -2.424349981500    12.000000000000
         C            0.061692998677     2.800163511885     0.000000000000    12.000000000000
         C            0.060690837177    -1.401069596715     2.424349981500    12.000000000000
         H            2.087032372977    -1.643360943115    -2.848134326200     1.007825032230
         H           -0.764942113723    -0.387806404115    -4.025893633800     1.007825032230
         H           -0.765361518323    -3.291560720015    -2.349587795500     1.007825032230
         H            2.086770619977     3.289134801685     0.000000000000     1.007825032230
         H           -0.765631293823     3.681254977685     1.676299785000     1.007825032230
         H           -0.765631293823     3.681254977685    -1.676299785000     1.007825032230
         H            2.087032372977    -1.643360943115     2.848134326200     1.007825032230
         H           -0.765361518323    -3.291560720015     2.349587795500     1.007825032230
         H           -0.764942113723    -0.387806404115     4.025893633800     1.007825032230

  Charge       = 0
  Multiplicity = 2
  Basis Set: ANONYMOUSBDEF7476
    Blend: 6-31G_2DFP_
  Basis Set: (ANONYMOUSBDEF7476 AUX)
    Blend: DEF2-UNIVERSAL-JKFIT

    Orbital Energies [Eh]
    ---------------------

    Alpha Occupied:

       1Ap   -10.180290     2Ap   -10.167105     1App  -10.167068
       3Ap   -10.167030     4Ap    -0.798023     5Ap    -0.686276
       2App   -0.686116     6Ap    -0.530942     7Ap    -0.441135
       3App   -0.434748     8Ap    -0.434729     9Ap    -0.382499
       4App   -0.382424     5App   -0.363408    10Ap    -0.338452
       6App   -0.337865    11Ap    -0.168982

    Alpha Virtual:

      12Ap     0.076065     7App    0.134061    13Ap     0.134135
       8App    0.142432    14Ap     0.142558    15Ap     0.154985
      16Ap     0.178562     9App    0.178662    17Ap     0.203836
      10App    0.214679    11App    0.276100    18Ap     0.276353
      12App    0.399116    19Ap     0.399330    20Ap     0.403252
      21Ap     0.424040    13App    0.424048    22Ap     0.456774
      23Ap     0.495344    14App    0.495416    15App    0.512105
      24Ap     0.513921    16App    0.578737    25Ap     0.578813
      17App    0.591515    26Ap     0.591552    27Ap     0.602528
      28Ap     0.624640    18App    0.631540    19App    0.636306
      29Ap     0.636310    20App    0.663437    30Ap     0.663616
      31Ap     0.683827    21App    0.683850    32Ap     0.734862
      33Ap     0.825426    22App    0.825430    23App    0.854052
      34Ap     0.914882    24App    0.915087    25App    0.944173
      35Ap     0.944924    26App    0.961154    36Ap     0.961296
      37Ap     1.003283    38Ap     1.128166    27App    1.128211
      39Ap     1.142629    40Ap     1.162637    28App    1.162686
      41Ap     1.223753    29App    1.274442    42Ap     1.274793
      43Ap     1.279519    30App    1.324498    44Ap     1.324619
      45Ap     1.356330    46Ap     1.365960    31App    1.366430
      32App    1.391942    33App    1.403100    47Ap     1.403578
      34App    1.416834    48Ap     1.417358    35App    1.427664
      36App    1.492017    49Ap     1.498498    37App    1.542813
      50Ap     1.543162    51Ap     1.574230    38App    1.574870
      52Ap     1.669032    39App    1.739818    53Ap     1.740010
      54Ap     1.768311    55Ap     1.830910    40App    1.831035
      41App    1.972323    56Ap     2.018002    57Ap     2.019435
      42App    2.020228    58Ap     2.052479    43App    2.053670
      44App    2.738614    59Ap     2.738708    60Ap     2.791146
      45App    2.811514    46App    2.889391    61Ap     2.890729
      62Ap     2.895345    47App    2.929173    63Ap     2.929503
      48App    2.958944    64Ap     2.964047    49App    2.964653
      65Ap     3.034183    50App    3.071098    66Ap     3.071369
      51App    3.084755    67Ap     3.168740    52App    3.169006
      68Ap     3.181199    53App    3.284764    69Ap     3.285200
      70Ap     3.327352    54App    3.327455    71Ap     3.375521
      55App    3.490192    72Ap     3.490297    56App    3.514163
      73Ap     3.525674    74Ap     3.568545    57App    3.568718
      58App    3.575010    59App    3.665385    75Ap     3.665775
      76Ap     3.679117    60App    3.694026    77Ap     3.694034
      78Ap     3.776847    61App    3.776878    79Ap     3.788822
      62App    3.912972    80Ap     3.913672    81Ap     4.035020
      82Ap     4.110876    63App    4.111318    64App    4.147942
      83Ap     4.148304    84Ap     4.173930    85Ap     4.203430
      65App    4.203716    86Ap     4.203863    66App    4.211202
      67App    4.315046    87Ap     4.316620    68App    4.358333
      88Ap     4.422721    69App    4.423809    70App    4.441501
      71App    4.516996    89Ap     4.517359    72App    4.578707
      90Ap     4.579282    91Ap     4.617905    92Ap     4.710743
      93Ap     4.775232    73App    4.775536    74App    4.838232
      94Ap     4.961552    95Ap     5.001799    75App    5.002348
      96Ap     5.227506    76App    5.246289    97Ap     5.246782
      77App    5.355646    98Ap     5.355683    78App    5.480571

    Beta Occupied:

       1Ap   -10.167863     1App  -10.167822     2Ap   -10.167802
       3Ap   -10.166478     4Ap    -0.781333     5Ap    -0.684070
       2App   -0.683916     6Ap    -0.511960     3App   -0.431107
       7Ap    -0.431077     8Ap    -0.421788     9Ap    -0.376576
       4App   -0.376486     5App   -0.362388    10Ap    -0.333589
       6App   -0.333003

    Beta Virtual:

      11Ap    -0.025912    12Ap     0.077077     7App    0.134946
      13Ap     0.135045     8App    0.144322    14Ap     0.144412
      15Ap     0.163487    16Ap     0.182261     9App    0.182337
      10App    0.214910    17Ap     0.219170    11App    0.282442
      18Ap     0.282668    12App    0.400292    19Ap     0.400505
      20Ap     0.419706    21Ap     0.426853    13App    0.426861
      22Ap     0.468759    23Ap     0.497615    14App    0.497681
      15App    0.513849    24Ap     0.556236    16App    0.584285
      25Ap     0.584362    17App    0.597676    26Ap     0.597732
      27Ap     0.609945    28Ap     0.628053    18App    0.631702
      19App    0.639609    29Ap     0.639610    20App    0.666999
      30Ap     0.667186    31Ap     0.686471    21App    0.686498
      32Ap     0.757309    22App    0.830611    33Ap     0.830613
      23App    0.855417    34Ap     0.922851    24App    0.923055
      25App    0.946016    35Ap     0.953866    26App    0.966479
      36Ap     0.966601    37Ap     1.008514    38Ap     1.132199
      27App    1.132221    39Ap     1.156038    40Ap     1.167698
      28App    1.167759    41Ap     1.232667    29App    1.280045
      42Ap     1.280447    43Ap     1.285250    30App    1.329499
      44Ap     1.329640    45Ap     1.365757    46Ap     1.371115
      31App    1.371636    32App    1.393011    33App    1.406588
      47Ap     1.407086    34App    1.421902    48Ap     1.422390
      35App    1.427923    36App    1.493078    49Ap     1.508963
      37App    1.547232    50Ap     1.547603    51Ap     1.582093
      38App    1.582714    52Ap     1.673874    39App    1.745578
      53Ap     1.745769    54Ap     1.779129    55Ap     1.834793
      40App    1.834913    41App    1.973190    56Ap     2.025829
      42App    2.026674    57Ap     2.039468    58Ap     2.059134
      43App    2.060366    44App    2.746923    59Ap     2.747007
      45App    2.811925    60Ap     2.816248    46App    2.902054
      61Ap     2.903362    62Ap     2.925091    47App    2.931648
      63Ap     2.932051    48App    2.960005    64Ap     2.968634
      49App    2.969215    65Ap     3.042160    50App    3.081045
      66Ap     3.081331    51App    3.086579    67Ap     3.184355
      52App    3.184687    68Ap     3.188872    53App    3.289642
      69Ap     3.290017    70Ap     3.331138    54App    3.331266
      71Ap     3.383372    55App    3.492915    72Ap     3.493051
      56App    3.512525    73Ap     3.528683    57App    3.574862
      74Ap     3.581860    58App    3.581953    59App    3.669879
      75Ap     3.670444    76Ap     3.692401    77Ap     3.725591
      60App    3.725940    61App    3.781406    78Ap     3.781496
      79Ap     3.817313    62App    3.922730    80Ap     3.923472
      81Ap     4.045828    82Ap     4.117788    63App    4.118229
      64App    4.155133    83Ap     4.155426    84Ap     4.188045
      65App    4.209642    85Ap     4.209696    86Ap     4.211551
      66App    4.215692    67App    4.322363    87Ap     4.324000
      68App    4.361717    88Ap     4.431007    69App    4.432073
      70App    4.444398    71App    4.524864    89Ap     4.525199
      72App    4.589349    90Ap     4.589879    91Ap     4.625117
      92Ap     4.721091    93Ap     4.782202    73App    4.782468
      74App    4.841146    94Ap     4.966368    95Ap     5.005860
      75App    5.006411    96Ap     5.233238    76App    5.248091
      97Ap     5.248569    77App    5.362136    98Ap     5.362211
      78App    5.482900

    Final Occupation by Irrep:
             Ap   App
    DOCC [    10,    6 ]
    SOCC [     1,    0 ]

  @DF-UKS Final Energy:  -157.81309177464436

   => Energetics <=

    Nuclear Repulsion Energy =            125.4225644691274510
    One-Electron Energy =                -458.8038921899250226
    Two-Electron Energy =                 195.8752624667177997
    DFT Exchange-Correlation Energy =     -20.3070265205646017
    Empirical Dispersion Energy =           0.0000000000000000
    VV10 Nonlocal Energy =                  0.0000000000000000
    Total Energy =                       -157.8130917746443629

  UHF NO Occupations:
  HONO-2 :    9 Ap 1.9995993
  HONO-1 :   10 Ap 1.9989827
  HONO-0 :   11 Ap 1.0000000
  LUNO+0 :   12 Ap 0.0010173
  LUNO+1 :   13 Ap 0.0004007
  LUNO+2 :    7App 0.0001972
  LUNO+3 :   14 Ap 0.0001964

Computation Completed

Properties will be evaluated at   0.000000,   0.000000,   0.000000 [a0]

Properties computed using the SCF density matrix

  Nuclear Dipole Moment: [e a0]
     X:     0.8280      Y:     0.0031      Z:     0.0000

  Electronic Dipole Moment: [e a0]
     X:    -0.7502      Y:    -0.0030      Z:     0.0000

  Dipole Moment: [e a0]
     X:     0.0778      Y:     0.0000      Z:     0.0000     Total:     0.0778

  Dipole Moment: [D]
     X:     0.1977      Y:     0.0001      Z:     0.0000     Total:     0.1977

*** tstop() called on n091 at Fri Nov  5 11:47:23 2021
Module time:
	user time   =     617.09 seconds =      10.28 minutes
	system time =       5.59 seconds =       0.09 minutes
	total time  =        156 seconds =       2.60 minutes
Total time:
	user time   =     617.09 seconds =      10.28 minutes
	system time =       5.59 seconds =       0.09 minutes
	total time  =        156 seconds =       2.60 minutes
Grab this energy -157.81309177464436
    Psi4 stopped on: Friday, 05 November 2021 11:47AM
    Psi4 wall time for execution: 0:02:36.42

*** Psi4 exiting successfully. Buy a developer a beer!
