                               Psi4 1.4a2.dev629

  ==> Input File <==

--------------------------------------------------------------------------
import os
memory 14 GB

molecule {
 C   -0.3230395596   -0.0000031594    0.0024267085
 C    0.0616905595   -1.3992414669   -2.4222939495
 C    0.0608810698    2.7963133827    0.0012524147
 C    0.0603113885   -1.3970698769    2.4210376430
 H    2.0888685427   -1.6389979312   -2.8419514110
 H   -0.7661880743   -0.3877048588   -4.0200636420
 H   -0.7620009129   -3.2919006068   -2.3466699807
 H    2.0865011327    3.2815075418   -0.0033514414
 H   -0.7611199198    3.6771455788    1.6794498107
 H   -0.7698358072    3.6713591097   -1.6727664171
 H    2.0844176980   -1.6426012327    2.8415100550
 H   -0.7688029080   -3.2854262086    2.3412994326
 H   -0.7642910861   -0.3834045853    4.0201207772
units bohr
0 2
}

basis {

assign 6-31g_2dfp_

[ 6-31g_2dfp_ ]

spherical

!----------------------------------------------------------------------
! Basis Set Exchange
! Version v0.8.13
! https://www.basissetexchange.org
!----------------------------------------------------------------------
!   Basis set: 6-31G(2df,p)
! Description: 6-31G(2df,p)
!        Role: orbital
!     Version: 0  (Data from the original Basis Set Exchange)
!----------------------------------------------------------------------

****
H     0
S    3   1.00
     18.7311370              0.03349460
      2.8253937              0.23472695
      0.6401217              0.81375733
S    1   1.00
      0.1612778              1.00000000
P    1   1.00
      1.5000000              1.0000000
P    1   1.00
      0.3750000              1.0000000
****
B     0
S    6   1.00
   2068.8823000              0.0018663
    310.6495700              0.0142515
     70.6830330              0.0695516
     19.8610800              0.2325729
      6.2993048              0.4670787
      2.1270270              0.3634314
SP   3   1.00
      4.7279710             -0.1303938              0.0745976
      1.1903377             -0.1307889              0.3078467
      0.3594117              1.1309444              0.7434568
SP   1   1.00
      0.1267512              1.0000000              1.0000000
D    1   1.00
      0.8020000              1.0000000
D    1   1.00
      0.2005000              1.0000000
F    1   1.00
      0.5000000              1.0000000
****
C     0
S    6   1.00
   3047.5249000              0.0018347
    457.3695100              0.0140373
    103.9486900              0.0688426
     29.2101550              0.2321844
      9.2866630              0.4679413
      3.1639270              0.3623120
SP   3   1.00
      7.8682724             -0.1193324              0.0689991
      1.8812885             -0.1608542              0.3164240
      0.5442493              1.1434564              0.7443083
SP   1   1.00
      0.1687144              1.0000000              1.0000000
D    1   1.00
      1.2520000              1.0000000
D    1   1.00
      0.3130000              1.0000000
F    1   1.00
      0.8000000              1.0000000
****
N     0
S    6   1.00
   4173.5110000              0.0018348
    627.4579000              0.0139950
    142.9021000              0.0685870
     40.2343300              0.2322410
     12.8202100              0.4690700
      4.3904370              0.3604550
SP   3   1.00
     11.6263580             -0.1149610              0.0675800
      2.7162800             -0.1691180              0.3239070
      0.7722180              1.1458520              0.7408950
SP   1   1.00
      0.2120313              1.0000000              1.0000000
D    1   1.00
      1.8260000              1.0000000
D    1   1.00
      0.4565000              1.0000000
F    1   1.00
      1.0000000              1.0000000
****
O     0
S    6   1.00
   5484.6717000              0.0018311
    825.2349500              0.0139501
    188.0469600              0.0684451
     52.9645000              0.2327143
     16.8975700              0.4701930
      5.7996353              0.3585209
SP   3   1.00
     15.5396160             -0.1107775              0.0708743
      3.5999336             -0.1480263              0.3397528
      1.0137618              1.1307670              0.7271586
SP   1   1.00
      0.2700058              1.0000000              1.0000000
D    1   1.00
      2.5840000              1.0000000
D    1   1.00
      0.6460000              1.0000000
F    1   1.00
      1.4000000              1.0000000
****
F     0
S    6   1.00
   7001.7130900              0.0018196169
   1051.3660900              0.0139160796
    239.2856900              0.0684053245
     67.3974453              0.233185760
     21.5199573              0.471267439
      7.40310130             0.356618546
SP   3   1.00
     20.8479528             -0.108506975            0.0716287243
      4.80830834            -0.146451658            0.3459121030
      1.34406986             1.128688580            0.7224699570
SP   1   1.00
      0.358151393            1.0000000              1.0000000
D    1   1.00
      3.5000000              1.0000000
D    1   1.00
      0.8750000              1.0000000
F    1   1.00
      1.8500000              1.0000000
****
Al     0
S    6   1.00
  13983.1000000              0.00194267
   2098.7500000              0.0148599
    477.7050000              0.0728494
    134.3600000              0.2468300
     42.8709000              0.4872580
     14.5189000              0.3234960
SP   6   1.00
    239.6680000             -0.00292619             0.00460285
     57.4419000             -0.0374080              0.0331990
     18.2859000             -0.1144870              0.1362820
      6.5991400              0.1156350              0.3304760
      2.4904900              0.6125950              0.4491460
      0.9445400              0.3937990              0.2657040
SP   3   1.00
      1.2779000             -0.2276060             -0.0175130
      0.3975900              0.00144583             0.2445330
      0.1600950              1.0927900              0.8049340
SP   1   1.00
      0.0556577              1.0000000              1.0000000
D    1   1.00
      0.6500000              1.0000000
D    1   1.00
      0.1625000              1.0000000
F    1   1.00
      0.2500000              1.0000000
****
Si     0
S    6   1.00
  16115.9000000              0.00195948
   2425.5800000              0.01492880
    553.8670000              0.07284780
    156.3400000              0.24613000
     50.0683000              0.48591400
     17.0178000              0.32500200
SP   6   1.00
    292.7180000             -0.00278094             0.00443826
     69.8731000             -0.03571460             0.03266790
     22.3363000             -0.11498500             0.13472100
      8.1503900              0.09356340             0.32867800
      3.1345800              0.60301700             0.44964000
      1.2254300              0.41895900             0.26137200
SP   3   1.00
      1.7273800             -0.24463000            -0.01779510
      0.5729220              0.00431572             0.25353900
      0.2221920              1.09818000             0.80066900
SP   1   1.00
      0.0778369              1.00000000             1.00000000
D    1   1.00
      0.9000000              1.0000000
D    1   1.00
      0.2250000              1.0000000
F    1   1.00
      0.3200000              1.0000000
****
P     0
S    6   1.00
  19413.3000000              0.0018516
   2909.4200000              0.0142062
    661.3640000              0.0699995
    185.7590000              0.2400790
     59.1943000              0.4847620
     20.0310000              0.3352000
SP   6   1.00
    339.4780000             -0.00278217             0.00456462
     81.0101000             -0.0360499              0.03369360
     25.8780000             -0.1166310              0.13975500
      9.4522100              0.0968328              0.33936200
      3.6656600              0.6144180              0.45092100
      1.4674600              0.4037980              0.23858600
SP   3   1.00
      2.1562300             -0.2529230             -0.01776530
      0.7489970              0.0328517              0.27405800
      0.2831450              1.0812500              0.78542100
SP   1   1.00
      0.0998317              1.0000000              1.00000000
D    1   1.00
      1.1000000              1.0000000
D    1   1.00
      0.2750000              1.0000000
F    1   1.00
      0.4500000              1.0000000
****
S     0
S    6   1.00
  21917.1000000              0.0018690
   3301.4900000              0.0142300
    754.1460000              0.0696960
    212.7110000              0.2384870
     67.9896000              0.4833070
     23.0515000              0.3380740
SP   6   1.00
    423.7350000             -0.0023767              0.0040610
    100.7100000             -0.0316930              0.0306810
     32.1599000             -0.1133170              0.1304520
     11.8079000              0.0560900              0.3272050
      4.6311000              0.5922550              0.4528510
      1.8702500              0.4550060              0.2560420
SP   3   1.00
      2.6158400             -0.2503740             -0.0145110
      0.9221670              0.0669570              0.3102630
      0.3412870              1.0545100              0.7544830
SP   1   1.00
      0.1171670              1.0000000              1.0000000
D    1   1.00
      1.3000000              1.0000000
D    1   1.00
      0.3250000              1.0000000
F    1   1.00
      0.5500000              1.0000000
****
Cl     0
S    6   1.00
  25180.1000000              0.0018330
   3780.3500000              0.0140340
    860.4740000              0.0690970
    242.1450000              0.2374520
     77.3349000              0.4830340
     26.2470000              0.3398560
SP   6   1.00
    491.7650000             -0.0022974              0.0039894
    116.9840000             -0.0307140              0.0303180
     37.4153000             -0.1125280              0.1298800
     13.7834000              0.0450160              0.3279510
      5.4521500              0.5893530              0.4535270
      2.2258800              0.4652060              0.2521540
SP   3   1.00
      3.1864900             -0.2518300             -0.0142990
      1.1442700              0.0615890              0.3235720
      0.4203770              1.0601800              0.7435070
SP   1   1.00
      0.1426570              1.0000000              1.0000000
D    1   1.00
      1.5000000              1.0000000
D    1   1.00
      0.3750000              1.0000000
F    1   1.00
      0.7000000              1.0000000
****
}

set {
reference uhf
freeze_core true
e_convergence 10
d_convergence 10
dft_spherical_points 1202
dft_radial_points 99
}

e = energy('b3lyp')

print_out('Grab this energy {0}'.format(e))
--------------------------------------------------------------------------

    Molecular point group: c1

    Geometry (in Bohr), charge = 0, multiplicity = 2:

       Center              X                  Y                   Z               Mass
    ------------   -----------------  -----------------  -----------------  -----------------
         C           -0.323017109891    -0.000002514222     0.001960056553    12.000000000000
         C            0.061713009209    -1.399240821722    -2.422760601447    12.000000000000
         C            0.060903519509     2.796314027878     0.000785762753    12.000000000000
         C            0.060333838209    -1.397069231722     2.420570991053    12.000000000000
         H            2.088890992409    -1.638997286022    -2.842418062947     1.007825032230
         H           -0.766165624591    -0.387704213622    -4.020530293947     1.007825032230
         H           -0.761978463191    -3.291899961622    -2.347136632647     1.007825032230
         H            2.086523582409     3.281508186978    -0.003818093347     1.007825032230
         H           -0.761097470091     3.677146223978     1.678983158753     1.007825032230
         H           -0.769813357491     3.671359754878    -1.673233069047     1.007825032230
         H            2.084440147709    -1.642600587522     2.841043403053     1.007825032230
         H           -0.768780458291    -3.285425563422     2.340832780653     1.007825032230
         H           -0.764268636391    -0.383403940122     4.019654125253     1.007825032230

  Charge       = 0
  Multiplicity = 2
  Basis Set: ANONYMOUS76D6073C
    Blend: 6-31G_2DFP_
  Basis Set: (ANONYMOUS76D6073C AUX)
    Blend: DEF2-UNIVERSAL-JKFIT

    Orbital Energies [Eh]
    ---------------------

    Alpha Occupied:

       1A    -10.179568     2A    -10.166843     3A    -10.166654
       4A    -10.166463     5A     -0.798817     6A     -0.686632
       7A     -0.686345     8A     -0.530774     9A     -0.441722
      10A     -0.435225    11A     -0.435080    12A     -0.382718
      13A     -0.382628    14A     -0.363492    15A     -0.338335
      16A     -0.338037    17A     -0.168635

    Alpha Virtual:

      18A      0.076043    19A      0.134131    20A      0.134258
      21A      0.142818    22A      0.142843    23A      0.154942
      24A      0.178950    25A      0.178956    26A      0.204641
      27A      0.215148    28A      0.276170    29A      0.276841
      30A      0.399188    31A      0.399205    32A      0.403148
      33A      0.423794    34A      0.423857    35A      0.457177
      36A      0.495568    37A      0.495667    38A      0.512497
      39A      0.514381    40A      0.579315    41A      0.579672
      42A      0.591946    43A      0.592417    44A      0.603037
      45A      0.625168    46A      0.632125    47A      0.636973
      48A      0.637168    49A      0.663685    50A      0.664088
      51A      0.684291    52A      0.684325    53A      0.734788
      54A      0.825223    55A      0.825281    56A      0.854917
      57A      0.915623    58A      0.915890    59A      0.944024
      60A      0.945464    61A      0.962214    62A      0.962298
      63A      1.004585    64A      1.128955    65A      1.129033
      66A      1.142560    67A      1.163931    68A      1.164167
      69A      1.224233    70A      1.275216    71A      1.275574
      72A      1.279875    73A      1.324572    74A      1.324810
      75A      1.356168    76A      1.367588    77A      1.368176
      78A      1.393953    79A      1.403428    80A      1.404094
      81A      1.417229    82A      1.417748    83A      1.429327
      84A      1.492715    85A      1.499663    86A      1.543428
      87A      1.543697    88A      1.575380    89A      1.575822
      90A      1.669770    91A      1.739778    92A      1.740311
      93A      1.769835    94A      1.832172    95A      1.832999
      96A      1.973117    97A      2.020006    98A      2.020167
      99A      2.020765   100A      2.056185   101A      2.058122
     102A      2.739021   103A      2.739134   104A      2.792082
     105A      2.814151   106A      2.890646   107A      2.891476
     108A      2.896506   109A      2.929509   110A      2.929861
     111A      2.959232   112A      2.963805   113A      2.964335
     114A      3.033966   115A      3.071950   116A      3.072548
     117A      3.085935   118A      3.169575   119A      3.169667
     120A      3.182511   121A      3.285767   122A      3.285856
     123A      3.327154   124A      3.328036   125A      3.374229
     126A      3.491686   127A      3.492190   128A      3.514776
     129A      3.527636   130A      3.567526   131A      3.569168
     132A      3.577282   133A      3.666136   134A      3.666521
     135A      3.681645   136A      3.695251   137A      3.695923
     138A      3.779935   139A      3.782583   140A      3.789865
     141A      3.913825   142A      3.914804   143A      4.036298
     144A      4.113177   145A      4.115209   146A      4.148360
     147A      4.149434   148A      4.174460   149A      4.203986
     150A      4.205022   151A      4.205923   152A      4.212450
     153A      4.316987   154A      4.318024   155A      4.361496
     156A      4.426030   157A      4.427020   158A      4.445875
     159A      4.519072   160A      4.520608   161A      4.581172
     162A      4.582489   163A      4.624883   164A      4.714237
     165A      4.780438   166A      4.781662   167A      4.840856
     168A      4.965915   169A      5.003948   170A      5.005202
     171A      5.229048   172A      5.248103   173A      5.248359
     174A      5.357168   175A      5.359096   176A      5.485116

    Beta Occupied:

       1A    -10.167600     2A    -10.167414     3A    -10.167227
       4A    -10.165772     5A     -0.782120     6A     -0.684403
       7A     -0.684139     8A     -0.511845     9A     -0.431584
      10A     -0.431425    11A     -0.422323    12A     -0.376755
      13A     -0.376689    14A     -0.362464    15A     -0.333463
      16A     -0.333164

    Beta Virtual:

      17A     -0.025711    18A      0.077063    19A      0.135012
      20A      0.135146    21A      0.144707    22A      0.144752
      23A      0.163445    24A      0.182646    25A      0.182656
      26A      0.215384    27A      0.219842    28A      0.282459
      29A      0.283109    30A      0.400401    31A      0.400406
      32A      0.419487    33A      0.426583    34A      0.426672
      35A      0.469441    36A      0.497849    37A      0.497935
      38A      0.514248    39A      0.556646    40A      0.584860
      41A      0.585244    42A      0.598086    43A      0.598511
      44A      0.610502    45A      0.628604    46A      0.632293
      47A      0.640310    48A      0.640549    49A      0.667218
      50A      0.667597    51A      0.687020    52A      0.687028
      53A      0.757132    54A      0.830436    55A      0.830440
      56A      0.856307    57A      0.923604    58A      0.923877
      59A      0.947303    60A      0.952860    61A      0.967516
      62A      0.967658    63A      1.009750    64A      1.132930
      65A      1.133116    66A      1.155947    67A      1.169070
      68A      1.169179    69A      1.233345    70A      1.280843
      71A      1.281212    72A      1.285566    73A      1.329573
      74A      1.329786    75A      1.365614    76A      1.372861
      77A      1.373368    78A      1.395019    79A      1.406840
      80A      1.407562    81A      1.422337    82A      1.422842
      83A      1.429631    84A      1.493762    85A      1.510171
      86A      1.547810    87A      1.548019    88A      1.583361
      89A      1.583719    90A      1.674623    91A      1.745529
      92A      1.746091    93A      1.780639    94A      1.836038
      95A      1.836879    96A      1.973980    97A      2.026494
      98A      2.026655    99A      2.042055   100A      2.062957
     101A      2.064834   102A      2.747234   103A      2.747400
     104A      2.814568   105A      2.817197   106A      2.903181
     107A      2.903893   108A      2.926206   109A      2.932182
     110A      2.932527   111A      2.960306   112A      2.968425
     113A      2.968924   114A      3.041989   115A      3.081988
     116A      3.082502   117A      3.087769   118A      3.185122
     119A      3.185364   120A      3.190177   121A      3.290738
     122A      3.290833   123A      3.330890   124A      3.331759
     125A      3.382033   126A      3.494393   127A      3.494932
     128A      3.513134   129A      3.530635   130A      3.577147
     131A      3.580898   132A      3.582487   133A      3.670910
     134A      3.671059   135A      3.694905   136A      3.726852
     137A      3.727227   138A      3.784559   139A      3.787126
     140A      3.818235   141A      3.923693   142A      3.924583
     143A      4.047121   144A      4.119716   145A      4.121736
     146A      4.155826   147A      4.156777   148A      4.188635
     149A      4.210827   150A      4.211688   151A      4.212311
     152A      4.217000   153A      4.324427   154A      4.325527
     155A      4.364838   156A      4.434371   157A      4.435317
     158A      4.448778   159A      4.527000   160A      4.528514
     161A      4.591786   162A      4.593111   163A      4.632060
     164A      4.724666   165A      4.787435   166A      4.788579
     167A      4.843772   168A      4.970732   169A      5.008008
     170A      5.009299   171A      5.234802   172A      5.249887
     173A      5.250166   174A      5.363682   175A      5.365653
     176A      5.487459

    Final Occupation by Irrep:
              A
    DOCC [    16 ]
    SOCC [     1 ]

  @DF-UKS Final Energy:  -157.81303843660427

   => Energetics <=

    Nuclear Repulsion Energy =            125.5761682563885131
    One-Electron Energy =                -459.1062983924133505
    Two-Electron Energy =                 196.0280441098450979
    DFT Exchange-Correlation Energy =     -20.3109524104245693
    Empirical Dispersion Energy =           0.0000000000000000
    VV10 Nonlocal Energy =                  0.0000000000000000
    Total Energy =                       -157.8130384366042733

  UHF NO Occupations:
  HONO-2 :   15  A 1.9995992
  HONO-1 :   16  A 1.9989874
  HONO-0 :   17  A 1.0000000
  LUNO+0 :   18  A 0.0010126
  LUNO+1 :   19  A 0.0004008
  LUNO+2 :   20  A 0.0001959
  LUNO+3 :   21  A 0.0001948

Computation Completed

Properties will be evaluated at   0.000000,   0.000000,   0.000000 [a0]

Properties computed using the SCF density matrix

  Nuclear Dipole Moment: [e a0]
     X:     0.8274      Y:    -0.0000      Z:    -0.0033

  Electronic Dipole Moment: [e a0]
     X:    -0.7503      Y:     0.0000      Z:     0.0033

  Dipole Moment: [e a0]
     X:     0.0770      Y:     0.0000      Z:    -0.0000     Total:     0.0770

  Dipole Moment: [D]
     X:     0.1958      Y:     0.0000      Z:    -0.0001     Total:     0.1958

*** tstop() called on n054 at Fri Nov  5 15:48:08 2021
Module time:
	user time   =     546.86 seconds =       9.11 minutes
	system time =      12.04 seconds =       0.20 minutes
	total time  =        141 seconds =       2.35 minutes
Total time:
	user time   =     546.86 seconds =       9.11 minutes
	system time =      12.04 seconds =       0.20 minutes
	total time  =        141 seconds =       2.35 minutes
Grab this energy -157.81303843660427
    Psi4 stopped on: Friday, 05 November 2021 03:48PM
    Psi4 wall time for execution: 0:02:20.53

*** Psi4 exiting successfully. Buy a developer a beer!
