                               Psi4 1.4a2.dev629

  ==> Input File <==

--------------------------------------------------------------------------
import os
memory 14 GB

molecule {
 C   -0.3218900422   -0.0000022592   -0.0004940396
 C    0.0603690390   -1.4012788139   -2.4271153834
 C    0.0601643054    2.8018533180   -0.0000402183
 C    0.0601994917   -1.4005710649    2.4258091017
 H    2.0833674793   -1.6443031244   -2.8477681614
 H   -0.7634071600   -0.3909983172   -4.0230731736
 H   -0.7634801279   -3.2890569151   -2.3504522445
 H    2.0868489440    3.2880586373    0.0000287246
 H   -0.7653951601    3.6807495633    1.6768841270
 H   -0.7655758185    3.6797602564   -1.6762284539
 H    2.0906088888   -1.6438475332    2.8470357224
 H   -0.7673360208   -3.2950405875    2.3474667758
 H   -0.7670816954   -0.3853474732    4.0279472232
units bohr
0 2
}

basis {

assign 6-31g_2dfp_

[ 6-31g_2dfp_ ]

spherical

!----------------------------------------------------------------------
! Basis Set Exchange
! Version v0.8.13
! https://www.basissetexchange.org
!----------------------------------------------------------------------
!   Basis set: 6-31G(2df,p)
! Description: 6-31G(2df,p)
!        Role: orbital
!     Version: 0  (Data from the original Basis Set Exchange)
!----------------------------------------------------------------------

****
H     0
S    3   1.00
     18.7311370              0.03349460
      2.8253937              0.23472695
      0.6401217              0.81375733
S    1   1.00
      0.1612778              1.00000000
P    1   1.00
      1.5000000              1.0000000
P    1   1.00
      0.3750000              1.0000000
****
B     0
S    6   1.00
   2068.8823000              0.0018663
    310.6495700              0.0142515
     70.6830330              0.0695516
     19.8610800              0.2325729
      6.2993048              0.4670787
      2.1270270              0.3634314
SP   3   1.00
      4.7279710             -0.1303938              0.0745976
      1.1903377             -0.1307889              0.3078467
      0.3594117              1.1309444              0.7434568
SP   1   1.00
      0.1267512              1.0000000              1.0000000
D    1   1.00
      0.8020000              1.0000000
D    1   1.00
      0.2005000              1.0000000
F    1   1.00
      0.5000000              1.0000000
****
C     0
S    6   1.00
   3047.5249000              0.0018347
    457.3695100              0.0140373
    103.9486900              0.0688426
     29.2101550              0.2321844
      9.2866630              0.4679413
      3.1639270              0.3623120
SP   3   1.00
      7.8682724             -0.1193324              0.0689991
      1.8812885             -0.1608542              0.3164240
      0.5442493              1.1434564              0.7443083
SP   1   1.00
      0.1687144              1.0000000              1.0000000
D    1   1.00
      1.2520000              1.0000000
D    1   1.00
      0.3130000              1.0000000
F    1   1.00
      0.8000000              1.0000000
****
N     0
S    6   1.00
   4173.5110000              0.0018348
    627.4579000              0.0139950
    142.9021000              0.0685870
     40.2343300              0.2322410
     12.8202100              0.4690700
      4.3904370              0.3604550
SP   3   1.00
     11.6263580             -0.1149610              0.0675800
      2.7162800             -0.1691180              0.3239070
      0.7722180              1.1458520              0.7408950
SP   1   1.00
      0.2120313              1.0000000              1.0000000
D    1   1.00
      1.8260000              1.0000000
D    1   1.00
      0.4565000              1.0000000
F    1   1.00
      1.0000000              1.0000000
****
O     0
S    6   1.00
   5484.6717000              0.0018311
    825.2349500              0.0139501
    188.0469600              0.0684451
     52.9645000              0.2327143
     16.8975700              0.4701930
      5.7996353              0.3585209
SP   3   1.00
     15.5396160             -0.1107775              0.0708743
      3.5999336             -0.1480263              0.3397528
      1.0137618              1.1307670              0.7271586
SP   1   1.00
      0.2700058              1.0000000              1.0000000
D    1   1.00
      2.5840000              1.0000000
D    1   1.00
      0.6460000              1.0000000
F    1   1.00
      1.4000000              1.0000000
****
F     0
S    6   1.00
   7001.7130900              0.0018196169
   1051.3660900              0.0139160796
    239.2856900              0.0684053245
     67.3974453              0.233185760
     21.5199573              0.471267439
      7.40310130             0.356618546
SP   3   1.00
     20.8479528             -0.108506975            0.0716287243
      4.80830834            -0.146451658            0.3459121030
      1.34406986             1.128688580            0.7224699570
SP   1   1.00
      0.358151393            1.0000000              1.0000000
D    1   1.00
      3.5000000              1.0000000
D    1   1.00
      0.8750000              1.0000000
F    1   1.00
      1.8500000              1.0000000
****
Al     0
S    6   1.00
  13983.1000000              0.00194267
   2098.7500000              0.0148599
    477.7050000              0.0728494
    134.3600000              0.2468300
     42.8709000              0.4872580
     14.5189000              0.3234960
SP   6   1.00
    239.6680000             -0.00292619             0.00460285
     57.4419000             -0.0374080              0.0331990
     18.2859000             -0.1144870              0.1362820
      6.5991400              0.1156350              0.3304760
      2.4904900              0.6125950              0.4491460
      0.9445400              0.3937990              0.2657040
SP   3   1.00
      1.2779000             -0.2276060             -0.0175130
      0.3975900              0.00144583             0.2445330
      0.1600950              1.0927900              0.8049340
SP   1   1.00
      0.0556577              1.0000000              1.0000000
D    1   1.00
      0.6500000              1.0000000
D    1   1.00
      0.1625000              1.0000000
F    1   1.00
      0.2500000              1.0000000
****
Si     0
S    6   1.00
  16115.9000000              0.00195948
   2425.5800000              0.01492880
    553.8670000              0.07284780
    156.3400000              0.24613000
     50.0683000              0.48591400
     17.0178000              0.32500200
SP   6   1.00
    292.7180000             -0.00278094             0.00443826
     69.8731000             -0.03571460             0.03266790
     22.3363000             -0.11498500             0.13472100
      8.1503900              0.09356340             0.32867800
      3.1345800              0.60301700             0.44964000
      1.2254300              0.41895900             0.26137200
SP   3   1.00
      1.7273800             -0.24463000            -0.01779510
      0.5729220              0.00431572             0.25353900
      0.2221920              1.09818000             0.80066900
SP   1   1.00
      0.0778369              1.00000000             1.00000000
D    1   1.00
      0.9000000              1.0000000
D    1   1.00
      0.2250000              1.0000000
F    1   1.00
      0.3200000              1.0000000
****
P     0
S    6   1.00
  19413.3000000              0.0018516
   2909.4200000              0.0142062
    661.3640000              0.0699995
    185.7590000              0.2400790
     59.1943000              0.4847620
     20.0310000              0.3352000
SP   6   1.00
    339.4780000             -0.00278217             0.00456462
     81.0101000             -0.0360499              0.03369360
     25.8780000             -0.1166310              0.13975500
      9.4522100              0.0968328              0.33936200
      3.6656600              0.6144180              0.45092100
      1.4674600              0.4037980              0.23858600
SP   3   1.00
      2.1562300             -0.2529230             -0.01776530
      0.7489970              0.0328517              0.27405800
      0.2831450              1.0812500              0.78542100
SP   1   1.00
      0.0998317              1.0000000              1.00000000
D    1   1.00
      1.1000000              1.0000000
D    1   1.00
      0.2750000              1.0000000
F    1   1.00
      0.4500000              1.0000000
****
S     0
S    6   1.00
  21917.1000000              0.0018690
   3301.4900000              0.0142300
    754.1460000              0.0696960
    212.7110000              0.2384870
     67.9896000              0.4833070
     23.0515000              0.3380740
SP   6   1.00
    423.7350000             -0.0023767              0.0040610
    100.7100000             -0.0316930              0.0306810
     32.1599000             -0.1133170              0.1304520
     11.8079000              0.0560900              0.3272050
      4.6311000              0.5922550              0.4528510
      1.8702500              0.4550060              0.2560420
SP   3   1.00
      2.6158400             -0.2503740             -0.0145110
      0.9221670              0.0669570              0.3102630
      0.3412870              1.0545100              0.7544830
SP   1   1.00
      0.1171670              1.0000000              1.0000000
D    1   1.00
      1.3000000              1.0000000
D    1   1.00
      0.3250000              1.0000000
F    1   1.00
      0.5500000              1.0000000
****
Cl     0
S    6   1.00
  25180.1000000              0.0018330
   3780.3500000              0.0140340
    860.4740000              0.0690970
    242.1450000              0.2374520
     77.3349000              0.4830340
     26.2470000              0.3398560
SP   6   1.00
    491.7650000             -0.0022974              0.0039894
    116.9840000             -0.0307140              0.0303180
     37.4153000             -0.1125280              0.1298800
     13.7834000              0.0450160              0.3279510
      5.4521500              0.5893530              0.4535270
      2.2258800              0.4652060              0.2521540
SP   3   1.00
      3.1864900             -0.2518300             -0.0142990
      1.1442700              0.0615890              0.3235720
      0.4203770              1.0601800              0.7435070
SP   1   1.00
      0.1426570              1.0000000              1.0000000
D    1   1.00
      1.5000000              1.0000000
D    1   1.00
      0.3750000              1.0000000
F    1   1.00
      0.7000000              1.0000000
****
}

set {
reference uhf
freeze_core true
e_convergence 10
d_convergence 10
dft_spherical_points 1202
dft_radial_points 99
}

e = energy('b3lyp')

print_out('Grab this energy {0}'.format(e))
--------------------------------------------------------------------------

    Molecular point group: c1

    Geometry (in Bohr), charge = 0, multiplicity = 2:

       Center              X                  Y                   Z               Mass
    ------------   -----------------  -----------------  -----------------  -----------------
         C           -0.321674857339    -0.000002057115    -0.000139538416    12.000000000000
         C            0.060584223861    -1.401278611815    -2.426760882216    12.000000000000
         C            0.060379490261     2.801853520085     0.000314282884    12.000000000000
         C            0.060414676561    -1.400570862815     2.426163602884    12.000000000000
         H            2.083582664161    -1.644302922315    -2.847413660216     1.007825032230
         H           -0.763191975139    -0.390998115115    -4.022718672416     1.007825032230
         H           -0.763264943039    -3.289056713015    -2.350097743316     1.007825032230
         H            2.087064128861     3.288058839385     0.000383225784     1.007825032230
         H           -0.765179975239     3.680749765385     1.677238628184     1.007825032230
         H           -0.765360633639     3.679760458485    -1.675873952716     1.007825032230
         H            2.090824073661    -1.643847331115     2.847390223584     1.007825032230
         H           -0.767120835939    -3.295040385415     2.347821276984     1.007825032230
         H           -0.766866510539    -0.385347271115     4.028301724384     1.007825032230

  Charge       = 0
  Multiplicity = 2
  Basis Set: ANONYMOUS38F18976
    Blend: 6-31G_2DFP_
  Basis Set: (ANONYMOUS38F18976 AUX)
    Blend: DEF2-UNIVERSAL-JKFIT

    Orbital Energies [Eh]
    ---------------------

    Alpha Occupied:

       1A    -10.180277     2A    -10.167604     3A    -10.167024
       4A    -10.166442     5A     -0.797782     6A     -0.686527
       7A     -0.685883     8A     -0.530769     9A     -0.441068
      10A     -0.434822    11A     -0.434648    12A     -0.382714
      13A     -0.382269    14A     -0.363738    15A     -0.338122
      16A     -0.338058    17A     -0.168778

    Alpha Virtual:

      18A      0.076067    19A      0.134151    20A      0.134153
      21A      0.142553    22A      0.142762    23A      0.154795
      24A      0.178388    25A      0.179035    26A      0.203521
      27A      0.214853    28A      0.276113    29A      0.276203
      30A      0.399169    31A      0.399328    32A      0.403424
      33A      0.424029    34A      0.424220    35A      0.456498
      36A      0.495345    37A      0.495485    38A      0.512116
      39A      0.514077    40A      0.578563    41A      0.578810
      42A      0.591297    43A      0.591896    44A      0.602372
      45A      0.624847    46A      0.631756    47A      0.636063
      48A      0.636828    49A      0.663072    50A      0.663438
      51A      0.683656    52A      0.684283    53A      0.735190
      54A      0.825059    55A      0.825857    56A      0.853915
      57A      0.915079    58A      0.915102    59A      0.944082
      60A      0.944563    61A      0.961032    62A      0.961527
      63A      1.003454    64A      1.127687    65A      1.128342
      66A      1.142205    67A      1.162749    68A      1.162924
      69A      1.223486    70A      1.274373    71A      1.274735
      72A      1.279111    73A      1.324247    74A      1.324961
      75A      1.355743    76A      1.366168    77A      1.366692
      78A      1.392450    79A      1.403612    80A      1.404388
      81A      1.416550    82A      1.417186    83A      1.427864
      84A      1.491675    85A      1.498691    86A      1.542728
      87A      1.542841    88A      1.574450    89A      1.575016
      90A      1.670067    91A      1.739569    92A      1.739718
      93A      1.768271    94A      1.830218    95A      1.833418
      96A      1.971962    97A      2.018455    98A      2.018779
      99A      2.019551   100A      2.052218   101A      2.052332
     102A      2.738232   103A      2.739129   104A      2.790725
     105A      2.811460   106A      2.889903   107A      2.890452
     108A      2.894673   109A      2.929371   110A      2.929578
     111A      2.959074   112A      2.963968   113A      2.965017
     114A      3.033667   115A      3.071896   116A      3.072348
     117A      3.084455   118A      3.168530   119A      3.168795
     120A      3.180628   121A      3.284452   122A      3.284585
     123A      3.326763   124A      3.326855   125A      3.375442
     126A      3.489559   127A      3.491224   128A      3.514198
     129A      3.524880   130A      3.568607   131A      3.568700
     132A      3.574582   133A      3.666184   134A      3.667650
     135A      3.679871   136A      3.693615   137A      3.694541
     138A      3.776516   139A      3.777681   140A      3.790386
     141A      3.911791   142A      3.912687   143A      4.034749
     144A      4.110813   145A      4.112283   146A      4.146108
     147A      4.150104   148A      4.173354   149A      4.200802
     150A      4.202706   151A      4.205031   152A      4.211109
     153A      4.315067   154A      4.316449   155A      4.358465
     156A      4.424350   157A      4.424784   158A      4.443805
     159A      4.516281   160A      4.516771   161A      4.577718
     162A      4.578639   163A      4.618027   164A      4.709158
     165A      4.774647   166A      4.774844   167A      4.838067
     168A      4.962767   169A      5.002247   170A      5.003399
     171A      5.227944   172A      5.243226   173A      5.250585
     174A      5.352865   175A      5.358887   176A      5.479800

    Beta Occupied:

       1A    -10.168367     2A    -10.167785     3A    -10.167204
       4A    -10.166456     5A     -0.781103     6A     -0.684331
       7A     -0.683688     8A     -0.511749     9A     -0.431214
      10A     -0.431018    11A     -0.421735    12A     -0.376798
      13A     -0.376334    14A     -0.362723    15A     -0.333234
      16A     -0.333185

    Beta Virtual:

      17A     -0.025642    18A      0.077081    19A      0.134996
      20A      0.135109    21A      0.144468    22A      0.144581
      23A      0.163265    24A      0.182068    25A      0.182696
      26A      0.215083    27A      0.218925    28A      0.282447
      29A      0.282541    30A      0.400336    31A      0.400502
      32A      0.419897    33A      0.426835    34A      0.427032
      35A      0.468392    36A      0.497600    37A      0.497741
      38A      0.513856    39A      0.556423    40A      0.584119
      41A      0.584381    42A      0.597496    43A      0.598049
      44A      0.609817    45A      0.628200    46A      0.631948
      47A      0.639348    48A      0.640069    49A      0.666620
      50A      0.667013    51A      0.686332    52A      0.686890
      53A      0.757693    54A      0.830197    55A      0.831047
      56A      0.855274    57A      0.923042    58A      0.923061
      59A      0.945923    60A      0.953497    61A      0.966400
      62A      0.966838    63A      1.008675    64A      1.131693
      65A      1.132380    66A      1.155612    67A      1.167812
      68A      1.168014    69A      1.232463    70A      1.279952
      71A      1.280319    72A      1.284856    73A      1.329181
      74A      1.329989    75A      1.365178    76A      1.371431
      77A      1.371929    78A      1.393515    79A      1.407061
      80A      1.407873    81A      1.421577    82A      1.422303
      83A      1.428127    84A      1.492725    85A      1.509127
      86A      1.547092    87A      1.547293    88A      1.582329
      89A      1.582880    90A      1.674897    91A      1.745352
      92A      1.745467    93A      1.779068    94A      1.834111
      95A      1.837253    96A      1.972827    97A      2.025095
      98A      2.025196    99A      2.040666   100A      2.058856
     101A      2.059090   102A      2.746554   103A      2.747479
     104A      2.811864   105A      2.815880   106A      2.902646
     107A      2.903029   108A      2.924362   109A      2.931917
     110A      2.932020   111A      2.960138   112A      2.968463
     113A      2.969590   114A      3.041642   115A      3.081688
     116A      3.082252   117A      3.086322   118A      3.184333
     119A      3.184675   120A      3.188277   121A      3.289264
     122A      3.289449   123A      3.330578   124A      3.330631
     125A      3.383251   126A      3.492303   127A      3.493904
     128A      3.512557   129A      3.527916   130A      3.574336
     131A      3.581964   132A      3.582038   133A      3.670898
     134A      3.672481   135A      3.693197   136A      3.725229
     137A      3.726135   138A      3.781030   139A      3.782140
     140A      3.818941   141A      3.921659   142A      3.922528
     143A      4.045603   144A      4.117851   145A      4.118882
     146A      4.153531   147A      4.157106   148A      4.187446
     149A      4.207328   150A      4.208835   151A      4.212204
     152A      4.215613   153A      4.322608   154A      4.323743
     155A      4.361830   156A      4.432625   157A      4.432976
     158A      4.446732   159A      4.524151   160A      4.524519
     161A      4.588332   162A      4.589159   163A      4.625227
     164A      4.719477   165A      4.781554   166A      4.781815
     167A      4.840973   168A      4.967566   169A      5.006317
     170A      5.007435   171A      5.233651   172A      5.245019
     173A      5.252372   174A      5.359350   175A      5.365343
     176A      5.482114

    Final Occupation by Irrep:
              A
    DOCC [    16 ]
    SOCC [     1 ]

  @DF-UKS Final Energy:  -157.81306563754583

   => Energetics <=

    Nuclear Repulsion Energy =            125.3970746706985295
    One-Electron Energy =                -458.7536145323171013
    Two-Electron Energy =                 195.8506899201884153
    DFT Exchange-Correlation Energy =     -20.3072156961156765
    Empirical Dispersion Energy =           0.0000000000000000
    VV10 Nonlocal Energy =                  0.0000000000000000
    Total Energy =                       -157.8130656375458329

  UHF NO Occupations:
  HONO-2 :   15  A 1.9995994
  HONO-1 :   16  A 1.9989790
  HONO-0 :   17  A 1.0000000
  LUNO+0 :   18  A 0.0010210
  LUNO+1 :   19  A 0.0004006
  LUNO+2 :   20  A 0.0001975
  LUNO+3 :   21  A 0.0001974

Computation Completed

Properties will be evaluated at   0.000000,   0.000000,   0.000000 [a0]

Properties computed using the SCF density matrix

  Nuclear Dipole Moment: [e a0]
     X:     0.8287      Y:    -0.0000      Z:     0.0025

  Electronic Dipole Moment: [e a0]
     X:    -0.7516      Y:     0.0000      Z:    -0.0049

  Dipole Moment: [e a0]
     X:     0.0771      Y:     0.0000      Z:    -0.0024     Total:     0.0772

  Dipole Moment: [D]
     X:     0.1961      Y:     0.0000      Z:    -0.0062     Total:     0.1962

*** tstop() called on n021 at Fri Nov  5 11:37:32 2021
Module time:
	user time   =     639.36 seconds =      10.66 minutes
	system time =      12.28 seconds =       0.20 minutes
	total time  =        163 seconds =       2.72 minutes
Total time:
	user time   =     639.36 seconds =      10.66 minutes
	system time =      12.28 seconds =       0.20 minutes
	total time  =        163 seconds =       2.72 minutes
Grab this energy -157.81306563754583
    Psi4 stopped on: Friday, 05 November 2021 11:37AM
    Psi4 wall time for execution: 0:02:43.84

*** Psi4 exiting successfully. Buy a developer a beer!
