                               Psi4 1.4a2.dev629

  ==> Input File <==

--------------------------------------------------------------------------
import os
memory 14 GB

molecule {
 C   -0.3233390812   -0.0002488221   -0.0000002067
 C    0.0605849623   -1.3999609907   -2.4269817850
 C    0.0621336176    2.8016350126    0.0009660165
 C    0.0605860500   -1.4016346219    2.4260151658
 H    2.0853118272   -1.6389334574   -2.8469069720
 H   -0.7646953908   -0.3913175593   -4.0264413061
 H   -0.7679166329   -3.2944778403   -2.3486496575
 H    2.0900349926    3.2942042270    0.0026031723
 H   -0.7616413984    3.6764208211    1.6746207942
 H   -0.7663665626    3.6774261473   -1.6781479481
 H    2.0853150140   -1.6434375196    2.8443044668
 H   -0.7631931898   -3.2909163116    2.3495288161
 H   -0.7694220848   -0.3887833988    4.0290894436
units bohr
0 2
}

basis {

assign 6-31g_2dfp_

[ 6-31g_2dfp_ ]

spherical

!----------------------------------------------------------------------
! Basis Set Exchange
! Version v0.8.13
! https://www.basissetexchange.org
!----------------------------------------------------------------------
!   Basis set: 6-31G(2df,p)
! Description: 6-31G(2df,p)
!        Role: orbital
!     Version: 0  (Data from the original Basis Set Exchange)
!----------------------------------------------------------------------

****
H     0
S    3   1.00
     18.7311370              0.03349460
      2.8253937              0.23472695
      0.6401217              0.81375733
S    1   1.00
      0.1612778              1.00000000
P    1   1.00
      1.5000000              1.0000000
P    1   1.00
      0.3750000              1.0000000
****
B     0
S    6   1.00
   2068.8823000              0.0018663
    310.6495700              0.0142515
     70.6830330              0.0695516
     19.8610800              0.2325729
      6.2993048              0.4670787
      2.1270270              0.3634314
SP   3   1.00
      4.7279710             -0.1303938              0.0745976
      1.1903377             -0.1307889              0.3078467
      0.3594117              1.1309444              0.7434568
SP   1   1.00
      0.1267512              1.0000000              1.0000000
D    1   1.00
      0.8020000              1.0000000
D    1   1.00
      0.2005000              1.0000000
F    1   1.00
      0.5000000              1.0000000
****
C     0
S    6   1.00
   3047.5249000              0.0018347
    457.3695100              0.0140373
    103.9486900              0.0688426
     29.2101550              0.2321844
      9.2866630              0.4679413
      3.1639270              0.3623120
SP   3   1.00
      7.8682724             -0.1193324              0.0689991
      1.8812885             -0.1608542              0.3164240
      0.5442493              1.1434564              0.7443083
SP   1   1.00
      0.1687144              1.0000000              1.0000000
D    1   1.00
      1.2520000              1.0000000
D    1   1.00
      0.3130000              1.0000000
F    1   1.00
      0.8000000              1.0000000
****
N     0
S    6   1.00
   4173.5110000              0.0018348
    627.4579000              0.0139950
    142.9021000              0.0685870
     40.2343300              0.2322410
     12.8202100              0.4690700
      4.3904370              0.3604550
SP   3   1.00
     11.6263580             -0.1149610              0.0675800
      2.7162800             -0.1691180              0.3239070
      0.7722180              1.1458520              0.7408950
SP   1   1.00
      0.2120313              1.0000000              1.0000000
D    1   1.00
      1.8260000              1.0000000
D    1   1.00
      0.4565000              1.0000000
F    1   1.00
      1.0000000              1.0000000
****
O     0
S    6   1.00
   5484.6717000              0.0018311
    825.2349500              0.0139501
    188.0469600              0.0684451
     52.9645000              0.2327143
     16.8975700              0.4701930
      5.7996353              0.3585209
SP   3   1.00
     15.5396160             -0.1107775              0.0708743
      3.5999336             -0.1480263              0.3397528
      1.0137618              1.1307670              0.7271586
SP   1   1.00
      0.2700058              1.0000000              1.0000000
D    1   1.00
      2.5840000              1.0000000
D    1   1.00
      0.6460000              1.0000000
F    1   1.00
      1.4000000              1.0000000
****
F     0
S    6   1.00
   7001.7130900              0.0018196169
   1051.3660900              0.0139160796
    239.2856900              0.0684053245
     67.3974453              0.233185760
     21.5199573              0.471267439
      7.40310130             0.356618546
SP   3   1.00
     20.8479528             -0.108506975            0.0716287243
      4.80830834            -0.146451658            0.3459121030
      1.34406986             1.128688580            0.7224699570
SP   1   1.00
      0.358151393            1.0000000              1.0000000
D    1   1.00
      3.5000000              1.0000000
D    1   1.00
      0.8750000              1.0000000
F    1   1.00
      1.8500000              1.0000000
****
Al     0
S    6   1.00
  13983.1000000              0.00194267
   2098.7500000              0.0148599
    477.7050000              0.0728494
    134.3600000              0.2468300
     42.8709000              0.4872580
     14.5189000              0.3234960
SP   6   1.00
    239.6680000             -0.00292619             0.00460285
     57.4419000             -0.0374080              0.0331990
     18.2859000             -0.1144870              0.1362820
      6.5991400              0.1156350              0.3304760
      2.4904900              0.6125950              0.4491460
      0.9445400              0.3937990              0.2657040
SP   3   1.00
      1.2779000             -0.2276060             -0.0175130
      0.3975900              0.00144583             0.2445330
      0.1600950              1.0927900              0.8049340
SP   1   1.00
      0.0556577              1.0000000              1.0000000
D    1   1.00
      0.6500000              1.0000000
D    1   1.00
      0.1625000              1.0000000
F    1   1.00
      0.2500000              1.0000000
****
Si     0
S    6   1.00
  16115.9000000              0.00195948
   2425.5800000              0.01492880
    553.8670000              0.07284780
    156.3400000              0.24613000
     50.0683000              0.48591400
     17.0178000              0.32500200
SP   6   1.00
    292.7180000             -0.00278094             0.00443826
     69.8731000             -0.03571460             0.03266790
     22.3363000             -0.11498500             0.13472100
      8.1503900              0.09356340             0.32867800
      3.1345800              0.60301700             0.44964000
      1.2254300              0.41895900             0.26137200
SP   3   1.00
      1.7273800             -0.24463000            -0.01779510
      0.5729220              0.00431572             0.25353900
      0.2221920              1.09818000             0.80066900
SP   1   1.00
      0.0778369              1.00000000             1.00000000
D    1   1.00
      0.9000000              1.0000000
D    1   1.00
      0.2250000              1.0000000
F    1   1.00
      0.3200000              1.0000000
****
P     0
S    6   1.00
  19413.3000000              0.0018516
   2909.4200000              0.0142062
    661.3640000              0.0699995
    185.7590000              0.2400790
     59.1943000              0.4847620
     20.0310000              0.3352000
SP   6   1.00
    339.4780000             -0.00278217             0.00456462
     81.0101000             -0.0360499              0.03369360
     25.8780000             -0.1166310              0.13975500
      9.4522100              0.0968328              0.33936200
      3.6656600              0.6144180              0.45092100
      1.4674600              0.4037980              0.23858600
SP   3   1.00
      2.1562300             -0.2529230             -0.01776530
      0.7489970              0.0328517              0.27405800
      0.2831450              1.0812500              0.78542100
SP   1   1.00
      0.0998317              1.0000000              1.00000000
D    1   1.00
      1.1000000              1.0000000
D    1   1.00
      0.2750000              1.0000000
F    1   1.00
      0.4500000              1.0000000
****
S     0
S    6   1.00
  21917.1000000              0.0018690
   3301.4900000              0.0142300
    754.1460000              0.0696960
    212.7110000              0.2384870
     67.9896000              0.4833070
     23.0515000              0.3380740
SP   6   1.00
    423.7350000             -0.0023767              0.0040610
    100.7100000             -0.0316930              0.0306810
     32.1599000             -0.1133170              0.1304520
     11.8079000              0.0560900              0.3272050
      4.6311000              0.5922550              0.4528510
      1.8702500              0.4550060              0.2560420
SP   3   1.00
      2.6158400             -0.2503740             -0.0145110
      0.9221670              0.0669570              0.3102630
      0.3412870              1.0545100              0.7544830
SP   1   1.00
      0.1171670              1.0000000              1.0000000
D    1   1.00
      1.3000000              1.0000000
D    1   1.00
      0.3250000              1.0000000
F    1   1.00
      0.5500000              1.0000000
****
Cl     0
S    6   1.00
  25180.1000000              0.0018330
   3780.3500000              0.0140340
    860.4740000              0.0690970
    242.1450000              0.2374520
     77.3349000              0.4830340
     26.2470000              0.3398560
SP   6   1.00
    491.7650000             -0.0022974              0.0039894
    116.9840000             -0.0307140              0.0303180
     37.4153000             -0.1125280              0.1298800
     13.7834000              0.0450160              0.3279510
      5.4521500              0.5893530              0.4535270
      2.2258800              0.4652060              0.2521540
SP   3   1.00
      3.1864900             -0.2518300             -0.0142990
      1.1442700              0.0615890              0.3235720
      0.4203770              1.0601800              0.7435070
SP   1   1.00
      0.1426570              1.0000000              1.0000000
D    1   1.00
      1.5000000              1.0000000
D    1   1.00
      0.3750000              1.0000000
F    1   1.00
      0.7000000              1.0000000
****
}

set {
reference uhf
freeze_core true
e_convergence 10
d_convergence 10
dft_spherical_points 1202
dft_radial_points 99
}

e = energy('b3lyp')

print_out('Grab this energy {0}'.format(e))
--------------------------------------------------------------------------

    Molecular point group: c1

    Geometry (in Bohr), charge = 0, multiplicity = 2:

       Center              X                  Y                   Z               Mass
    ------------   -----------------  -----------------  -----------------  -----------------
         C           -0.323340146999    -0.000208056532    -0.000000050802    12.000000000000
         C            0.060583896501    -1.399920225132    -2.426981629102    12.000000000000
         C            0.062132551801     2.801675778168     0.000966172398    12.000000000000
         C            0.060584984201    -1.401593856332     2.426015321698    12.000000000000
         H            2.085310761401    -1.638892691832    -2.846906816102     1.007825032230
         H           -0.764696456599    -0.391276793732    -4.026441150202     1.007825032230
         H           -0.767917698699    -3.294437074732    -2.348649501602     1.007825032230
         H            2.090033926801     3.294244992568     0.002603328198     1.007825032230
         H           -0.761642464199     3.676461586668     1.674620950098     1.007825032230
         H           -0.766367628399     3.677466912868    -1.678147792202     1.007825032230
         H            2.085313948201    -1.643396754032     2.844304622698     1.007825032230
         H           -0.763194255599    -3.290875546032     2.349528971998     1.007825032230
         H           -0.769423150599    -0.388742633232     4.029089599498     1.007825032230

  Charge       = 0
  Multiplicity = 2
  Basis Set: ANONYMOUSEC5B684A
    Blend: 6-31G_2DFP_
  Basis Set: (ANONYMOUSEC5B684A AUX)
    Blend: DEF2-UNIVERSAL-JKFIT

    Orbital Energies [Eh]
    ---------------------

    Alpha Occupied:

       1A    -10.180342     2A    -10.167047     3A    -10.167027
       4A    -10.166971     5A     -0.797767     6A     -0.686217
       7A     -0.686159     8A     -0.530778     9A     -0.441125
      10A     -0.434759    11A     -0.434585    12A     -0.382823
      13A     -0.382373    14A     -0.363609    15A     -0.338152
      16A     -0.337846    17A     -0.168961

    Alpha Virtual:

      18A      0.076072    19A      0.134095    20A      0.134194
      21A      0.142429    22A      0.142840    23A      0.154879
      24A      0.178641    25A      0.178917    26A      0.203549
      27A      0.214804    28A      0.275965    29A      0.276005
      30A      0.399105    31A      0.399351    32A      0.403344
      33A      0.423994    34A      0.424200    35A      0.456593
      36A      0.495379    37A      0.495400    38A      0.512160
      39A      0.513982    40A      0.578692    41A      0.578931
      42A      0.591357    43A      0.591891    44A      0.602599
      45A      0.624719    46A      0.631803    47A      0.636023
      48A      0.636484    49A      0.663373    50A      0.663454
      51A      0.683749    52A      0.683976    53A      0.734993
      54A      0.825348    55A      0.825464    56A      0.853915
      57A      0.914708    58A      0.915342    59A      0.944084
      60A      0.944639    61A      0.961222    62A      0.961379
      63A      1.003455    64A      1.127714    65A      1.128510
      66A      1.142201    67A      1.163115    68A      1.163435
      69A      1.223323    70A      1.274391    71A      1.274577
      72A      1.279367    73A      1.324276    74A      1.324406
      75A      1.355969    76A      1.366047    77A      1.366072
      78A      1.392465    79A      1.403555    80A      1.404537
      81A      1.416783    82A      1.417437    83A      1.427926
      84A      1.491465    85A      1.499085    86A      1.542810
      87A      1.542852    88A      1.573967    89A      1.574951
      90A      1.669839    91A      1.739295    92A      1.739509
      93A      1.768324    94A      1.830975    95A      1.831839
      96A      1.971693    97A      2.018339    98A      2.018969
      99A      2.019136   100A      2.052189   101A      2.053106
     102A      2.738476   103A      2.738495   104A      2.790925
     105A      2.811431   106A      2.889796   107A      2.890080
     108A      2.894974   109A      2.929184   110A      2.929803
     111A      2.958988   112A      2.964220   113A      2.964558
     114A      3.033989   115A      3.070657   116A      3.071925
     117A      3.084370   118A      3.168560   119A      3.169007
     120A      3.180585   121A      3.285190   122A      3.285423
     123A      3.326301   124A      3.328052   125A      3.375615
     126A      3.489109   127A      3.491221   128A      3.513997
     129A      3.525345   130A      3.568156   131A      3.568482
     132A      3.575283   133A      3.665899   134A      3.666840
     135A      3.679681   136A      3.693462   137A      3.694766
     138A      3.776747   139A      3.776850   140A      3.789170
     141A      3.912106   142A      3.912360   143A      4.034440
     144A      4.111170   145A      4.111433   146A      4.148124
     147A      4.148202   148A      4.173120   149A      4.202330
     150A      4.202734   151A      4.203752   152A      4.211000
     153A      4.315755   154A      4.316159   155A      4.358969
     156A      4.424376   157A      4.424572   158A      4.443421
     159A      4.516174   160A      4.517483   161A      4.578257
     162A      4.578302   163A      4.617581   164A      4.709403
     165A      4.774036   166A      4.775188   167A      4.836909
     168A      4.962879   169A      5.002420   170A      5.003499
     171A      5.228051   172A      5.246190   173A      5.247286
     174A      5.355549   175A      5.355641   176A      5.479378

    Beta Occupied:

       1A    -10.167798     2A    -10.167784     3A    -10.167741
       4A    -10.166520     5A     -0.781092     6A     -0.684015
       7A     -0.683967     8A     -0.511749     9A     -0.431141
      10A     -0.430945    11A     -0.421823    12A     -0.376915
      13A     -0.376451    14A     -0.362594    15A     -0.333263
      16A     -0.332980

    Beta Virtual:

      17A     -0.025743    18A      0.077081    19A      0.134992
      20A      0.135076    21A      0.144322    22A      0.144689
      23A      0.163338    24A      0.182308    25A      0.182592
      26A      0.215027    27A      0.218937    28A      0.282309
      29A      0.282358    30A      0.400278    31A      0.400516
      32A      0.419791    33A      0.426804    34A      0.427012
      35A      0.468500    36A      0.497638    37A      0.497663
      38A      0.513897    39A      0.556325    40A      0.584236
      41A      0.584488    42A      0.597535    43A      0.598076
      44A      0.610016    45A      0.628066    46A      0.632000
      47A      0.639312    48A      0.639757    49A      0.666929
      50A      0.667027    51A      0.686400    52A      0.686594
      53A      0.757516    54A      0.830519    55A      0.830630
      56A      0.855268    57A      0.922706    58A      0.923287
      59A      0.945945    60A      0.953543    61A      0.966543
      62A      0.966670    63A      1.008695    64A      1.131786
      65A      1.132493    66A      1.155573    67A      1.168154
      68A      1.168549    69A      1.232295    70A      1.280002
      71A      1.280163    72A      1.285119    73A      1.329258
      74A      1.329399    75A      1.365370    76A      1.371274
      77A      1.371349    78A      1.393524    79A      1.407014
      80A      1.408008    81A      1.421838    82A      1.422468
      83A      1.428209    84A      1.492526    85A      1.509512
      86A      1.547123    87A      1.547365    88A      1.581746
      89A      1.582907    90A      1.674685    91A      1.745061
      92A      1.745267    93A      1.779104    94A      1.834836
      95A      1.835691    96A      1.972567    97A      2.025391
      98A      2.025517    99A      2.039698   100A      2.058894
     101A      2.059832   102A      2.746800   103A      2.746842
     104A      2.811839   105A      2.816065   106A      2.902459
     107A      2.902820   108A      2.924651   109A      2.931680
     110A      2.932270   111A      2.960056   112A      2.968760
     113A      2.969101   114A      3.041920   115A      3.080524
     116A      3.081880   117A      3.086191   118A      3.184311
     119A      3.184764   120A      3.188258   121A      3.289951
     122A      3.290258   123A      3.330116   124A      3.331847
     125A      3.383433   126A      3.491863   127A      3.493929
     128A      3.512366   129A      3.528385   130A      3.574886
     131A      3.581606   132A      3.581969   133A      3.670669
     134A      3.671570   135A      3.692965   136A      3.725347
     137A      3.726159   138A      3.781299   139A      3.781359
     140A      3.817699   141A      3.921917   142A      3.922182
     143A      4.045328   144A      4.118010   145A      4.118215
     146A      4.155259   147A      4.155501   148A      4.187132
     149A      4.208669   150A      4.209154   151A      4.210805
     152A      4.215543   153A      4.323226   154A      4.323574
     155A      4.362330   156A      4.432580   157A      4.432799
     158A      4.446302   159A      4.523973   160A      4.525265
     161A      4.588842   162A      4.588919   163A      4.624774
     164A      4.719746   165A      4.780961   166A      4.782170
     167A      4.839827   168A      4.967674   169A      5.006475
     170A      5.007522   171A      5.233766   172A      5.247980
     173A      5.249073   174A      5.362032   175A      5.362110
     176A      5.481699

    Final Occupation by Irrep:
              A
    DOCC [    16 ]
    SOCC [     1 ]

  @DF-UKS Final Energy:  -157.81305518918495

   => Energetics <=

    Nuclear Repulsion Energy =            125.3946470849948156
    One-Electron Energy =                -458.7489146182053332
    Two-Electron Energy =                 195.8483590689029086
    DFT Exchange-Correlation Energy =     -20.3071467248773239
    Empirical Dispersion Energy =           0.0000000000000000
    VV10 Nonlocal Energy =                  0.0000000000000000
    Total Energy =                       -157.8130551891849507

  UHF NO Occupations:
  HONO-2 :   15  A 1.9996009
  HONO-1 :   16  A 1.9989805
  HONO-0 :   17  A 1.0000000
  LUNO+0 :   18  A 0.0010195
  LUNO+1 :   19  A 0.0003991
  LUNO+2 :   20  A 0.0001977
  LUNO+3 :   21  A 0.0001974

Computation Completed

Properties will be evaluated at   0.000000,   0.000000,   0.000000 [a0]

Properties computed using the SCF density matrix

  Nuclear Dipole Moment: [e a0]
     X:     0.8272      Y:     0.0003      Z:     0.0000

  Electronic Dipole Moment: [e a0]
     X:    -0.7493      Y:    -0.0010      Z:    -0.0000

  Dipole Moment: [e a0]
     X:     0.0779      Y:    -0.0008      Z:    -0.0000     Total:     0.0779

  Dipole Moment: [D]
     X:     0.1980      Y:    -0.0020      Z:    -0.0000     Total:     0.1980

*** tstop() called on n089 at Fri Nov  5 14:41:32 2021
Module time:
	user time   =     470.82 seconds =       7.85 minutes
	system time =       4.50 seconds =       0.07 minutes
	total time  =        119 seconds =       1.98 minutes
Total time:
	user time   =     470.82 seconds =       7.85 minutes
	system time =       4.50 seconds =       0.07 minutes
	total time  =        119 seconds =       1.98 minutes
Grab this energy -157.81305518918495
    Psi4 stopped on: Friday, 05 November 2021 02:41PM
    Psi4 wall time for execution: 0:01:59.56

*** Psi4 exiting successfully. Buy a developer a beer!
