                               Psi4 1.4a2.dev629

  ==> Input File <==

--------------------------------------------------------------------------
import os
memory 14 GB

molecule {
 C   -0.3233407847   -0.0000020506   -0.0000000179
 C    0.0611395724   -1.3994912449   -2.4271807154
 C    0.0610198765    2.8017591928    0.0016006182
 C    0.0611397766   -1.4022636677    2.4255802681
 H    2.0869367368   -1.6446342149   -2.8471287272
 H   -0.7656016375   -0.3885142644   -4.0253866834
 H   -0.7653712499   -3.2922290740   -2.3487785675
 H    2.0867978335    3.2881008012   -0.0006207181
 H   -0.7658426605    3.6803182103    1.6761989995
 H   -0.7654490313    3.6801874880   -1.6768034157
 H    2.0869367705   -1.6435590739    2.8477493942
 H   -0.7657649642   -3.2917709423    2.3491939663
 H   -0.7652081149   -0.3879254732    4.0255755990
units bohr
0 2
}

basis {

assign 6-31g_2dfp_

[ 6-31g_2dfp_ ]

spherical

!----------------------------------------------------------------------
! Basis Set Exchange
! Version v0.8.13
! https://www.basissetexchange.org
!----------------------------------------------------------------------
!   Basis set: 6-31G(2df,p)
! Description: 6-31G(2df,p)
!        Role: orbital
!     Version: 0  (Data from the original Basis Set Exchange)
!----------------------------------------------------------------------

****
H     0
S    3   1.00
     18.7311370              0.03349460
      2.8253937              0.23472695
      0.6401217              0.81375733
S    1   1.00
      0.1612778              1.00000000
P    1   1.00
      1.5000000              1.0000000
P    1   1.00
      0.3750000              1.0000000
****
B     0
S    6   1.00
   2068.8823000              0.0018663
    310.6495700              0.0142515
     70.6830330              0.0695516
     19.8610800              0.2325729
      6.2993048              0.4670787
      2.1270270              0.3634314
SP   3   1.00
      4.7279710             -0.1303938              0.0745976
      1.1903377             -0.1307889              0.3078467
      0.3594117              1.1309444              0.7434568
SP   1   1.00
      0.1267512              1.0000000              1.0000000
D    1   1.00
      0.8020000              1.0000000
D    1   1.00
      0.2005000              1.0000000
F    1   1.00
      0.5000000              1.0000000
****
C     0
S    6   1.00
   3047.5249000              0.0018347
    457.3695100              0.0140373
    103.9486900              0.0688426
     29.2101550              0.2321844
      9.2866630              0.4679413
      3.1639270              0.3623120
SP   3   1.00
      7.8682724             -0.1193324              0.0689991
      1.8812885             -0.1608542              0.3164240
      0.5442493              1.1434564              0.7443083
SP   1   1.00
      0.1687144              1.0000000              1.0000000
D    1   1.00
      1.2520000              1.0000000
D    1   1.00
      0.3130000              1.0000000
F    1   1.00
      0.8000000              1.0000000
****
N     0
S    6   1.00
   4173.5110000              0.0018348
    627.4579000              0.0139950
    142.9021000              0.0685870
     40.2343300              0.2322410
     12.8202100              0.4690700
      4.3904370              0.3604550
SP   3   1.00
     11.6263580             -0.1149610              0.0675800
      2.7162800             -0.1691180              0.3239070
      0.7722180              1.1458520              0.7408950
SP   1   1.00
      0.2120313              1.0000000              1.0000000
D    1   1.00
      1.8260000              1.0000000
D    1   1.00
      0.4565000              1.0000000
F    1   1.00
      1.0000000              1.0000000
****
O     0
S    6   1.00
   5484.6717000              0.0018311
    825.2349500              0.0139501
    188.0469600              0.0684451
     52.9645000              0.2327143
     16.8975700              0.4701930
      5.7996353              0.3585209
SP   3   1.00
     15.5396160             -0.1107775              0.0708743
      3.5999336             -0.1480263              0.3397528
      1.0137618              1.1307670              0.7271586
SP   1   1.00
      0.2700058              1.0000000              1.0000000
D    1   1.00
      2.5840000              1.0000000
D    1   1.00
      0.6460000              1.0000000
F    1   1.00
      1.4000000              1.0000000
****
F     0
S    6   1.00
   7001.7130900              0.0018196169
   1051.3660900              0.0139160796
    239.2856900              0.0684053245
     67.3974453              0.233185760
     21.5199573              0.471267439
      7.40310130             0.356618546
SP   3   1.00
     20.8479528             -0.108506975            0.0716287243
      4.80830834            -0.146451658            0.3459121030
      1.34406986             1.128688580            0.7224699570
SP   1   1.00
      0.358151393            1.0000000              1.0000000
D    1   1.00
      3.5000000              1.0000000
D    1   1.00
      0.8750000              1.0000000
F    1   1.00
      1.8500000              1.0000000
****
Al     0
S    6   1.00
  13983.1000000              0.00194267
   2098.7500000              0.0148599
    477.7050000              0.0728494
    134.3600000              0.2468300
     42.8709000              0.4872580
     14.5189000              0.3234960
SP   6   1.00
    239.6680000             -0.00292619             0.00460285
     57.4419000             -0.0374080              0.0331990
     18.2859000             -0.1144870              0.1362820
      6.5991400              0.1156350              0.3304760
      2.4904900              0.6125950              0.4491460
      0.9445400              0.3937990              0.2657040
SP   3   1.00
      1.2779000             -0.2276060             -0.0175130
      0.3975900              0.00144583             0.2445330
      0.1600950              1.0927900              0.8049340
SP   1   1.00
      0.0556577              1.0000000              1.0000000
D    1   1.00
      0.6500000              1.0000000
D    1   1.00
      0.1625000              1.0000000
F    1   1.00
      0.2500000              1.0000000
****
Si     0
S    6   1.00
  16115.9000000              0.00195948
   2425.5800000              0.01492880
    553.8670000              0.07284780
    156.3400000              0.24613000
     50.0683000              0.48591400
     17.0178000              0.32500200
SP   6   1.00
    292.7180000             -0.00278094             0.00443826
     69.8731000             -0.03571460             0.03266790
     22.3363000             -0.11498500             0.13472100
      8.1503900              0.09356340             0.32867800
      3.1345800              0.60301700             0.44964000
      1.2254300              0.41895900             0.26137200
SP   3   1.00
      1.7273800             -0.24463000            -0.01779510
      0.5729220              0.00431572             0.25353900
      0.2221920              1.09818000             0.80066900
SP   1   1.00
      0.0778369              1.00000000             1.00000000
D    1   1.00
      0.9000000              1.0000000
D    1   1.00
      0.2250000              1.0000000
F    1   1.00
      0.3200000              1.0000000
****
P     0
S    6   1.00
  19413.3000000              0.0018516
   2909.4200000              0.0142062
    661.3640000              0.0699995
    185.7590000              0.2400790
     59.1943000              0.4847620
     20.0310000              0.3352000
SP   6   1.00
    339.4780000             -0.00278217             0.00456462
     81.0101000             -0.0360499              0.03369360
     25.8780000             -0.1166310              0.13975500
      9.4522100              0.0968328              0.33936200
      3.6656600              0.6144180              0.45092100
      1.4674600              0.4037980              0.23858600
SP   3   1.00
      2.1562300             -0.2529230             -0.01776530
      0.7489970              0.0328517              0.27405800
      0.2831450              1.0812500              0.78542100
SP   1   1.00
      0.0998317              1.0000000              1.00000000
D    1   1.00
      1.1000000              1.0000000
D    1   1.00
      0.2750000              1.0000000
F    1   1.00
      0.4500000              1.0000000
****
S     0
S    6   1.00
  21917.1000000              0.0018690
   3301.4900000              0.0142300
    754.1460000              0.0696960
    212.7110000              0.2384870
     67.9896000              0.4833070
     23.0515000              0.3380740
SP   6   1.00
    423.7350000             -0.0023767              0.0040610
    100.7100000             -0.0316930              0.0306810
     32.1599000             -0.1133170              0.1304520
     11.8079000              0.0560900              0.3272050
      4.6311000              0.5922550              0.4528510
      1.8702500              0.4550060              0.2560420
SP   3   1.00
      2.6158400             -0.2503740             -0.0145110
      0.9221670              0.0669570              0.3102630
      0.3412870              1.0545100              0.7544830
SP   1   1.00
      0.1171670              1.0000000              1.0000000
D    1   1.00
      1.3000000              1.0000000
D    1   1.00
      0.3250000              1.0000000
F    1   1.00
      0.5500000              1.0000000
****
Cl     0
S    6   1.00
  25180.1000000              0.0018330
   3780.3500000              0.0140340
    860.4740000              0.0690970
    242.1450000              0.2374520
     77.3349000              0.4830340
     26.2470000              0.3398560
SP   6   1.00
    491.7650000             -0.0022974              0.0039894
    116.9840000             -0.0307140              0.0303180
     37.4153000             -0.1125280              0.1298800
     13.7834000              0.0450160              0.3279510
      5.4521500              0.5893530              0.4535270
      2.2258800              0.4652060              0.2521540
SP   3   1.00
      3.1864900             -0.2518300             -0.0142990
      1.1442700              0.0615890              0.3235720
      0.4203770              1.0601800              0.7435070
SP   1   1.00
      0.1426570              1.0000000              1.0000000
D    1   1.00
      1.5000000              1.0000000
D    1   1.00
      0.3750000              1.0000000
F    1   1.00
      0.7000000              1.0000000
****
}

set {
reference uhf
freeze_core true
e_convergence 10
d_convergence 10
dft_spherical_points 1202
dft_radial_points 99
}

e = energy('b3lyp')

print_out('Grab this energy {0}'.format(e))
--------------------------------------------------------------------------

    Molecular point group: c1

    Geometry (in Bohr), charge = 0, multiplicity = 2:

       Center              X                  Y                   Z               Mass
    ------------   -----------------  -----------------  -----------------  -----------------
         C           -0.323340481468    -0.000002050675    -0.000000047371    12.000000000000
         C            0.061139875632    -1.399491244975    -2.427180744871    12.000000000000
         C            0.061020179732     2.801759192725     0.001600588729    12.000000000000
         C            0.061140079832    -1.402263667775     2.425580238629    12.000000000000
         H            2.086937040032    -1.644634214975    -2.847128756671     1.007825032230
         H           -0.765601334268    -0.388514264475    -4.025386712871     1.007825032230
         H           -0.765370946668    -3.292229074075    -2.348778596971     1.007825032230
         H            2.086798136732     3.288100801125    -0.000620747571     1.007825032230
         H           -0.765842357268     3.680318210225     1.676198970029     1.007825032230
         H           -0.765448728068     3.680187487925    -1.676803445171     1.007825032230
         H            2.086937073732    -1.643559073975     2.847749364729     1.007825032230
         H           -0.765764660968    -3.291770942375     2.349193936829     1.007825032230
         H           -0.765207811668    -0.387925473275     4.025575569529     1.007825032230

  Charge       = 0
  Multiplicity = 2
  Basis Set: ANONYMOUS73503F7D
    Blend: 6-31G_2DFP_
  Basis Set: (ANONYMOUS73503F7D AUX)
    Blend: DEF2-UNIVERSAL-JKFIT

    Orbital Energies [Eh]
    ---------------------

    Alpha Occupied:

       1A    -10.180342     2A    -10.167030     3A    -10.167030
       4A    -10.166984     5A     -0.797765     6A     -0.686187
       7A     -0.686186     8A     -0.530776     9A     -0.441124
      10A     -0.434672    11A     -0.434671    12A     -0.382600
      13A     -0.382598    14A     -0.363611    15A     -0.337999
      16A     -0.337999    17A     -0.168961

    Alpha Virtual:

      18A      0.076072    19A      0.134155    20A      0.134156
      21A      0.142628    22A      0.142629    23A      0.154878
      24A      0.178779    25A      0.178779    26A      0.203545
      27A      0.214804    28A      0.275984    29A      0.275986
      30A      0.399227    31A      0.399231    32A      0.403343
      33A      0.424097    34A      0.424097    35A      0.456592
      36A      0.495389    37A      0.495390    38A      0.512153
      39A      0.513986    40A      0.578814    41A      0.578822
      42A      0.591633    43A      0.591634    44A      0.602570
      45A      0.624751    46A      0.631789    47A      0.636243
      48A      0.636247    49A      0.663411    50A      0.663411
      51A      0.683853    52A      0.683854    53A      0.734994
      54A      0.825406    55A      0.825409    56A      0.853916
      57A      0.915023    58A      0.915029    59A      0.944125
      60A      0.944616    61A      0.961284    62A      0.961300
      63A      1.003454    64A      1.128104    65A      1.128117
      66A      1.142218    67A      1.163263    68A      1.163275
      69A      1.223322    70A      1.274488    71A      1.274492
      72A      1.279351    73A      1.324355    74A      1.324357
      75A      1.355984    76A      1.366057    77A      1.366061
      78A      1.392466    79A      1.404055    80A      1.404057
      81A      1.417098    82A      1.417105    83A      1.427903
      84A      1.491454    85A      1.499124    86A      1.542825
      87A      1.542827    88A      1.574450    89A      1.574452
      90A      1.669823    91A      1.739415    92A      1.739426
      93A      1.768322    94A      1.831393    95A      1.831393
      96A      1.971728    97A      2.018299    98A      2.019045
      99A      2.019049   100A      2.052635   101A      2.052636
     102A      2.738485   103A      2.738486   104A      2.790916
     105A      2.811434   106A      2.889949   107A      2.889955
     108A      2.894939   109A      2.929492   110A      2.929500
     111A      2.958996   112A      2.964370   113A      2.964384
     114A      3.034009   115A      3.071278   116A      3.071292
     117A      3.084347   118A      3.168781   119A      3.168788
     120A      3.180584   121A      3.285313   122A      3.285313
     123A      3.327160   124A      3.327166   125A      3.375618
     126A      3.490154   127A      3.490174   128A      3.513985
     129A      3.525355   130A      3.568379   131A      3.568400
     132A      3.575147   133A      3.666380   134A      3.666388
     135A      3.679652   136A      3.694118   137A      3.694134
     138A      3.776795   139A      3.776821   140A      3.789115
     141A      3.912218   142A      3.912224   143A      4.034457
     144A      4.111374   145A      4.111378   146A      4.148124
     147A      4.148132   148A      4.173241   149A      4.202644
     150A      4.203069   151A      4.203072   152A      4.210849
     153A      4.315945   154A      4.315964   155A      4.358973
     156A      4.424453   157A      4.424455   158A      4.443421
     159A      4.516842   160A      4.516843   161A      4.578268
     162A      4.578281   163A      4.617530   164A      4.709454
     165A      4.774586   166A      4.774594   167A      4.836903
     168A      4.962864   169A      5.002939   170A      5.002951
     171A      5.228041   172A      5.246813   173A      5.246813
     174A      5.355496   175A      5.355509   176A      5.479351

    Beta Occupied:

       1A    -10.167783     2A    -10.167783     3A    -10.167758
       4A    -10.166519     5A     -0.781091     6A     -0.683989
       7A     -0.683989     8A     -0.511747     9A     -0.431042
      10A     -0.431042    11A     -0.421822    12A     -0.376684
      13A     -0.376683    14A     -0.362595    15A     -0.333122
      16A     -0.333122

    Beta Virtual:

      17A     -0.025742    18A      0.077081    19A      0.135045
      20A      0.135046    21A      0.144499    22A      0.144499
      23A      0.163338    24A      0.182450    25A      0.182450
      26A      0.215027    27A      0.218934    28A      0.282332
      29A      0.282334    30A      0.400396    31A      0.400400
      32A      0.419791    33A      0.426908    34A      0.426908
      35A      0.468500    36A      0.497650    37A      0.497651
      38A      0.513895    39A      0.556325    40A      0.584364
      41A      0.584372    42A      0.597813    43A      0.597813
      44A      0.609994    45A      0.628120    46A      0.631950
      47A      0.639529    48A      0.639534    49A      0.666975
      50A      0.666975    51A      0.686488    52A      0.686489
      53A      0.757518    54A      0.830574    55A      0.830577
      56A      0.855269    57A      0.922994    58A      0.923001
      59A      0.945963    60A      0.953543    61A      0.966590
      62A      0.966606    63A      1.008694    64A      1.132132
      65A      1.132144    66A      1.155599    67A      1.168335
      68A      1.168348    69A      1.232295    70A      1.280085
      71A      1.280089    72A      1.285105    73A      1.329345
      74A      1.329346    75A      1.365398    76A      1.371299
      77A      1.371304    78A      1.393526    79A      1.407520
      80A      1.407523    81A      1.422149    82A      1.422155
      83A      1.428171    84A      1.492522    85A      1.509548
      86A      1.547233    87A      1.547233    88A      1.582323
      89A      1.582323    90A      1.674669    91A      1.745176
      92A      1.745187    93A      1.779103    94A      1.835248
      95A      1.835249    96A      1.972587    97A      2.025448
      98A      2.025452    99A      2.039674   100A      2.059349
     101A      2.059350   102A      2.746821   103A      2.746822
     104A      2.811804   105A      2.816093   106A      2.902637
     107A      2.902642   108A      2.924650   109A      2.931972
     110A      2.931981   111A      2.960059   112A      2.968914
     113A      2.968928   114A      3.041943   115A      3.081190
     116A      3.081202   117A      3.086163   118A      3.184537
     119A      3.184541   120A      3.188257   121A      3.290111
     122A      3.290111   123A      3.330965   124A      3.330970
     125A      3.383437   126A      3.492884   127A      3.492904
     128A      3.512357   129A      3.528391   130A      3.575008
     131A      3.581718   132A      3.581740   133A      3.671124
     134A      3.671135   135A      3.692946   136A      3.725753
     137A      3.725769   138A      3.781320   139A      3.781346
     140A      3.817662   141A      3.922034   142A      3.922041
     143A      4.045344   144A      4.118190   145A      4.118192
     146A      4.155331   147A      4.155340   148A      4.187304
     149A      4.209008   150A      4.209011   151A      4.210609
     152A      4.215322   153A      4.323385   154A      4.323405
     155A      4.362335   156A      4.432670   157A      4.432673
     158A      4.446301   159A      4.524632   160A      4.524633
     161A      4.588871   162A      4.588883   163A      4.624722
     164A      4.719799   165A      4.781540   166A      4.781547
     167A      4.839820   168A      4.967659   169A      5.006977
     170A      5.006990   171A      5.233757   172A      5.248597
     173A      5.248598   174A      5.361976   175A      5.361989
     176A      5.481673

    Final Occupation by Irrep:
              A
    DOCC [    16 ]
    SOCC [     1 ]

  @DF-UKS Final Energy:  -157.81307183645586

   => Energetics <=

    Nuclear Repulsion Energy =            125.3945853194736060
    One-Electron Energy =                -458.7488431498654791
    Two-Electron Energy =                 195.8483277571863255
    DFT Exchange-Correlation Energy =     -20.3071417632503142
    Empirical Dispersion Energy =           0.0000000000000000
    VV10 Nonlocal Energy =                  0.0000000000000000
    Total Energy =                       -157.8130718364558618

  UHF NO Occupations:
  HONO-2 :   15  A 1.9996009
  HONO-1 :   16  A 1.9989805
  HONO-0 :   17  A 1.0000000
  LUNO+0 :   18  A 0.0010195
  LUNO+1 :   19  A 0.0003991
  LUNO+2 :   20  A 0.0001975
  LUNO+3 :   21  A 0.0001975

Computation Completed

Properties will be evaluated at   0.000000,   0.000000,   0.000000 [a0]

Properties computed using the SCF density matrix

  Nuclear Dipole Moment: [e a0]
     X:     0.8272      Y:    -0.0000      Z:    -0.0000

  Electronic Dipole Moment: [e a0]
     X:    -0.7493      Y:     0.0000      Z:     0.0000

  Dipole Moment: [e a0]
     X:     0.0779      Y:     0.0000      Z:    -0.0000     Total:     0.0779

  Dipole Moment: [D]
     X:     0.1980      Y:     0.0000      Z:    -0.0000     Total:     0.1980

*** tstop() called on n021 at Fri Nov  5 12:41:37 2021
Module time:
	user time   =     601.35 seconds =      10.02 minutes
	system time =      11.62 seconds =       0.19 minutes
	total time  =        154 seconds =       2.57 minutes
Total time:
	user time   =     601.35 seconds =      10.02 minutes
	system time =      11.62 seconds =       0.19 minutes
	total time  =        154 seconds =       2.57 minutes
Grab this energy -157.81307183645586
    Psi4 stopped on: Friday, 05 November 2021 12:41PM
    Psi4 wall time for execution: 0:02:34.17

*** Psi4 exiting successfully. Buy a developer a beer!
