                               Psi4 1.4a2.dev629

  ==> Input File <==

--------------------------------------------------------------------------
import os
memory 14 GB

molecule {
 C   -0.3233372148    0.0007718032    0.0000000000
 C    0.0602115029   -1.4022483305   -2.4258882795
 C    0.0628824558    2.8012403125   -0.0000000000
 C    0.0602115029   -1.4022483305    2.4258882795
 H    2.0853514724   -1.6406355394   -2.8458688902
 H   -0.7668257509   -0.3897382683   -4.0278096099
 H   -0.7655742288   -3.2925475387   -2.3492214649
 H    2.0899526435    3.2942997030   -0.0000000000
 H   -0.7642158762    3.6770016107    1.6762910147
 H   -0.7642158762    3.6770016107   -1.6762910147
 H    2.0853514724   -1.6406355394    2.8458688902
 H   -0.7655742288   -3.2925475387    2.3492214649
 H   -0.7668257509   -0.3897382683    4.0278096099
units bohr
0 2
}

basis {

assign 6-31g_2dfp_

[ 6-31g_2dfp_ ]

spherical

!----------------------------------------------------------------------
! Basis Set Exchange
! Version v0.8.13
! https://www.basissetexchange.org
!----------------------------------------------------------------------
!   Basis set: 6-31G(2df,p)
! Description: 6-31G(2df,p)
!        Role: orbital
!     Version: 0  (Data from the original Basis Set Exchange)
!----------------------------------------------------------------------

****
H     0
S    3   1.00
     18.7311370              0.03349460
      2.8253937              0.23472695
      0.6401217              0.81375733
S    1   1.00
      0.1612778              1.00000000
P    1   1.00
      1.5000000              1.0000000
P    1   1.00
      0.3750000              1.0000000
****
B     0
S    6   1.00
   2068.8823000              0.0018663
    310.6495700              0.0142515
     70.6830330              0.0695516
     19.8610800              0.2325729
      6.2993048              0.4670787
      2.1270270              0.3634314
SP   3   1.00
      4.7279710             -0.1303938              0.0745976
      1.1903377             -0.1307889              0.3078467
      0.3594117              1.1309444              0.7434568
SP   1   1.00
      0.1267512              1.0000000              1.0000000
D    1   1.00
      0.8020000              1.0000000
D    1   1.00
      0.2005000              1.0000000
F    1   1.00
      0.5000000              1.0000000
****
C     0
S    6   1.00
   3047.5249000              0.0018347
    457.3695100              0.0140373
    103.9486900              0.0688426
     29.2101550              0.2321844
      9.2866630              0.4679413
      3.1639270              0.3623120
SP   3   1.00
      7.8682724             -0.1193324              0.0689991
      1.8812885             -0.1608542              0.3164240
      0.5442493              1.1434564              0.7443083
SP   1   1.00
      0.1687144              1.0000000              1.0000000
D    1   1.00
      1.2520000              1.0000000
D    1   1.00
      0.3130000              1.0000000
F    1   1.00
      0.8000000              1.0000000
****
N     0
S    6   1.00
   4173.5110000              0.0018348
    627.4579000              0.0139950
    142.9021000              0.0685870
     40.2343300              0.2322410
     12.8202100              0.4690700
      4.3904370              0.3604550
SP   3   1.00
     11.6263580             -0.1149610              0.0675800
      2.7162800             -0.1691180              0.3239070
      0.7722180              1.1458520              0.7408950
SP   1   1.00
      0.2120313              1.0000000              1.0000000
D    1   1.00
      1.8260000              1.0000000
D    1   1.00
      0.4565000              1.0000000
F    1   1.00
      1.0000000              1.0000000
****
O     0
S    6   1.00
   5484.6717000              0.0018311
    825.2349500              0.0139501
    188.0469600              0.0684451
     52.9645000              0.2327143
     16.8975700              0.4701930
      5.7996353              0.3585209
SP   3   1.00
     15.5396160             -0.1107775              0.0708743
      3.5999336             -0.1480263              0.3397528
      1.0137618              1.1307670              0.7271586
SP   1   1.00
      0.2700058              1.0000000              1.0000000
D    1   1.00
      2.5840000              1.0000000
D    1   1.00
      0.6460000              1.0000000
F    1   1.00
      1.4000000              1.0000000
****
F     0
S    6   1.00
   7001.7130900              0.0018196169
   1051.3660900              0.0139160796
    239.2856900              0.0684053245
     67.3974453              0.233185760
     21.5199573              0.471267439
      7.40310130             0.356618546
SP   3   1.00
     20.8479528             -0.108506975            0.0716287243
      4.80830834            -0.146451658            0.3459121030
      1.34406986             1.128688580            0.7224699570
SP   1   1.00
      0.358151393            1.0000000              1.0000000
D    1   1.00
      3.5000000              1.0000000
D    1   1.00
      0.8750000              1.0000000
F    1   1.00
      1.8500000              1.0000000
****
Al     0
S    6   1.00
  13983.1000000              0.00194267
   2098.7500000              0.0148599
    477.7050000              0.0728494
    134.3600000              0.2468300
     42.8709000              0.4872580
     14.5189000              0.3234960
SP   6   1.00
    239.6680000             -0.00292619             0.00460285
     57.4419000             -0.0374080              0.0331990
     18.2859000             -0.1144870              0.1362820
      6.5991400              0.1156350              0.3304760
      2.4904900              0.6125950              0.4491460
      0.9445400              0.3937990              0.2657040
SP   3   1.00
      1.2779000             -0.2276060             -0.0175130
      0.3975900              0.00144583             0.2445330
      0.1600950              1.0927900              0.8049340
SP   1   1.00
      0.0556577              1.0000000              1.0000000
D    1   1.00
      0.6500000              1.0000000
D    1   1.00
      0.1625000              1.0000000
F    1   1.00
      0.2500000              1.0000000
****
Si     0
S    6   1.00
  16115.9000000              0.00195948
   2425.5800000              0.01492880
    553.8670000              0.07284780
    156.3400000              0.24613000
     50.0683000              0.48591400
     17.0178000              0.32500200
SP   6   1.00
    292.7180000             -0.00278094             0.00443826
     69.8731000             -0.03571460             0.03266790
     22.3363000             -0.11498500             0.13472100
      8.1503900              0.09356340             0.32867800
      3.1345800              0.60301700             0.44964000
      1.2254300              0.41895900             0.26137200
SP   3   1.00
      1.7273800             -0.24463000            -0.01779510
      0.5729220              0.00431572             0.25353900
      0.2221920              1.09818000             0.80066900
SP   1   1.00
      0.0778369              1.00000000             1.00000000
D    1   1.00
      0.9000000              1.0000000
D    1   1.00
      0.2250000              1.0000000
F    1   1.00
      0.3200000              1.0000000
****
P     0
S    6   1.00
  19413.3000000              0.0018516
   2909.4200000              0.0142062
    661.3640000              0.0699995
    185.7590000              0.2400790
     59.1943000              0.4847620
     20.0310000              0.3352000
SP   6   1.00
    339.4780000             -0.00278217             0.00456462
     81.0101000             -0.0360499              0.03369360
     25.8780000             -0.1166310              0.13975500
      9.4522100              0.0968328              0.33936200
      3.6656600              0.6144180              0.45092100
      1.4674600              0.4037980              0.23858600
SP   3   1.00
      2.1562300             -0.2529230             -0.01776530
      0.7489970              0.0328517              0.27405800
      0.2831450              1.0812500              0.78542100
SP   1   1.00
      0.0998317              1.0000000              1.00000000
D    1   1.00
      1.1000000              1.0000000
D    1   1.00
      0.2750000              1.0000000
F    1   1.00
      0.4500000              1.0000000
****
S     0
S    6   1.00
  21917.1000000              0.0018690
   3301.4900000              0.0142300
    754.1460000              0.0696960
    212.7110000              0.2384870
     67.9896000              0.4833070
     23.0515000              0.3380740
SP   6   1.00
    423.7350000             -0.0023767              0.0040610
    100.7100000             -0.0316930              0.0306810
     32.1599000             -0.1133170              0.1304520
     11.8079000              0.0560900              0.3272050
      4.6311000              0.5922550              0.4528510
      1.8702500              0.4550060              0.2560420
SP   3   1.00
      2.6158400             -0.2503740             -0.0145110
      0.9221670              0.0669570              0.3102630
      0.3412870              1.0545100              0.7544830
SP   1   1.00
      0.1171670              1.0000000              1.0000000
D    1   1.00
      1.3000000              1.0000000
D    1   1.00
      0.3250000              1.0000000
F    1   1.00
      0.5500000              1.0000000
****
Cl     0
S    6   1.00
  25180.1000000              0.0018330
   3780.3500000              0.0140340
    860.4740000              0.0690970
    242.1450000              0.2374520
     77.3349000              0.4830340
     26.2470000              0.3398560
SP   6   1.00
    491.7650000             -0.0022974              0.0039894
    116.9840000             -0.0307140              0.0303180
     37.4153000             -0.1125280              0.1298800
     13.7834000              0.0450160              0.3279510
      5.4521500              0.5893530              0.4535270
      2.2258800              0.4652060              0.2521540
SP   3   1.00
      3.1864900             -0.2518300             -0.0142990
      1.1442700              0.0615890              0.3235720
      0.4203770              1.0601800              0.7435070
SP   1   1.00
      0.1426570              1.0000000              1.0000000
D    1   1.00
      1.5000000              1.0000000
D    1   1.00
      0.3750000              1.0000000
F    1   1.00
      0.7000000              1.0000000
****
}

set {
reference uhf
freeze_core true
e_convergence 10
d_convergence 10
dft_spherical_points 1202
dft_radial_points 99
}

e = energy('b3lyp')

print_out('Grab this energy {0}'.format(e))
--------------------------------------------------------------------------

    Molecular point group: cs

    Geometry (in Bohr), charge = 0, multiplicity = 2:

       Center              X                  Y                   Z               Mass
    ------------   -----------------  -----------------  -----------------  -----------------
         C           -0.323338800274     0.001250773883     0.000000000000    12.000000000000
         C            0.060209917426    -1.401769359817    -2.425888279500    12.000000000000
         C            0.062880870326     2.801719283183     0.000000000000    12.000000000000
         C            0.060209917426    -1.401769359817     2.425888279500    12.000000000000
         H            2.085349886926    -1.640156568717    -2.845868890200     1.007825032230
         H           -0.766827336374    -0.389259297617    -4.027809609900     1.007825032230
         H           -0.765575814274    -3.292068568017    -2.349221464900     1.007825032230
         H            2.089951058026     3.294778673683     0.000000000000     1.007825032230
         H           -0.764217461674     3.677480581383     1.676291014700     1.007825032230
         H           -0.764217461674     3.677480581383    -1.676291014700     1.007825032230
         H            2.085349886926    -1.640156568717     2.845868890200     1.007825032230
         H           -0.765575814274    -3.292068568017     2.349221464900     1.007825032230
         H           -0.766827336374    -0.389259297617     4.027809609900     1.007825032230

  Charge       = 0
  Multiplicity = 2
  Basis Set: ANONYMOUS1E2BC231
    Blend: 6-31G_2DFP_
  Basis Set: (ANONYMOUS1E2BC231 AUX)
    Blend: DEF2-UNIVERSAL-JKFIT

    Orbital Energies [Eh]
    ---------------------

    Alpha Occupied:

       1Ap   -10.180342     1App  -10.167032     2Ap   -10.167029
       3Ap   -10.166984     4Ap    -0.797766     5Ap    -0.686237
       2App   -0.686137     6Ap    -0.530776     7Ap    -0.441126
       3App   -0.434767     8Ap    -0.434575     4App   -0.382786
       9Ap    -0.382411     5App   -0.363610    10Ap    -0.338140
       6App   -0.337858    11Ap    -0.168960

    Alpha Virtual:

      12Ap     0.076072    13Ap     0.134144     7App    0.134167
      14Ap     0.142485     8App    0.142770    15Ap     0.154881
      16Ap     0.178588     9App    0.178963    17Ap     0.203550
      10App    0.214802    11App    0.275880    18Ap     0.276092
      12App    0.398997    19Ap     0.399461    20Ap     0.403343
      13App    0.423999    21Ap     0.424196    22Ap     0.456593
      23Ap     0.495364    14App    0.495413    15App    0.512161
      24Ap     0.513982    16App    0.578650    25Ap     0.578971
      26Ap     0.591385    17App    0.591873    27Ap     0.602594
      28Ap     0.624761    18App    0.631770    29Ap     0.636035
      19App    0.636469    20App    0.663283    30Ap     0.663542
      21App    0.683751    31Ap     0.683954    32Ap     0.734993
      33Ap     0.825345    22App    0.825468    23App    0.853916
      34Ap     0.914603    24App    0.915446    25App    0.944108
      35Ap     0.944612    36Ap     0.961288    26App    0.961320
      37Ap     1.003454    27App    1.127729    38Ap     1.128489
      39Ap     1.142219    28App    1.163134    40Ap     1.163400
      41Ap     1.223323    29App    1.274207    42Ap     1.274733
      43Ap     1.279387    44Ap     1.324350    30App    1.324361
      45Ap     1.355976    46Ap     1.365842    31App    1.366284
      32App    1.392445    47Ap     1.403789    33App    1.404307
      48Ap     1.417047    34App    1.417180    35App    1.427914
      36App    1.491502    49Ap     1.499062    37App    1.542641
      50Ap     1.543024    51Ap     1.573644    38App    1.575266
      52Ap     1.669826    53Ap     1.739373    39App    1.739413
      54Ap     1.768385    40App    1.831036    55Ap     1.831756
      41App    1.971732    56Ap     2.018089    57Ap     2.018740
      42App    2.019551    58Ap     2.051583    43App    2.053701
      44App    2.738449    59Ap     2.738526    60Ap     2.790927
      45App    2.811427    46App    2.889126    61Ap     2.890744
      62Ap     2.894985    63Ap     2.929351    47App    2.929638
      48App    2.958968    64Ap     2.964260    49App    2.964524
      65Ap     3.034002    66Ap     3.070783    50App    3.071785
      51App    3.084351    52App    3.168678    67Ap     3.168863
      68Ap     3.180602    53App    3.284981    69Ap     3.285651
      54App    3.326334    70Ap     3.327994    71Ap     3.375620
      72Ap     3.489140    55App    3.491170    56App    3.514008
      73Ap     3.525330    57App    3.568305    74Ap     3.568380
      58App    3.575246    75Ap     3.666148    59App    3.666644
      76Ap     3.679622    77Ap     3.693484    60App    3.694755
      61App    3.776749    78Ap     3.776858    79Ap     3.789151
      62App    3.911747    80Ap     3.912708    81Ap     4.034462
      82Ap     4.111019    63App    4.111722    64App    4.147967
      83Ap     4.148241    84Ap     4.173252    85Ap     4.202486
      65App    4.202694    86Ap     4.203637    66App    4.210842
      67App    4.315373    87Ap     4.316560    68App    4.358968
      88Ap     4.423804    69App    4.425089    70App    4.443437
      89Ap     4.516359    71App    4.517291    72App    4.577980
      90Ap     4.578580    91Ap     4.617575    92Ap     4.709409
      93Ap     4.773873    73App    4.775326    74App    4.836917
      94Ap     4.962864    95Ap     5.002132    75App    5.003771
      96Ap     5.228042    97Ap     5.246524    76App    5.247120
      77App    5.355436    98Ap     5.355569    78App    5.479355

    Beta Occupied:

       1Ap   -10.167784     1App  -10.167782     2Ap   -10.167758
       3Ap   -10.166520     4Ap    -0.781091     5Ap    -0.684042
       2App   -0.683937     6Ap    -0.511747     3App   -0.431156
       7Ap    -0.430931     8Ap    -0.421820     4App   -0.376871
       9Ap    -0.376497     5App   -0.362593    10Ap    -0.333274
       6App   -0.332970

    Beta Virtual:

      11Ap    -0.025743    12Ap     0.077081     7App    0.135037
      13Ap     0.135054    14Ap     0.144360     8App    0.144637
      15Ap     0.163339    16Ap     0.182267     9App    0.182627
      10App    0.215032    17Ap     0.218932    11App    0.282247
      18Ap     0.282421    12App    0.400169    19Ap     0.400626
      20Ap     0.419789    13App    0.426809    21Ap     0.427009
      22Ap     0.468501    23Ap     0.497630    14App    0.497670
      15App    0.513896    24Ap     0.556326    16App    0.584195
      25Ap     0.584529    26Ap     0.597569    17App    0.598047
      27Ap     0.610015    28Ap     0.628137    18App    0.631928
      29Ap     0.639320    19App    0.639754    20App    0.666834
      30Ap     0.667118    21App    0.686404    31Ap     0.686572
      32Ap     0.757516    33Ap     0.830519    22App    0.830631
      23App    0.855269    34Ap     0.922601    24App    0.923391
      25App    0.945946    35Ap     0.953539    36Ap     0.966598
      26App    0.966621    37Ap     1.008695    27App    1.131790
      38Ap     1.132485    39Ap     1.155597    28App    1.168185
      40Ap     1.168495    41Ap     1.232296    29App    1.279791
      42Ap     1.280339    43Ap     1.285145    44Ap     1.329344
      30App    1.329346    45Ap     1.365377    46Ap     1.371092
      31App    1.371535    32App    1.393503    47Ap     1.407260
      33App    1.407768    48Ap     1.422080    34App    1.422239
      35App    1.428189    36App    1.492550    49Ap     1.509502
      37App    1.546940    50Ap     1.547552    51Ap     1.581432
      38App    1.583214    52Ap     1.674673    53Ap     1.745145
      39App    1.745173    54Ap     1.779157    40App    1.834893
      55Ap     1.835609    41App    1.972591    56Ap     2.024976
      42App    2.025918    57Ap     2.039656    58Ap     2.058275
      43App    2.060448    44App    2.746802    59Ap     2.746844
      45App    2.811839    60Ap     2.816062    46App    2.901802
      61Ap     2.903476    62Ap     2.924662    63Ap     2.931877
      47App    2.932074    48App    2.960041    64Ap     2.968815
      49App    2.969046    65Ap     3.041937    66Ap     3.080658
      50App    3.081730    51App    3.086169    52App    3.184451
      67Ap     3.184556    68Ap     3.188318    53App    3.289773
      69Ap     3.290456    54App    3.330160    70Ap     3.331776
      71Ap     3.383439    72Ap     3.491908    55App    3.493862
      56App    3.512374    73Ap     3.528375    57App    3.574947
      74Ap     3.581550    58App    3.581970    75Ap     3.671002
      59App    3.671280    76Ap     3.692923    77Ap     3.725174
      60App    3.726335    61App    3.781242    78Ap     3.781424
      79Ap     3.817685    62App    3.921537    80Ap     3.922551
      81Ap     4.045349    82Ap     4.117865    63App    4.118509
      64App    4.155293    83Ap     4.155334    84Ap     4.187308
      65App    4.208621    85Ap     4.209290    86Ap     4.210750
      66App    4.215314    67App    4.322753    87Ap     4.324062
      68App    4.362330    88Ap     4.432010    69App    4.433302
      70App    4.446329    89Ap     4.524143    71App    4.525087
      72App    4.588588    90Ap     4.589175    91Ap     4.624768
      92Ap     4.719753    93Ap     4.780817    73App    4.782290
      74App    4.839833    94Ap     4.967659    95Ap     5.006186
      75App    5.007796    96Ap     5.233756    97Ap     5.248304
      76App    5.248911    77App    5.361904    98Ap     5.362062
      78App    5.481677

    Final Occupation by Irrep:
             Ap   App
    DOCC [    10,    6 ]
    SOCC [     1,    0 ]

  @DF-UKS Final Energy:  -157.81306707138947

   => Energetics <=

    Nuclear Repulsion Energy =            125.3946103095752136
    One-Electron Energy =                -458.7488771059663577
    Two-Electron Energy =                 195.8483423867008355
    DFT Exchange-Correlation Energy =     -20.3071426616991850
    Empirical Dispersion Energy =           0.0000000000000000
    VV10 Nonlocal Energy =                  0.0000000000000000
    Total Energy =                       -157.8130670713894688

  UHF NO Occupations:
  HONO-2 :    9 Ap 1.9996009
  HONO-1 :   10 Ap 1.9989805
  HONO-0 :   11 Ap 1.0000000
  LUNO+0 :   12 Ap 0.0010195
  LUNO+1 :   13 Ap 0.0003991
  LUNO+2 :    7App 0.0001978
  LUNO+3 :   14 Ap 0.0001973

Computation Completed

Properties will be evaluated at   0.000000,   0.000000,   0.000000 [a0]

Properties computed using the SCF density matrix

  Nuclear Dipole Moment: [e a0]
     X:     0.8272      Y:     0.0034      Z:     0.0000

  Electronic Dipole Moment: [e a0]
     X:    -0.7493      Y:    -0.0041      Z:     0.0000

  Dipole Moment: [e a0]
     X:     0.0779      Y:    -0.0007      Z:     0.0000     Total:     0.0779

  Dipole Moment: [D]
     X:     0.1980      Y:    -0.0018      Z:     0.0000     Total:     0.1980

*** tstop() called on n022 at Fri Nov  5 11:54:00 2021
Module time:
	user time   =     633.15 seconds =      10.55 minutes
	system time =      12.15 seconds =       0.20 minutes
	total time  =        162 seconds =       2.70 minutes
Total time:
	user time   =     633.15 seconds =      10.55 minutes
	system time =      12.15 seconds =       0.20 minutes
	total time  =        162 seconds =       2.70 minutes
Grab this energy -157.81306707138947
    Psi4 stopped on: Friday, 05 November 2021 11:54AM
    Psi4 wall time for execution: 0:02:42.30

*** Psi4 exiting successfully. Buy a developer a beer!
