                               Psi4 1.4a2.dev629

  ==> Input File <==

--------------------------------------------------------------------------
import os
memory 14 GB

molecule {
 C   -0.3233405002   -0.0000015444   -0.0002248430
 C    0.0609947334   -1.3996857444   -2.4247998451
 C    0.0610202438    2.8017601330   -0.0004830451
 C    0.0612848824   -1.4020688123    2.4279618469
 H    2.0868651495   -1.6444743279   -2.8479090739
 H   -0.7653228430   -0.3886679476   -4.0258934222
 H   -0.7654248203   -3.2922068603   -2.3495253793
 H    2.0867989159    3.2881033769    0.0001850405
 H   -0.7655853617    3.6802429032    1.6765930392
 H   -0.7657078399    3.6802663911   -1.6764082367
 H    2.0870061610   -1.6437223275    2.8469764373
 H   -0.7657105087   -3.2917914394    2.3484563234
 H   -0.7654860890   -0.3877781140    4.0250711581
units bohr
0 2
}

basis {

assign 6-31g_2dfp_

[ 6-31g_2dfp_ ]

spherical

!----------------------------------------------------------------------
! Basis Set Exchange
! Version v0.8.13
! https://www.basissetexchange.org
!----------------------------------------------------------------------
!   Basis set: 6-31G(2df,p)
! Description: 6-31G(2df,p)
!        Role: orbital
!     Version: 0  (Data from the original Basis Set Exchange)
!----------------------------------------------------------------------

****
H     0
S    3   1.00
     18.7311370              0.03349460
      2.8253937              0.23472695
      0.6401217              0.81375733
S    1   1.00
      0.1612778              1.00000000
P    1   1.00
      1.5000000              1.0000000
P    1   1.00
      0.3750000              1.0000000
****
B     0
S    6   1.00
   2068.8823000              0.0018663
    310.6495700              0.0142515
     70.6830330              0.0695516
     19.8610800              0.2325729
      6.2993048              0.4670787
      2.1270270              0.3634314
SP   3   1.00
      4.7279710             -0.1303938              0.0745976
      1.1903377             -0.1307889              0.3078467
      0.3594117              1.1309444              0.7434568
SP   1   1.00
      0.1267512              1.0000000              1.0000000
D    1   1.00
      0.8020000              1.0000000
D    1   1.00
      0.2005000              1.0000000
F    1   1.00
      0.5000000              1.0000000
****
C     0
S    6   1.00
   3047.5249000              0.0018347
    457.3695100              0.0140373
    103.9486900              0.0688426
     29.2101550              0.2321844
      9.2866630              0.4679413
      3.1639270              0.3623120
SP   3   1.00
      7.8682724             -0.1193324              0.0689991
      1.8812885             -0.1608542              0.3164240
      0.5442493              1.1434564              0.7443083
SP   1   1.00
      0.1687144              1.0000000              1.0000000
D    1   1.00
      1.2520000              1.0000000
D    1   1.00
      0.3130000              1.0000000
F    1   1.00
      0.8000000              1.0000000
****
N     0
S    6   1.00
   4173.5110000              0.0018348
    627.4579000              0.0139950
    142.9021000              0.0685870
     40.2343300              0.2322410
     12.8202100              0.4690700
      4.3904370              0.3604550
SP   3   1.00
     11.6263580             -0.1149610              0.0675800
      2.7162800             -0.1691180              0.3239070
      0.7722180              1.1458520              0.7408950
SP   1   1.00
      0.2120313              1.0000000              1.0000000
D    1   1.00
      1.8260000              1.0000000
D    1   1.00
      0.4565000              1.0000000
F    1   1.00
      1.0000000              1.0000000
****
O     0
S    6   1.00
   5484.6717000              0.0018311
    825.2349500              0.0139501
    188.0469600              0.0684451
     52.9645000              0.2327143
     16.8975700              0.4701930
      5.7996353              0.3585209
SP   3   1.00
     15.5396160             -0.1107775              0.0708743
      3.5999336             -0.1480263              0.3397528
      1.0137618              1.1307670              0.7271586
SP   1   1.00
      0.2700058              1.0000000              1.0000000
D    1   1.00
      2.5840000              1.0000000
D    1   1.00
      0.6460000              1.0000000
F    1   1.00
      1.4000000              1.0000000
****
F     0
S    6   1.00
   7001.7130900              0.0018196169
   1051.3660900              0.0139160796
    239.2856900              0.0684053245
     67.3974453              0.233185760
     21.5199573              0.471267439
      7.40310130             0.356618546
SP   3   1.00
     20.8479528             -0.108506975            0.0716287243
      4.80830834            -0.146451658            0.3459121030
      1.34406986             1.128688580            0.7224699570
SP   1   1.00
      0.358151393            1.0000000              1.0000000
D    1   1.00
      3.5000000              1.0000000
D    1   1.00
      0.8750000              1.0000000
F    1   1.00
      1.8500000              1.0000000
****
Al     0
S    6   1.00
  13983.1000000              0.00194267
   2098.7500000              0.0148599
    477.7050000              0.0728494
    134.3600000              0.2468300
     42.8709000              0.4872580
     14.5189000              0.3234960
SP   6   1.00
    239.6680000             -0.00292619             0.00460285
     57.4419000             -0.0374080              0.0331990
     18.2859000             -0.1144870              0.1362820
      6.5991400              0.1156350              0.3304760
      2.4904900              0.6125950              0.4491460
      0.9445400              0.3937990              0.2657040
SP   3   1.00
      1.2779000             -0.2276060             -0.0175130
      0.3975900              0.00144583             0.2445330
      0.1600950              1.0927900              0.8049340
SP   1   1.00
      0.0556577              1.0000000              1.0000000
D    1   1.00
      0.6500000              1.0000000
D    1   1.00
      0.1625000              1.0000000
F    1   1.00
      0.2500000              1.0000000
****
Si     0
S    6   1.00
  16115.9000000              0.00195948
   2425.5800000              0.01492880
    553.8670000              0.07284780
    156.3400000              0.24613000
     50.0683000              0.48591400
     17.0178000              0.32500200
SP   6   1.00
    292.7180000             -0.00278094             0.00443826
     69.8731000             -0.03571460             0.03266790
     22.3363000             -0.11498500             0.13472100
      8.1503900              0.09356340             0.32867800
      3.1345800              0.60301700             0.44964000
      1.2254300              0.41895900             0.26137200
SP   3   1.00
      1.7273800             -0.24463000            -0.01779510
      0.5729220              0.00431572             0.25353900
      0.2221920              1.09818000             0.80066900
SP   1   1.00
      0.0778369              1.00000000             1.00000000
D    1   1.00
      0.9000000              1.0000000
D    1   1.00
      0.2250000              1.0000000
F    1   1.00
      0.3200000              1.0000000
****
P     0
S    6   1.00
  19413.3000000              0.0018516
   2909.4200000              0.0142062
    661.3640000              0.0699995
    185.7590000              0.2400790
     59.1943000              0.4847620
     20.0310000              0.3352000
SP   6   1.00
    339.4780000             -0.00278217             0.00456462
     81.0101000             -0.0360499              0.03369360
     25.8780000             -0.1166310              0.13975500
      9.4522100              0.0968328              0.33936200
      3.6656600              0.6144180              0.45092100
      1.4674600              0.4037980              0.23858600
SP   3   1.00
      2.1562300             -0.2529230             -0.01776530
      0.7489970              0.0328517              0.27405800
      0.2831450              1.0812500              0.78542100
SP   1   1.00
      0.0998317              1.0000000              1.00000000
D    1   1.00
      1.1000000              1.0000000
D    1   1.00
      0.2750000              1.0000000
F    1   1.00
      0.4500000              1.0000000
****
S     0
S    6   1.00
  21917.1000000              0.0018690
   3301.4900000              0.0142300
    754.1460000              0.0696960
    212.7110000              0.2384870
     67.9896000              0.4833070
     23.0515000              0.3380740
SP   6   1.00
    423.7350000             -0.0023767              0.0040610
    100.7100000             -0.0316930              0.0306810
     32.1599000             -0.1133170              0.1304520
     11.8079000              0.0560900              0.3272050
      4.6311000              0.5922550              0.4528510
      1.8702500              0.4550060              0.2560420
SP   3   1.00
      2.6158400             -0.2503740             -0.0145110
      0.9221670              0.0669570              0.3102630
      0.3412870              1.0545100              0.7544830
SP   1   1.00
      0.1171670              1.0000000              1.0000000
D    1   1.00
      1.3000000              1.0000000
D    1   1.00
      0.3250000              1.0000000
F    1   1.00
      0.5500000              1.0000000
****
Cl     0
S    6   1.00
  25180.1000000              0.0018330
   3780.3500000              0.0140340
    860.4740000              0.0690970
    242.1450000              0.2374520
     77.3349000              0.4830340
     26.2470000              0.3398560
SP   6   1.00
    491.7650000             -0.0022974              0.0039894
    116.9840000             -0.0307140              0.0303180
     37.4153000             -0.1125280              0.1298800
     13.7834000              0.0450160              0.3279510
      5.4521500              0.5893530              0.4535270
      2.2258800              0.4652060              0.2521540
SP   3   1.00
      3.1864900             -0.2518300             -0.0142990
      1.1442700              0.0615890              0.3235720
      0.4203770              1.0601800              0.7435070
SP   1   1.00
      0.1426570              1.0000000              1.0000000
D    1   1.00
      1.5000000              1.0000000
D    1   1.00
      0.3750000              1.0000000
F    1   1.00
      0.7000000              1.0000000
****
}

set {
reference uhf
freeze_core true
e_convergence 10
d_convergence 10
dft_spherical_points 1202
dft_radial_points 99
}

e = energy('b3lyp')

print_out('Grab this energy {0}'.format(e))
--------------------------------------------------------------------------

    Molecular point group: c1

    Geometry (in Bohr), charge = 0, multiplicity = 2:

       Center              X                  Y                   Z               Mass
    ------------   -----------------  -----------------  -----------------  -----------------
         C           -0.323340373895    -0.000001891611    -0.000697522976    12.000000000000
         C            0.060994859705    -1.399686091611    -2.425272525076    12.000000000000
         C            0.061020370105     2.801759785789    -0.000955725076    12.000000000000
         C            0.061285008705    -1.402069159511     2.427489166924    12.000000000000
         H            2.086865275805    -1.644474675111    -2.848381753876     1.007825032230
         H           -0.765322716695    -0.388668294811    -4.026366102176     1.007825032230
         H           -0.765424693995    -3.292207207511    -2.349998059276     1.007825032230
         H            2.086799042205     3.288103029689    -0.000287639476     1.007825032230
         H           -0.765585235395     3.680242555989     1.676120359224     1.007825032230
         H           -0.765707713595     3.680266043889    -1.676880916676     1.007825032230
         H            2.087006287305    -1.643722674711     2.846503757324     1.007825032230
         H           -0.765710382395    -3.291791786611     2.347983643424     1.007825032230
         H           -0.765485962695    -0.387778461211     4.024598478124     1.007825032230

  Charge       = 0
  Multiplicity = 2
  Basis Set: ANONYMOUS657934DC
    Blend: 6-31G_2DFP_
  Basis Set: (ANONYMOUS657934DC AUX)
    Blend: DEF2-UNIVERSAL-JKFIT

    Orbital Energies [Eh]
    ---------------------

    Alpha Occupied:

       1A    -10.180342     2A    -10.167058     3A    -10.167019
       4A    -10.166968     5A     -0.797766     6A     -0.686210
       7A     -0.686163     8A     -0.530776     9A     -0.441123
      10A     -0.434753    11A     -0.434589    12A     -0.382689
      13A     -0.382509    14A     -0.363612    15A     -0.338207
      16A     -0.337791    17A     -0.168961

    Alpha Virtual:

      18A      0.076073    19A      0.134138    20A      0.134173
      21A      0.142565    22A      0.142693    23A      0.154879
      24A      0.178696    25A      0.178860    26A      0.203545
      27A      0.214802    28A      0.275761    29A      0.276211
      30A      0.399218    31A      0.399238    32A      0.403346
      33A      0.424053    34A      0.424141    35A      0.456593
      36A      0.495367    37A      0.495411    38A      0.512160
      39A      0.513980    40A      0.578778    41A      0.578853
      42A      0.591574    43A      0.591696    44A      0.602573
      45A      0.624762    46A      0.631773    47A      0.636083
      48A      0.636413    49A      0.663350    50A      0.663473
      51A      0.683831    52A      0.683872    53A      0.734994
      54A      0.825353    55A      0.825463    56A      0.853916
      57A      0.915011    58A      0.915042    59A      0.944126
      60A      0.944614    61A      0.961258    62A      0.961326
      63A      1.003452    64A      1.128033    65A      1.128183
      66A      1.142226    67A      1.162982    68A      1.163556
      69A      1.223324    70A      1.274182    71A      1.274786
      72A      1.279371    73A      1.324293    74A      1.324423
      75A      1.355992    76A      1.365906    77A      1.366210
      78A      1.392451    79A      1.403872    80A      1.404225
      81A      1.416952    82A      1.417259    83A      1.427921
      84A      1.491491    85A      1.499078    86A      1.542756
      87A      1.542898    88A      1.574251    89A      1.574638
      90A      1.669820    91A      1.739285    92A      1.739558
      93A      1.768313    94A      1.830892    95A      1.831903
      96A      1.971728    97A      2.018207    98A      2.018577
      99A      2.019603   100A      2.051960   101A      2.053322
     102A      2.738364   103A      2.738606   104A      2.790923
     105A      2.811426   106A      2.889875   107A      2.890029
     108A      2.894947   109A      2.929433   110A      2.929556
     111A      2.958993   112A      2.964295   113A      2.964454
     114A      3.034008   115A      3.071148   116A      3.071419
     117A      3.084351   118A      3.168582   119A      3.168961
     120A      3.180604   121A      3.285304   122A      3.285325
     123A      3.326972   124A      3.327346   125A      3.375615
     126A      3.489827   127A      3.490487   128A      3.514016
     129A      3.525331   130A      3.568310   131A      3.568477
     132A      3.575141   133A      3.665694   134A      3.667059
     135A      3.679665   136A      3.694006   137A      3.694247
     138A      3.776618   139A      3.776982   140A      3.789119
     141A      3.911475   142A      3.912974   143A      4.034454
     144A      4.111216   145A      4.111531   146A      4.147825
     147A      4.148421   148A      4.173246   149A      4.202330
     150A      4.202900   151A      4.203572   152A      4.210859
     153A      4.315228   154A      4.316673   155A      4.358979
     156A      4.423480   157A      4.425344   158A      4.443527
     159A      4.516184   160A      4.517494   161A      4.578247
     162A      4.578294   163A      4.617536   164A      4.709450
     165A      4.774256   166A      4.774888   167A      4.836917
     168A      4.962829   169A      5.002259   170A      5.003683
     171A      5.228039   172A      5.246610   173A      5.247008
     174A      5.355437   175A      5.355567   176A      5.479347

    Beta Occupied:

       1A    -10.167816     2A    -10.167776     3A    -10.167732
       4A    -10.166519     5A     -0.781091     6A     -0.684018
       7A     -0.683960     8A     -0.511747     9A     -0.431125
      10A     -0.430958    11A     -0.421821    12A     -0.376794
      13A     -0.376574    14A     -0.362596    15A     -0.333331
      16A     -0.332913

    Beta Virtual:

      17A     -0.025743    18A      0.077082    19A      0.135042
      20A      0.135048    21A      0.144452    22A      0.144547
      23A      0.163339    24A      0.182380    25A      0.182520
      26A      0.215032    27A      0.218928    28A      0.282118
      29A      0.282550    30A      0.400390    31A      0.400405
      32A      0.419791    33A      0.426863    34A      0.426953
      35A      0.468501    36A      0.497622    37A      0.497679
      38A      0.513895    39A      0.556325    40A      0.584323
      41A      0.584408    42A      0.597754    43A      0.597875
      44A      0.609997    45A      0.628136    46A      0.631930
      47A      0.639373    48A      0.639694    49A      0.666908
      50A      0.667042    51A      0.686478    52A      0.686495
      53A      0.757517    54A      0.830517    55A      0.830636
      56A      0.855269    57A      0.922980    58A      0.923015
      59A      0.945963    60A      0.953542    61A      0.966568
      62A      0.966628    63A      1.008692    64A      1.132068
      65A      1.132209    66A      1.155599    67A      1.168038
      68A      1.168648    69A      1.232297    70A      1.279776
      71A      1.280386    72A      1.285125    73A      1.329297
      74A      1.329399    75A      1.365409    76A      1.371176
      77A      1.371425    78A      1.393509    79A      1.407389
      80A      1.407639    81A      1.422017    82A      1.422288
      83A      1.428196    84A      1.492539    85A      1.509522
      86A      1.547156    87A      1.547313    88A      1.582118
      89A      1.582516    90A      1.674667    91A      1.745042
      92A      1.745323    93A      1.779095    94A      1.834757
      95A      1.835748    96A      1.972587    97A      2.024906
      98A      2.025994    99A      2.039661   100A      2.058677
     101A      2.060040   102A      2.746722   103A      2.746920
     104A      2.811838   105A      2.816058   106A      2.902588
     107A      2.902698   108A      2.924647   109A      2.931930
     110A      2.932022   111A      2.960056   112A      2.968825
     113A      2.969012   114A      3.041944   115A      3.081063
     116A      3.081322   117A      3.086171   118A      3.184296
     119A      3.184703   120A      3.188331   121A      3.290096
     122A      3.290130   123A      3.330784   124A      3.331142
     125A      3.383434   126A      3.492535   127A      3.493239
     128A      3.512381   129A      3.528376   130A      3.574996
     131A      3.581633   132A      3.581837   133A      3.670413
     134A      3.671839   135A      3.692958   136A      3.725628
     137A      3.725889   138A      3.781099   139A      3.781549
     140A      3.817666   141A      3.921342   142A      3.922740
     143A      4.045342   144A      4.117930   145A      4.118447
     146A      4.155130   147A      4.155534   148A      4.187306
     149A      4.208560   150A      4.209352   151A      4.210732
     152A      4.215334   153A      4.322640   154A      4.324141
     155A      4.362342   156A      4.431714   157A      4.433512
     158A      4.446439   159A      4.523980   160A      4.525279
     161A      4.588833   162A      4.588911   163A      4.624729
     164A      4.719796   165A      4.781228   166A      4.781822
     167A      4.839835   168A      4.967624   169A      5.006312
     170A      5.007707   171A      5.233755   172A      5.248401
     173A      5.248784   174A      5.361897   175A      5.362068
     176A      5.481668

    Final Occupation by Irrep:
              A
    DOCC [    16 ]
    SOCC [     1 ]

  @DF-UKS Final Energy:  -157.81307196544844

   => Energetics <=

    Nuclear Repulsion Energy =            125.3945802305104991
    One-Electron Energy =                -458.7488321794156150
    Two-Electron Energy =                 195.8483218145232172
    DFT Exchange-Correlation Energy =     -20.3071418310665273
    Empirical Dispersion Energy =           0.0000000000000000
    VV10 Nonlocal Energy =                  0.0000000000000000
    Total Energy =                       -157.8130719654484437

  UHF NO Occupations:
  HONO-2 :   15  A 1.9996009
  HONO-1 :   16  A 1.9989805
  HONO-0 :   17  A 1.0000000
  LUNO+0 :   18  A 0.0010195
  LUNO+1 :   19  A 0.0003991
  LUNO+2 :   20  A 0.0001979
  LUNO+3 :   21  A 0.0001972

Computation Completed

Properties will be evaluated at   0.000000,   0.000000,   0.000000 [a0]

Properties computed using the SCF density matrix

  Nuclear Dipole Moment: [e a0]
     X:     0.8272      Y:    -0.0000      Z:    -0.0033

  Electronic Dipole Moment: [e a0]
     X:    -0.7493      Y:     0.0000      Z:     0.0034

  Dipole Moment: [e a0]
     X:     0.0779      Y:     0.0000      Z:     0.0001     Total:     0.0779

  Dipole Moment: [D]
     X:     0.1980      Y:     0.0000      Z:     0.0002     Total:     0.1980

*** tstop() called on n080 at Fri Nov  5 13:06:16 2021
Module time:
	user time   =     469.09 seconds =       7.82 minutes
	system time =       4.36 seconds =       0.07 minutes
	total time  =        119 seconds =       1.98 minutes
Total time:
	user time   =     469.09 seconds =       7.82 minutes
	system time =       4.36 seconds =       0.07 minutes
	total time  =        119 seconds =       1.98 minutes
Grab this energy -157.81307196544844
    Psi4 stopped on: Friday, 05 November 2021 01:06PM
    Psi4 wall time for execution: 0:01:59.08

*** Psi4 exiting successfully. Buy a developer a beer!
