                               Psi4 1.4a2.dev629

  ==> Input File <==

--------------------------------------------------------------------------
import os
memory 14 GB

molecule {
 C   -0.3233410517    0.0002211422   -0.0024286067
 C    0.0605336574   -1.3999996029   -2.4269447187
 C    0.0608518566    2.7994882041   -0.0012537661
 C    0.0619130205   -1.4021667397    2.4281997414
 H    2.0847495301   -1.6458687022   -2.8468459929
 H   -0.7645734414   -0.3859184490   -4.0252338031
 H   -0.7689792995   -3.2887265433   -2.3459314560
 H    2.0867088433    3.2887869562    0.0033532021
 H   -0.7698720545    3.6780225810    1.6729979330
 H   -0.7611521115    3.6838126944   -1.6796738821
 H    2.0892013379   -1.6422615217    2.8472849054
 H   -0.7621775160   -3.2951999120    2.3513022125
 H   -0.7664706479   -0.3902144206    4.0251742312
units bohr
0 2
}

basis {

assign 6-31g_2dfp_

[ 6-31g_2dfp_ ]

spherical

!----------------------------------------------------------------------
! Basis Set Exchange
! Version v0.8.13
! https://www.basissetexchange.org
!----------------------------------------------------------------------
!   Basis set: 6-31G(2df,p)
! Description: 6-31G(2df,p)
!        Role: orbital
!     Version: 0  (Data from the original Basis Set Exchange)
!----------------------------------------------------------------------

****
H     0
S    3   1.00
     18.7311370              0.03349460
      2.8253937              0.23472695
      0.6401217              0.81375733
S    1   1.00
      0.1612778              1.00000000
P    1   1.00
      1.5000000              1.0000000
P    1   1.00
      0.3750000              1.0000000
****
B     0
S    6   1.00
   2068.8823000              0.0018663
    310.6495700              0.0142515
     70.6830330              0.0695516
     19.8610800              0.2325729
      6.2993048              0.4670787
      2.1270270              0.3634314
SP   3   1.00
      4.7279710             -0.1303938              0.0745976
      1.1903377             -0.1307889              0.3078467
      0.3594117              1.1309444              0.7434568
SP   1   1.00
      0.1267512              1.0000000              1.0000000
D    1   1.00
      0.8020000              1.0000000
D    1   1.00
      0.2005000              1.0000000
F    1   1.00
      0.5000000              1.0000000
****
C     0
S    6   1.00
   3047.5249000              0.0018347
    457.3695100              0.0140373
    103.9486900              0.0688426
     29.2101550              0.2321844
      9.2866630              0.4679413
      3.1639270              0.3623120
SP   3   1.00
      7.8682724             -0.1193324              0.0689991
      1.8812885             -0.1608542              0.3164240
      0.5442493              1.1434564              0.7443083
SP   1   1.00
      0.1687144              1.0000000              1.0000000
D    1   1.00
      1.2520000              1.0000000
D    1   1.00
      0.3130000              1.0000000
F    1   1.00
      0.8000000              1.0000000
****
N     0
S    6   1.00
   4173.5110000              0.0018348
    627.4579000              0.0139950
    142.9021000              0.0685870
     40.2343300              0.2322410
     12.8202100              0.4690700
      4.3904370              0.3604550
SP   3   1.00
     11.6263580             -0.1149610              0.0675800
      2.7162800             -0.1691180              0.3239070
      0.7722180              1.1458520              0.7408950
SP   1   1.00
      0.2120313              1.0000000              1.0000000
D    1   1.00
      1.8260000              1.0000000
D    1   1.00
      0.4565000              1.0000000
F    1   1.00
      1.0000000              1.0000000
****
O     0
S    6   1.00
   5484.6717000              0.0018311
    825.2349500              0.0139501
    188.0469600              0.0684451
     52.9645000              0.2327143
     16.8975700              0.4701930
      5.7996353              0.3585209
SP   3   1.00
     15.5396160             -0.1107775              0.0708743
      3.5999336             -0.1480263              0.3397528
      1.0137618              1.1307670              0.7271586
SP   1   1.00
      0.2700058              1.0000000              1.0000000
D    1   1.00
      2.5840000              1.0000000
D    1   1.00
      0.6460000              1.0000000
F    1   1.00
      1.4000000              1.0000000
****
F     0
S    6   1.00
   7001.7130900              0.0018196169
   1051.3660900              0.0139160796
    239.2856900              0.0684053245
     67.3974453              0.233185760
     21.5199573              0.471267439
      7.40310130             0.356618546
SP   3   1.00
     20.8479528             -0.108506975            0.0716287243
      4.80830834            -0.146451658            0.3459121030
      1.34406986             1.128688580            0.7224699570
SP   1   1.00
      0.358151393            1.0000000              1.0000000
D    1   1.00
      3.5000000              1.0000000
D    1   1.00
      0.8750000              1.0000000
F    1   1.00
      1.8500000              1.0000000
****
Al     0
S    6   1.00
  13983.1000000              0.00194267
   2098.7500000              0.0148599
    477.7050000              0.0728494
    134.3600000              0.2468300
     42.8709000              0.4872580
     14.5189000              0.3234960
SP   6   1.00
    239.6680000             -0.00292619             0.00460285
     57.4419000             -0.0374080              0.0331990
     18.2859000             -0.1144870              0.1362820
      6.5991400              0.1156350              0.3304760
      2.4904900              0.6125950              0.4491460
      0.9445400              0.3937990              0.2657040
SP   3   1.00
      1.2779000             -0.2276060             -0.0175130
      0.3975900              0.00144583             0.2445330
      0.1600950              1.0927900              0.8049340
SP   1   1.00
      0.0556577              1.0000000              1.0000000
D    1   1.00
      0.6500000              1.0000000
D    1   1.00
      0.1625000              1.0000000
F    1   1.00
      0.2500000              1.0000000
****
Si     0
S    6   1.00
  16115.9000000              0.00195948
   2425.5800000              0.01492880
    553.8670000              0.07284780
    156.3400000              0.24613000
     50.0683000              0.48591400
     17.0178000              0.32500200
SP   6   1.00
    292.7180000             -0.00278094             0.00443826
     69.8731000             -0.03571460             0.03266790
     22.3363000             -0.11498500             0.13472100
      8.1503900              0.09356340             0.32867800
      3.1345800              0.60301700             0.44964000
      1.2254300              0.41895900             0.26137200
SP   3   1.00
      1.7273800             -0.24463000            -0.01779510
      0.5729220              0.00431572             0.25353900
      0.2221920              1.09818000             0.80066900
SP   1   1.00
      0.0778369              1.00000000             1.00000000
D    1   1.00
      0.9000000              1.0000000
D    1   1.00
      0.2250000              1.0000000
F    1   1.00
      0.3200000              1.0000000
****
P     0
S    6   1.00
  19413.3000000              0.0018516
   2909.4200000              0.0142062
    661.3640000              0.0699995
    185.7590000              0.2400790
     59.1943000              0.4847620
     20.0310000              0.3352000
SP   6   1.00
    339.4780000             -0.00278217             0.00456462
     81.0101000             -0.0360499              0.03369360
     25.8780000             -0.1166310              0.13975500
      9.4522100              0.0968328              0.33936200
      3.6656600              0.6144180              0.45092100
      1.4674600              0.4037980              0.23858600
SP   3   1.00
      2.1562300             -0.2529230             -0.01776530
      0.7489970              0.0328517              0.27405800
      0.2831450              1.0812500              0.78542100
SP   1   1.00
      0.0998317              1.0000000              1.00000000
D    1   1.00
      1.1000000              1.0000000
D    1   1.00
      0.2750000              1.0000000
F    1   1.00
      0.4500000              1.0000000
****
S     0
S    6   1.00
  21917.1000000              0.0018690
   3301.4900000              0.0142300
    754.1460000              0.0696960
    212.7110000              0.2384870
     67.9896000              0.4833070
     23.0515000              0.3380740
SP   6   1.00
    423.7350000             -0.0023767              0.0040610
    100.7100000             -0.0316930              0.0306810
     32.1599000             -0.1133170              0.1304520
     11.8079000              0.0560900              0.3272050
      4.6311000              0.5922550              0.4528510
      1.8702500              0.4550060              0.2560420
SP   3   1.00
      2.6158400             -0.2503740             -0.0145110
      0.9221670              0.0669570              0.3102630
      0.3412870              1.0545100              0.7544830
SP   1   1.00
      0.1171670              1.0000000              1.0000000
D    1   1.00
      1.3000000              1.0000000
D    1   1.00
      0.3250000              1.0000000
F    1   1.00
      0.5500000              1.0000000
****
Cl     0
S    6   1.00
  25180.1000000              0.0018330
   3780.3500000              0.0140340
    860.4740000              0.0690970
    242.1450000              0.2374520
     77.3349000              0.4830340
     26.2470000              0.3398560
SP   6   1.00
    491.7650000             -0.0022974              0.0039894
    116.9840000             -0.0307140              0.0303180
     37.4153000             -0.1125280              0.1298800
     13.7834000              0.0450160              0.3279510
      5.4521500              0.5893530              0.4535270
      2.2258800              0.4652060              0.2521540
SP   3   1.00
      3.1864900             -0.2518300             -0.0142990
      1.1442700              0.0615890              0.3235720
      0.4203770              1.0601800              0.7435070
SP   1   1.00
      0.1426570              1.0000000              1.0000000
D    1   1.00
      1.5000000              1.0000000
D    1   1.00
      0.3750000              1.0000000
F    1   1.00
      0.7000000              1.0000000
****
}

set {
reference uhf
freeze_core true
e_convergence 10
d_convergence 10
dft_spherical_points 1202
dft_radial_points 99
}

e = energy('b3lyp')

print_out('Grab this energy {0}'.format(e))
--------------------------------------------------------------------------

    Molecular point group: c1

    Geometry (in Bohr), charge = 0, multiplicity = 2:

       Center              X                  Y                   Z               Mass
    ------------   -----------------  -----------------  -----------------  -----------------
         C           -0.323340563950     0.000694806744    -0.001961081587    12.000000000000
         C            0.060534145150    -1.399525938356    -2.426477193587    12.000000000000
         C            0.060852344350     2.799961868644    -0.000786240987    12.000000000000
         C            0.061913508250    -1.401693075156     2.428667266513    12.000000000000
         H            2.084750017850    -1.645395037656    -2.846378467787     1.007825032230
         H           -0.764572953650    -0.385444784456    -4.024766277987     1.007825032230
         H           -0.768978811750    -3.288252878756    -2.345463930887     1.007825032230
         H            2.086709331050     3.289260620744     0.003820727213     1.007825032230
         H           -0.769871566750     3.678496245544     1.673465458113     1.007825032230
         H           -0.761151623750     3.684286358944    -1.679206356987     1.007825032230
         H            2.089201825650    -1.641787857156     2.847752430513     1.007825032230
         H           -0.762177028250    -3.294726247456     2.351769737613     1.007825032230
         H           -0.766470160150    -0.389740756056     4.025641756313     1.007825032230

  Charge       = 0
  Multiplicity = 2
  Basis Set: ANONYMOUS43E2CA8A
    Blend: 6-31G_2DFP_
  Basis Set: (ANONYMOUS43E2CA8A AUX)
    Blend: DEF2-UNIVERSAL-JKFIT

    Orbital Energies [Eh]
    ---------------------

    Alpha Occupied:

       1A    -10.180341     2A    -10.167183     3A    -10.167056
       4A    -10.166805     5A     -0.797768     6A     -0.686331
       7A     -0.686042     8A     -0.530776     9A     -0.441125
      10A     -0.434781    11A     -0.434562    12A     -0.382698
      13A     -0.382500    14A     -0.363611    15A     -0.338253
      16A     -0.337742    17A     -0.168960

    Alpha Virtual:

      18A      0.076073    19A      0.134090    20A      0.134221
      21A      0.142562    22A      0.142694    23A      0.154879
      24A      0.178695    25A      0.178859    26A      0.203545
      27A      0.214802    28A      0.275581    29A      0.276391
      30A      0.399205    31A      0.399239    32A      0.403358
      33A      0.424043    34A      0.424153    35A      0.456594
      36A      0.495335    37A      0.495443    38A      0.512160
      39A      0.513980    40A      0.578622    41A      0.579001
      42A      0.591403    43A      0.591871    44A      0.602576
      45A      0.624761    46A      0.631767    47A      0.636065
      48A      0.636441    49A      0.663199    50A      0.663626
      51A      0.683823    52A      0.683882    53A      0.734995
      54A      0.825346    55A      0.825469    56A      0.853916
      57A      0.914892    58A      0.915162    59A      0.944123
      60A      0.944613    61A      0.961248    62A      0.961339
      63A      1.003453    64A      1.128010    65A      1.128182
      66A      1.142215    67A      1.162975    68A      1.163591
      69A      1.223327    70A      1.274129    71A      1.274834
      72A      1.279379    73A      1.324219    74A      1.324495
      75A      1.355995    76A      1.365722    77A      1.366383
      78A      1.392439    79A      1.403688    80A      1.404407
      81A      1.416805    82A      1.417415    83A      1.427930
      84A      1.491491    85A      1.499083    86A      1.542672
      87A      1.542985    88A      1.574151    89A      1.574738
      90A      1.669826    91A      1.739119    92A      1.739724
      93A      1.768313    94A      1.830743    95A      1.832049
      96A      1.971730    97A      2.018066    98A      2.018703
      99A      2.019607   100A      2.051472   101A      2.053835
     102A      2.738352   103A      2.738614   104A      2.790928
     105A      2.811421   106A      2.889476   107A      2.890375
     108A      2.895001   109A      2.929315   110A      2.929681
     111A      2.958992   112A      2.964103   113A      2.964651
     114A      3.034008   115A      3.070962   116A      3.071607
     117A      3.084349   118A      3.168557   119A      3.168961
     120A      3.180634   121A      3.285270   122A      3.285359
     123A      3.326676   124A      3.327640   125A      3.375615
     126A      3.489740   127A      3.490569   128A      3.514003
     129A      3.525316   130A      3.567562   131A      3.569237
     132A      3.575146   133A      3.665628   134A      3.667080
     135A      3.679687   136A      3.693773   137A      3.694484
     138A      3.775443   139A      3.778118   140A      3.789170
     141A      3.911339   142A      3.913123   143A      4.034449
     144A      4.110328   145A      4.112409   146A      4.147497
     147A      4.148743   148A      4.173250   149A      4.202040
     150A      4.203032   151A      4.203719   152A      4.210889
     153A      4.315064   154A      4.316835   155A      4.358983
     156A      4.423332   157A      4.425486   158A      4.443532
     159A      4.515839   160A      4.517836   161A      4.577576
     162A      4.578940   163A      4.617535   164A      4.709451
     165A      4.773890   166A      4.775305   167A      4.836933
     168A      4.962814   169A      5.002034   170A      5.003924
     171A      5.228026   172A      5.246586   173A      5.247041
     174A      5.354551   175A      5.356468   176A      5.479349

    Beta Occupied:

       1A    -10.167938     2A    -10.167819     3A    -10.167566
       4A    -10.166518     5A     -0.781093     6A     -0.684124
       7A     -0.683855     8A     -0.511748     9A     -0.431157
      10A     -0.430927    11A     -0.421822    12A     -0.376797
      13A     -0.376571    14A     -0.362595    15A     -0.333377
      16A     -0.332864

    Beta Virtual:

      17A     -0.025742    18A      0.077082    19A      0.134978
      20A      0.135112    21A      0.144446    22A      0.144551
      23A      0.163338    24A      0.182379    25A      0.182519
      26A      0.215031    27A      0.218927    28A      0.281943
      29A      0.282725    30A      0.400390    31A      0.400402
      32A      0.419793    33A      0.426845    34A      0.426974
      35A      0.468503    36A      0.497598    37A      0.497701
      38A      0.513895    39A      0.556323    40A      0.584161
      41A      0.584564    42A      0.597602    43A      0.598030
      44A      0.609999    45A      0.628137    46A      0.631927
      47A      0.639341    48A      0.639734    49A      0.666772
      50A      0.667180    51A      0.686476    52A      0.686500
      53A      0.757517    54A      0.830517    55A      0.830635
      56A      0.855269    57A      0.922859    58A      0.923137
      59A      0.945960    60A      0.953541    61A      0.966529
      62A      0.966672    63A      1.008693    64A      1.132008
      65A      1.132248    66A      1.155581    67A      1.168053
      68A      1.168664    69A      1.232300    70A      1.279716
      71A      1.280438    72A      1.285136    73A      1.329227
      74A      1.329467    75A      1.365411    76A      1.371012
      77A      1.371579    78A      1.393498    79A      1.407151
      80A      1.407873    81A      1.421868    82A      1.422444
      83A      1.428208    84A      1.492539    85A      1.509526
      86A      1.547102    87A      1.547370    88A      1.582049
      89A      1.582584    90A      1.674673    91A      1.744867
      92A      1.745499    93A      1.779093    94A      1.834601
      95A      1.835901    96A      1.972590    97A      2.024892
      98A      2.025991    99A      2.039660   100A      2.058224
     101A      2.060526   102A      2.746692   103A      2.746945
     104A      2.811834   105A      2.816062   106A      2.902268
     107A      2.903008   108A      2.924635   109A      2.931805
     110A      2.932175   111A      2.960055   112A      2.968659
     113A      2.969184   114A      3.041943   115A      3.080909
     116A      3.081476   117A      3.086170   118A      3.184175
     119A      3.184745   120A      3.188414   121A      3.290063
     122A      3.290163   123A      3.330490   124A      3.331434
     125A      3.383435   126A      3.492440   127A      3.493329
     128A      3.512373   129A      3.528364   130A      3.574987
     131A      3.580927   132A      3.582560   133A      3.670389
     134A      3.671843   135A      3.692963   136A      3.725534
     137A      3.725981   138A      3.780018   139A      3.782617
     140A      3.817691   141A      3.921224   142A      3.922873
     143A      4.045336   144A      4.117125   145A      4.119242
     146A      4.154808   147A      4.155853   148A      4.187306
     149A      4.208287   150A      4.209552   151A      4.210789
     152A      4.215370   153A      4.322461   154A      4.324316
     155A      4.362346   156A      4.431568   157A      4.433647
     158A      4.446451   159A      4.523639   160A      4.525614
     161A      4.588169   162A      4.589547   163A      4.624732
     164A      4.719796   165A      4.780888   166A      4.782214
     167A      4.839851   168A      4.967610   169A      5.006071
     170A      5.007966   171A      5.233741   172A      5.248371
     173A      5.248826   174A      5.361010   175A      5.362971
     176A      5.481671

    Final Occupation by Irrep:
              A
    DOCC [    16 ]
    SOCC [     1 ]

  @DF-UKS Final Energy:  -157.81306684879848

   => Energetics <=

    Nuclear Repulsion Energy =            125.3946418488985017
    One-Electron Energy =                -458.7489413313671776
    Two-Electron Energy =                 195.8483768937448133
    DFT Exchange-Correlation Energy =     -20.3071442600746401
    Empirical Dispersion Energy =           0.0000000000000000
    VV10 Nonlocal Energy =                  0.0000000000000000
    Total Energy =                       -157.8130668487984849

  UHF NO Occupations:
  HONO-2 :   15  A 1.9996009
  HONO-1 :   16  A 1.9989805
  HONO-0 :   17  A 1.0000000
  LUNO+0 :   18  A 0.0010195
  LUNO+1 :   19  A 0.0003991
  LUNO+2 :   20  A 0.0001982
  LUNO+3 :   21  A 0.0001969

Computation Completed

Properties will be evaluated at   0.000000,   0.000000,   0.000000 [a0]

Properties computed using the SCF density matrix

  Nuclear Dipole Moment: [e a0]
     X:     0.8272      Y:     0.0033      Z:     0.0033

  Electronic Dipole Moment: [e a0]
     X:    -0.7493      Y:    -0.0034      Z:    -0.0033

  Dipole Moment: [e a0]
     X:     0.0779      Y:    -0.0001      Z:     0.0000     Total:     0.0779

  Dipole Moment: [D]
     X:     0.1980      Y:    -0.0002      Z:     0.0001     Total:     0.1980

*** tstop() called on n091 at Fri Nov  5 13:04:45 2021
Module time:
	user time   =     463.64 seconds =       7.73 minutes
	system time =       4.43 seconds =       0.07 minutes
	total time  =        118 seconds =       1.97 minutes
Total time:
	user time   =     463.64 seconds =       7.73 minutes
	system time =       4.43 seconds =       0.07 minutes
	total time  =        118 seconds =       1.97 minutes
Grab this energy -157.81306684879848
    Psi4 stopped on: Friday, 05 November 2021 01:04PM
    Psi4 wall time for execution: 0:01:57.73

*** Psi4 exiting successfully. Buy a developer a beer!
