                               Psi4 1.4a2.dev629

  ==> Input File <==

--------------------------------------------------------------------------
import os
memory 14 GB

molecule {
 C   -0.3233174790   -0.0000020755   -0.0000000000
 C    0.0612335975   -1.4012070512   -2.4269513577
 C    0.0611137636    2.8024183191   -0.0000000000
 C    0.0612335975   -1.4012070512    2.4269513577
 H    2.0837848263   -1.6442772615   -2.8477522414
 H   -0.7638798720   -0.3905358506   -4.0239139421
 H   -0.7640428595   -3.2894848865   -2.3502082622
 H    2.0836461782    3.2884621587   -0.0000000000
 H   -0.7641208621    3.6800536919    1.6737122522
 H   -0.7641208621    3.6800536919   -1.6737122522
 H    2.0837848263   -1.6442772615    2.8477522414
 H   -0.7640428595   -3.2894848865    2.3502082622
 H   -0.7638798720   -0.3905358506    4.0239139421
units bohr
0 2
}

basis {

assign 6-31g_2dfp_

[ 6-31g_2dfp_ ]

spherical

!----------------------------------------------------------------------
! Basis Set Exchange
! Version v0.8.13
! https://www.basissetexchange.org
!----------------------------------------------------------------------
!   Basis set: 6-31G(2df,p)
! Description: 6-31G(2df,p)
!        Role: orbital
!     Version: 0  (Data from the original Basis Set Exchange)
!----------------------------------------------------------------------

****
H     0
S    3   1.00
     18.7311370              0.03349460
      2.8253937              0.23472695
      0.6401217              0.81375733
S    1   1.00
      0.1612778              1.00000000
P    1   1.00
      1.5000000              1.0000000
P    1   1.00
      0.3750000              1.0000000
****
B     0
S    6   1.00
   2068.8823000              0.0018663
    310.6495700              0.0142515
     70.6830330              0.0695516
     19.8610800              0.2325729
      6.2993048              0.4670787
      2.1270270              0.3634314
SP   3   1.00
      4.7279710             -0.1303938              0.0745976
      1.1903377             -0.1307889              0.3078467
      0.3594117              1.1309444              0.7434568
SP   1   1.00
      0.1267512              1.0000000              1.0000000
D    1   1.00
      0.8020000              1.0000000
D    1   1.00
      0.2005000              1.0000000
F    1   1.00
      0.5000000              1.0000000
****
C     0
S    6   1.00
   3047.5249000              0.0018347
    457.3695100              0.0140373
    103.9486900              0.0688426
     29.2101550              0.2321844
      9.2866630              0.4679413
      3.1639270              0.3623120
SP   3   1.00
      7.8682724             -0.1193324              0.0689991
      1.8812885             -0.1608542              0.3164240
      0.5442493              1.1434564              0.7443083
SP   1   1.00
      0.1687144              1.0000000              1.0000000
D    1   1.00
      1.2520000              1.0000000
D    1   1.00
      0.3130000              1.0000000
F    1   1.00
      0.8000000              1.0000000
****
N     0
S    6   1.00
   4173.5110000              0.0018348
    627.4579000              0.0139950
    142.9021000              0.0685870
     40.2343300              0.2322410
     12.8202100              0.4690700
      4.3904370              0.3604550
SP   3   1.00
     11.6263580             -0.1149610              0.0675800
      2.7162800             -0.1691180              0.3239070
      0.7722180              1.1458520              0.7408950
SP   1   1.00
      0.2120313              1.0000000              1.0000000
D    1   1.00
      1.8260000              1.0000000
D    1   1.00
      0.4565000              1.0000000
F    1   1.00
      1.0000000              1.0000000
****
O     0
S    6   1.00
   5484.6717000              0.0018311
    825.2349500              0.0139501
    188.0469600              0.0684451
     52.9645000              0.2327143
     16.8975700              0.4701930
      5.7996353              0.3585209
SP   3   1.00
     15.5396160             -0.1107775              0.0708743
      3.5999336             -0.1480263              0.3397528
      1.0137618              1.1307670              0.7271586
SP   1   1.00
      0.2700058              1.0000000              1.0000000
D    1   1.00
      2.5840000              1.0000000
D    1   1.00
      0.6460000              1.0000000
F    1   1.00
      1.4000000              1.0000000
****
F     0
S    6   1.00
   7001.7130900              0.0018196169
   1051.3660900              0.0139160796
    239.2856900              0.0684053245
     67.3974453              0.233185760
     21.5199573              0.471267439
      7.40310130             0.356618546
SP   3   1.00
     20.8479528             -0.108506975            0.0716287243
      4.80830834            -0.146451658            0.3459121030
      1.34406986             1.128688580            0.7224699570
SP   1   1.00
      0.358151393            1.0000000              1.0000000
D    1   1.00
      3.5000000              1.0000000
D    1   1.00
      0.8750000              1.0000000
F    1   1.00
      1.8500000              1.0000000
****
Al     0
S    6   1.00
  13983.1000000              0.00194267
   2098.7500000              0.0148599
    477.7050000              0.0728494
    134.3600000              0.2468300
     42.8709000              0.4872580
     14.5189000              0.3234960
SP   6   1.00
    239.6680000             -0.00292619             0.00460285
     57.4419000             -0.0374080              0.0331990
     18.2859000             -0.1144870              0.1362820
      6.5991400              0.1156350              0.3304760
      2.4904900              0.6125950              0.4491460
      0.9445400              0.3937990              0.2657040
SP   3   1.00
      1.2779000             -0.2276060             -0.0175130
      0.3975900              0.00144583             0.2445330
      0.1600950              1.0927900              0.8049340
SP   1   1.00
      0.0556577              1.0000000              1.0000000
D    1   1.00
      0.6500000              1.0000000
D    1   1.00
      0.1625000              1.0000000
F    1   1.00
      0.2500000              1.0000000
****
Si     0
S    6   1.00
  16115.9000000              0.00195948
   2425.5800000              0.01492880
    553.8670000              0.07284780
    156.3400000              0.24613000
     50.0683000              0.48591400
     17.0178000              0.32500200
SP   6   1.00
    292.7180000             -0.00278094             0.00443826
     69.8731000             -0.03571460             0.03266790
     22.3363000             -0.11498500             0.13472100
      8.1503900              0.09356340             0.32867800
      3.1345800              0.60301700             0.44964000
      1.2254300              0.41895900             0.26137200
SP   3   1.00
      1.7273800             -0.24463000            -0.01779510
      0.5729220              0.00431572             0.25353900
      0.2221920              1.09818000             0.80066900
SP   1   1.00
      0.0778369              1.00000000             1.00000000
D    1   1.00
      0.9000000              1.0000000
D    1   1.00
      0.2250000              1.0000000
F    1   1.00
      0.3200000              1.0000000
****
P     0
S    6   1.00
  19413.3000000              0.0018516
   2909.4200000              0.0142062
    661.3640000              0.0699995
    185.7590000              0.2400790
     59.1943000              0.4847620
     20.0310000              0.3352000
SP   6   1.00
    339.4780000             -0.00278217             0.00456462
     81.0101000             -0.0360499              0.03369360
     25.8780000             -0.1166310              0.13975500
      9.4522100              0.0968328              0.33936200
      3.6656600              0.6144180              0.45092100
      1.4674600              0.4037980              0.23858600
SP   3   1.00
      2.1562300             -0.2529230             -0.01776530
      0.7489970              0.0328517              0.27405800
      0.2831450              1.0812500              0.78542100
SP   1   1.00
      0.0998317              1.0000000              1.00000000
D    1   1.00
      1.1000000              1.0000000
D    1   1.00
      0.2750000              1.0000000
F    1   1.00
      0.4500000              1.0000000
****
S     0
S    6   1.00
  21917.1000000              0.0018690
   3301.4900000              0.0142300
    754.1460000              0.0696960
    212.7110000              0.2384870
     67.9896000              0.4833070
     23.0515000              0.3380740
SP   6   1.00
    423.7350000             -0.0023767              0.0040610
    100.7100000             -0.0316930              0.0306810
     32.1599000             -0.1133170              0.1304520
     11.8079000              0.0560900              0.3272050
      4.6311000              0.5922550              0.4528510
      1.8702500              0.4550060              0.2560420
SP   3   1.00
      2.6158400             -0.2503740             -0.0145110
      0.9221670              0.0669570              0.3102630
      0.3412870              1.0545100              0.7544830
SP   1   1.00
      0.1171670              1.0000000              1.0000000
D    1   1.00
      1.3000000              1.0000000
D    1   1.00
      0.3250000              1.0000000
F    1   1.00
      0.5500000              1.0000000
****
Cl     0
S    6   1.00
  25180.1000000              0.0018330
   3780.3500000              0.0140340
    860.4740000              0.0690970
    242.1450000              0.2374520
     77.3349000              0.4830340
     26.2470000              0.3398560
SP   6   1.00
    491.7650000             -0.0022974              0.0039894
    116.9840000             -0.0307140              0.0303180
     37.4153000             -0.1125280              0.1298800
     13.7834000              0.0450160              0.3279510
      5.4521500              0.5893530              0.4535270
      2.2258800              0.4652060              0.2521540
SP   3   1.00
      3.1864900             -0.2518300             -0.0142990
      1.1442700              0.0615890              0.3235720
      0.4203770              1.0601800              0.7435070
SP   1   1.00
      0.1426570              1.0000000              1.0000000
D    1   1.00
      1.5000000              1.0000000
D    1   1.00
      0.3750000              1.0000000
F    1   1.00
      0.7000000              1.0000000
****
}

set {
reference uhf
freeze_core true
e_convergence 10
d_convergence 10
dft_spherical_points 1202
dft_radial_points 99
}

e = energy('b3lyp')

print_out('Grab this energy {0}'.format(e))
--------------------------------------------------------------------------

    Molecular point group: cs

    Geometry (in Bohr), charge = 0, multiplicity = 2:

       Center              X                  Y                   Z               Mass
    ------------   -----------------  -----------------  -----------------  -----------------
         C           -0.323375928436    -0.000002058551     0.000000000000    12.000000000000
         C            0.061175148064    -1.401207034251    -2.426951357700    12.000000000000
         C            0.061055314164     2.802418336049     0.000000000000    12.000000000000
         C            0.061175148064    -1.401207034251     2.426951357700    12.000000000000
         H            2.083726376864    -1.644277244551    -2.847752241400     1.007825032230
         H           -0.763938321436    -0.390535833651    -4.023913942100     1.007825032230
         H           -0.764101308936    -3.289484869551    -2.350208262200     1.007825032230
         H            2.083587728764     3.288462175649     0.000000000000     1.007825032230
         H           -0.764179311536     3.680053708849     1.673712252200     1.007825032230
         H           -0.764179311536     3.680053708849    -1.673712252200     1.007825032230
         H            2.083726376864    -1.644277244551     2.847752241400     1.007825032230
         H           -0.764101308936    -3.289484869551     2.350208262200     1.007825032230
         H           -0.763938321436    -0.390535833651     4.023913942100     1.007825032230

  Charge       = 0
  Multiplicity = 2
  Basis Set: ANONYMOUS483FE797
    Blend: 6-31G_2DFP_
  Basis Set: (ANONYMOUS483FE797 AUX)
    Blend: DEF2-UNIVERSAL-JKFIT

    Orbital Energies [Eh]
    ---------------------

    Alpha Occupied:

       1Ap   -10.180274     2Ap   -10.166494     1App  -10.166494
       3Ap   -10.166449     4Ap    -0.797727     5Ap    -0.686547
       2App   -0.686547     6Ap    -0.531087     7Ap    -0.441224
       3App   -0.434810     8Ap    -0.434810     9Ap    -0.382858
       4App   -0.382857     5App   -0.363927     6App   -0.338005
      10Ap    -0.338005    11Ap    -0.168899

    Alpha Virtual:

      12Ap     0.076404    13Ap     0.134521     7App    0.134522
      14Ap     0.143039     8App    0.143039    15Ap     0.155178
      16Ap     0.179285     9App    0.179285    17Ap     0.203436
      10App    0.215257    11App    0.276008    18Ap     0.276009
      19Ap     0.399172    12App    0.399176    20Ap     0.403550
      13App    0.424371    21Ap     0.424371    22Ap     0.456725
      23Ap     0.495614    14App    0.495615    15App    0.512432
      24Ap     0.514111    25Ap     0.579149    16App    0.579158
      17App    0.592234    26Ap     0.592236    27Ap     0.603224
      28Ap     0.625743    18App    0.632479    19App    0.636808
      29Ap     0.636811    30Ap     0.663749    20App    0.663749
      31Ap     0.684405    21App    0.684406    32Ap     0.735304
      22App    0.826224    33Ap     0.826227    23App    0.854431
      24App    0.915736    34Ap     0.915742    25App    0.944753
      35Ap     0.945405    26App    0.961939    36Ap     0.961956
      37Ap     1.003553    38Ap     1.128525    27App    1.128538
      39Ap     1.143092    40Ap     1.163518    28App    1.163530
      41Ap     1.223767    42Ap     1.275026    29App    1.275029
      43Ap     1.278897    30App    1.325064    44Ap     1.325067
      45Ap     1.356851    31App    1.366552    46Ap     1.366556
      32App    1.393037    47Ap     1.405079    33App    1.405081
      34App    1.418031    48Ap     1.418038    35App    1.428660
      36App    1.492390    49Ap     1.500430    37App    1.543315
      50Ap     1.543317    51Ap     1.574641    38App    1.574642
      52Ap     1.671983    53Ap     1.740845    39App    1.740856
      54Ap     1.769847    40App    1.833891    55Ap     1.833891
      41App    1.973354    56Ap     2.019382    57Ap     2.020243
      42App    2.020246    58Ap     2.053717    43App    2.053717
      44App    2.739464    59Ap     2.739465    60Ap     2.791136
      45App    2.811941    61Ap     2.890511    46App    2.890517
      62Ap     2.895016    63Ap     2.929881    47App    2.929889
      48App    2.959622    64Ap     2.965031    49App    2.965045
      65Ap     3.034922    50App    3.072232    66Ap     3.072246
      51App    3.085281    67Ap     3.168124    52App    3.168131
      68Ap     3.180882    53App    3.285280    69Ap     3.285280
      70Ap     3.326655    54App    3.326661    71Ap     3.374916
      55App    3.489157    72Ap     3.489177    56App    3.513728
      73Ap     3.524718    57App    3.568566    74Ap     3.568586
      58App    3.573475    75Ap     3.667083    59App    3.667091
      76Ap     3.681458    60App    3.694970    77Ap     3.694986
      78Ap     3.777332    61App    3.777358    79Ap     3.789676
      80Ap     3.913158    62App    3.913165    81Ap     4.036790
      82Ap     4.113840    63App    4.113844    83Ap     4.151443
      64App    4.151451    84Ap     4.176230    85Ap     4.204072
      65App    4.204520    86Ap     4.204523    66App    4.214552
      87Ap     4.318208    67App    4.318228    68App    4.361394
      88Ap     4.427032    69App    4.427035    70App    4.445441
      71App    4.519263    89Ap     4.519265    72App    4.579746
      90Ap     4.579758    91Ap     4.618202    92Ap     4.711486
      93Ap     4.776359    73App    4.776366    74App    4.839218
      94Ap     4.963677    75App    5.004053    95Ap     5.004065
      96Ap     5.233332    76App    5.252104    97Ap     5.252105
      98Ap     5.360094    77App    5.360107    78App    5.482593

    Beta Occupied:

       1Ap   -10.167244     1App  -10.167243     2Ap   -10.167229
       3Ap   -10.166431     4Ap    -0.781079     5Ap    -0.684348
       2App   -0.684348     6Ap    -0.512000     3App   -0.431190
       7Ap    -0.431189     8Ap    -0.421957     9Ap    -0.376952
       4App   -0.376951     5App   -0.362914     6App   -0.333119
      10Ap    -0.333118

    Beta Virtual:

      11Ap    -0.025510    12Ap     0.077409    13Ap     0.135419
       7App    0.135420    14Ap     0.144881     8App    0.144882
      15Ap     0.163574    16Ap     0.182946     9App    0.182947
      10App    0.215485    17Ap     0.218839    11App    0.282365
      18Ap     0.282367    19Ap     0.400336    12App    0.400340
      20Ap     0.420013    13App    0.427183    21Ap     0.427184
      22Ap     0.468614    23Ap     0.497873    14App    0.497874
      15App    0.514161    24Ap     0.556516    25Ap     0.584716
      16App    0.584725    17App    0.598435    26Ap     0.598435
      27Ap     0.610635    28Ap     0.629107    18App    0.632628
      19App    0.640072    29Ap     0.640076    30Ap     0.667317
      20App    0.667317    31Ap     0.687004    21App    0.687006
      32Ap     0.757853    22App    0.831390    33Ap     0.831393
      23App    0.855760    24App    0.923693    34Ap     0.923700
      25App    0.946588    35Ap     0.954357    26App    0.967237
      36Ap     0.967253    37Ap     1.008805    38Ap     1.132540
      27App    1.132552    39Ap     1.156462    40Ap     1.168620
      28App    1.168632    41Ap     1.232723    42Ap     1.280611
      29App    1.280615    43Ap     1.284638    30App    1.330080
      44Ap     1.330082    45Ap     1.366292    31App    1.371793
      46Ap     1.371798    32App    1.394088    47Ap     1.408540
      33App    1.408543    34App    1.423082    48Ap     1.423088
      35App    1.428917    36App    1.493443    49Ap     1.510874
      50Ap     1.547593    37App    1.547594    38App    1.582620
      51Ap     1.582621    52Ap     1.676906    53Ap     1.746613
      39App    1.746624    54Ap     1.780569    40App    1.837715
      55Ap     1.837716    41App    1.974209    56Ap     2.026629
      42App    2.026633    57Ap     2.040736    58Ap     2.060429
      43App    2.060429    44App    2.747812    59Ap     2.747813
      45App    2.812355    60Ap     2.816298    61Ap     2.903243
      46App    2.903249    62Ap     2.924765    63Ap     2.932309
      47App    2.932318    48App    2.960689    64Ap     2.969616
      49App    2.969630    65Ap     3.042777    50App    3.082204
      66Ap     3.082216    51App    3.087101    67Ap     3.183832
      52App    3.183836    68Ap     3.188611    69Ap     3.290024
      53App    3.290024    70Ap     3.330467    54App    3.330472
      71Ap     3.382758    55App    3.491933    72Ap     3.491953
      56App    3.512097    73Ap     3.527779    57App    3.573331
      58App    3.581922    74Ap     3.581944    75Ap     3.672116
      59App    3.672127    76Ap     3.694815    60App    3.726436
      77Ap     3.726451    78Ap     3.781841    61App    3.781867
      79Ap     3.818250    80Ap     3.922961    62App    3.922968
      81Ap     4.047802    82Ap     4.120732    63App    4.120734
      83Ap     4.158618    64App    4.158627    84Ap     4.190147
      65App    4.210453    85Ap     4.210456    86Ap     4.211970
      66App    4.218997    87Ap     4.325566    67App    4.325586
      68App    4.364747    88Ap     4.435221    69App    4.435223
      70App    4.448303    71App    4.527043    89Ap     4.527045
      72App    4.590315    90Ap     4.590327    91Ap     4.625386
      92Ap     4.721826    93Ap     4.783308    73App    4.783316
      74App    4.842140    94Ap     4.968445    75App    5.008072
      95Ap     5.008085    96Ap     5.239023    76App    5.253882
      97Ap     5.253883    98Ap     5.366547    77App    5.366560
      78App    5.484902

    Final Occupation by Irrep:
             Ap   App
    DOCC [    10,    6 ]
    SOCC [     1,    0 ]

  @DF-UKS Final Energy:  -157.81302341525890

   => Energetics <=

    Nuclear Repulsion Energy =            125.4320147295795209
    One-Electron Energy =                -458.8197663230078547
    Two-Electron Energy =                 195.8858999660043025
    DFT Exchange-Correlation Energy =     -20.3111717878348799
    Empirical Dispersion Energy =           0.0000000000000000
    VV10 Nonlocal Energy =                  0.0000000000000000
    Total Energy =                       -157.8130234152588969

  UHF NO Occupations:
  HONO-2 :    9 Ap 1.9996034
  HONO-1 :   10 Ap 1.9989798
  HONO-0 :   11 Ap 1.0000000
  LUNO+0 :   12 Ap 0.0010202
  LUNO+1 :   13 Ap 0.0003966
  LUNO+2 :    7App 0.0001979
  LUNO+3 :   14 Ap 0.0001979

Computation Completed

Properties will be evaluated at   0.000000,   0.000000,   0.000000 [a0]

Properties computed using the SCF density matrix

  Nuclear Dipole Moment: [e a0]
     X:     0.8268      Y:    -0.0000      Z:     0.0000

  Electronic Dipole Moment: [e a0]
     X:    -0.7482      Y:     0.0000      Z:     0.0000

  Dipole Moment: [e a0]
     X:     0.0785      Y:    -0.0000      Z:     0.0000     Total:     0.0785

  Dipole Moment: [D]
     X:     0.1996      Y:    -0.0000      Z:     0.0000     Total:     0.1996

*** tstop() called on n091 at Fri Nov  5 14:54:37 2021
Module time:
	user time   =     494.29 seconds =       8.24 minutes
	system time =       4.62 seconds =       0.08 minutes
	total time  =        125 seconds =       2.08 minutes
Total time:
	user time   =     494.29 seconds =       8.24 minutes
	system time =       4.62 seconds =       0.08 minutes
	total time  =        125 seconds =       2.08 minutes
Grab this energy -157.8130234152589
    Psi4 stopped on: Friday, 05 November 2021 02:54PM
    Psi4 wall time for execution: 0:02:05.48

*** Psi4 exiting successfully. Buy a developer a beer!
