                               Psi4 1.4a2.dev629

  ==> Input File <==

--------------------------------------------------------------------------
import os
memory 14 GB

molecule {
 C   -0.3233326994    0.0000046669   -0.0045054069
 C    0.0605361794   -1.4066392514   -2.4301018810
 C    0.0610188483    2.8017469006    0.0062690198
 C    0.0617487454   -1.3950988363    2.4226514983
 H    2.0898864773   -1.6526575966   -2.8511515997
 H   -0.7667759303   -0.3946641078   -4.0348688660
 H   -0.7697959334   -3.3007414393   -2.3476960944
 H    2.0867937519    3.2880821799    0.0111126846
 H   -0.7684982141    3.6721488689    1.6855933315
 H   -0.7628034538    3.6883190474   -1.6673643884
 H    2.0839908406   -1.6355325817    2.8437166302
 H   -0.7613501460   -3.2832206200    2.3502580373
 H   -0.7640263427   -0.3817715444    4.0160870348
units bohr
0 2
}

basis {

assign 6-31g_2dfp_

[ 6-31g_2dfp_ ]

spherical

!----------------------------------------------------------------------
! Basis Set Exchange
! Version v0.8.13
! https://www.basissetexchange.org
!----------------------------------------------------------------------
!   Basis set: 6-31G(2df,p)
! Description: 6-31G(2df,p)
!        Role: orbital
!     Version: 0  (Data from the original Basis Set Exchange)
!----------------------------------------------------------------------

****
H     0
S    3   1.00
     18.7311370              0.03349460
      2.8253937              0.23472695
      0.6401217              0.81375733
S    1   1.00
      0.1612778              1.00000000
P    1   1.00
      1.5000000              1.0000000
P    1   1.00
      0.3750000              1.0000000
****
B     0
S    6   1.00
   2068.8823000              0.0018663
    310.6495700              0.0142515
     70.6830330              0.0695516
     19.8610800              0.2325729
      6.2993048              0.4670787
      2.1270270              0.3634314
SP   3   1.00
      4.7279710             -0.1303938              0.0745976
      1.1903377             -0.1307889              0.3078467
      0.3594117              1.1309444              0.7434568
SP   1   1.00
      0.1267512              1.0000000              1.0000000
D    1   1.00
      0.8020000              1.0000000
D    1   1.00
      0.2005000              1.0000000
F    1   1.00
      0.5000000              1.0000000
****
C     0
S    6   1.00
   3047.5249000              0.0018347
    457.3695100              0.0140373
    103.9486900              0.0688426
     29.2101550              0.2321844
      9.2866630              0.4679413
      3.1639270              0.3623120
SP   3   1.00
      7.8682724             -0.1193324              0.0689991
      1.8812885             -0.1608542              0.3164240
      0.5442493              1.1434564              0.7443083
SP   1   1.00
      0.1687144              1.0000000              1.0000000
D    1   1.00
      1.2520000              1.0000000
D    1   1.00
      0.3130000              1.0000000
F    1   1.00
      0.8000000              1.0000000
****
N     0
S    6   1.00
   4173.5110000              0.0018348
    627.4579000              0.0139950
    142.9021000              0.0685870
     40.2343300              0.2322410
     12.8202100              0.4690700
      4.3904370              0.3604550
SP   3   1.00
     11.6263580             -0.1149610              0.0675800
      2.7162800             -0.1691180              0.3239070
      0.7722180              1.1458520              0.7408950
SP   1   1.00
      0.2120313              1.0000000              1.0000000
D    1   1.00
      1.8260000              1.0000000
D    1   1.00
      0.4565000              1.0000000
F    1   1.00
      1.0000000              1.0000000
****
O     0
S    6   1.00
   5484.6717000              0.0018311
    825.2349500              0.0139501
    188.0469600              0.0684451
     52.9645000              0.2327143
     16.8975700              0.4701930
      5.7996353              0.3585209
SP   3   1.00
     15.5396160             -0.1107775              0.0708743
      3.5999336             -0.1480263              0.3397528
      1.0137618              1.1307670              0.7271586
SP   1   1.00
      0.2700058              1.0000000              1.0000000
D    1   1.00
      2.5840000              1.0000000
D    1   1.00
      0.6460000              1.0000000
F    1   1.00
      1.4000000              1.0000000
****
F     0
S    6   1.00
   7001.7130900              0.0018196169
   1051.3660900              0.0139160796
    239.2856900              0.0684053245
     67.3974453              0.233185760
     21.5199573              0.471267439
      7.40310130             0.356618546
SP   3   1.00
     20.8479528             -0.108506975            0.0716287243
      4.80830834            -0.146451658            0.3459121030
      1.34406986             1.128688580            0.7224699570
SP   1   1.00
      0.358151393            1.0000000              1.0000000
D    1   1.00
      3.5000000              1.0000000
D    1   1.00
      0.8750000              1.0000000
F    1   1.00
      1.8500000              1.0000000
****
Al     0
S    6   1.00
  13983.1000000              0.00194267
   2098.7500000              0.0148599
    477.7050000              0.0728494
    134.3600000              0.2468300
     42.8709000              0.4872580
     14.5189000              0.3234960
SP   6   1.00
    239.6680000             -0.00292619             0.00460285
     57.4419000             -0.0374080              0.0331990
     18.2859000             -0.1144870              0.1362820
      6.5991400              0.1156350              0.3304760
      2.4904900              0.6125950              0.4491460
      0.9445400              0.3937990              0.2657040
SP   3   1.00
      1.2779000             -0.2276060             -0.0175130
      0.3975900              0.00144583             0.2445330
      0.1600950              1.0927900              0.8049340
SP   1   1.00
      0.0556577              1.0000000              1.0000000
D    1   1.00
      0.6500000              1.0000000
D    1   1.00
      0.1625000              1.0000000
F    1   1.00
      0.2500000              1.0000000
****
Si     0
S    6   1.00
  16115.9000000              0.00195948
   2425.5800000              0.01492880
    553.8670000              0.07284780
    156.3400000              0.24613000
     50.0683000              0.48591400
     17.0178000              0.32500200
SP   6   1.00
    292.7180000             -0.00278094             0.00443826
     69.8731000             -0.03571460             0.03266790
     22.3363000             -0.11498500             0.13472100
      8.1503900              0.09356340             0.32867800
      3.1345800              0.60301700             0.44964000
      1.2254300              0.41895900             0.26137200
SP   3   1.00
      1.7273800             -0.24463000            -0.01779510
      0.5729220              0.00431572             0.25353900
      0.2221920              1.09818000             0.80066900
SP   1   1.00
      0.0778369              1.00000000             1.00000000
D    1   1.00
      0.9000000              1.0000000
D    1   1.00
      0.2250000              1.0000000
F    1   1.00
      0.3200000              1.0000000
****
P     0
S    6   1.00
  19413.3000000              0.0018516
   2909.4200000              0.0142062
    661.3640000              0.0699995
    185.7590000              0.2400790
     59.1943000              0.4847620
     20.0310000              0.3352000
SP   6   1.00
    339.4780000             -0.00278217             0.00456462
     81.0101000             -0.0360499              0.03369360
     25.8780000             -0.1166310              0.13975500
      9.4522100              0.0968328              0.33936200
      3.6656600              0.6144180              0.45092100
      1.4674600              0.4037980              0.23858600
SP   3   1.00
      2.1562300             -0.2529230             -0.01776530
      0.7489970              0.0328517              0.27405800
      0.2831450              1.0812500              0.78542100
SP   1   1.00
      0.0998317              1.0000000              1.00000000
D    1   1.00
      1.1000000              1.0000000
D    1   1.00
      0.2750000              1.0000000
F    1   1.00
      0.4500000              1.0000000
****
S     0
S    6   1.00
  21917.1000000              0.0018690
   3301.4900000              0.0142300
    754.1460000              0.0696960
    212.7110000              0.2384870
     67.9896000              0.4833070
     23.0515000              0.3380740
SP   6   1.00
    423.7350000             -0.0023767              0.0040610
    100.7100000             -0.0316930              0.0306810
     32.1599000             -0.1133170              0.1304520
     11.8079000              0.0560900              0.3272050
      4.6311000              0.5922550              0.4528510
      1.8702500              0.4550060              0.2560420
SP   3   1.00
      2.6158400             -0.2503740             -0.0145110
      0.9221670              0.0669570              0.3102630
      0.3412870              1.0545100              0.7544830
SP   1   1.00
      0.1171670              1.0000000              1.0000000
D    1   1.00
      1.3000000              1.0000000
D    1   1.00
      0.3250000              1.0000000
F    1   1.00
      0.5500000              1.0000000
****
Cl     0
S    6   1.00
  25180.1000000              0.0018330
   3780.3500000              0.0140340
    860.4740000              0.0690970
    242.1450000              0.2374520
     77.3349000              0.4830340
     26.2470000              0.3398560
SP   6   1.00
    491.7650000             -0.0022974              0.0039894
    116.9840000             -0.0307140              0.0303180
     37.4153000             -0.1125280              0.1298800
     13.7834000              0.0450160              0.3279510
      5.4521500              0.5893530              0.4535270
      2.2258800              0.4652060              0.2521540
SP   3   1.00
      3.1864900             -0.2518300             -0.0142990
      1.1442700              0.0615890              0.3235720
      0.4203770              1.0601800              0.7435070
SP   1   1.00
      0.1426570              1.0000000              1.0000000
D    1   1.00
      1.5000000              1.0000000
D    1   1.00
      0.3750000              1.0000000
F    1   1.00
      0.7000000              1.0000000
****
}

set {
reference uhf
freeze_core true
e_convergence 10
d_convergence 10
dft_spherical_points 1202
dft_radial_points 99
}

e = energy('b3lyp')

print_out('Grab this energy {0}'.format(e))
--------------------------------------------------------------------------

    Molecular point group: c1

    Geometry (in Bohr), charge = 0, multiplicity = 2:

       Center              X                  Y                   Z               Mass
    ------------   -----------------  -----------------  -----------------  -----------------
         C           -0.323334829354     0.000002499959    -0.003410094079    12.000000000000
         C            0.060534049446    -1.406641418341    -2.429006568179    12.000000000000
         C            0.061016718346     2.801744733659     0.007364332621    12.000000000000
         C            0.061746615446    -1.395101003241     2.423746811121    12.000000000000
         H            2.089884347346    -1.652659763541    -2.850056286879     1.007825032230
         H           -0.766778060254    -0.394666274741    -4.033773553179     1.007825032230
         H           -0.769798063354    -3.300743606241    -2.346600781579     1.007825032230
         H            2.086791621946     3.288080012959     0.012207997421     1.007825032230
         H           -0.768500344054     3.672146701959     1.686688644321     1.007825032230
         H           -0.762805583754     3.688316880459    -1.666269075579     1.007825032230
         H            2.083988710646    -1.635534748641     2.844811943021     1.007825032230
         H           -0.761352275954    -3.283222786941     2.351353350121     1.007825032230
         H           -0.764028472654    -0.381773711341     4.017182347621     1.007825032230

  Charge       = 0
  Multiplicity = 2
  Basis Set: ANONYMOUSE0F0FD2D
    Blend: 6-31G_2DFP_
  Basis Set: (ANONYMOUSE0F0FD2D AUX)
    Blend: DEF2-UNIVERSAL-JKFIT

    Orbital Energies [Eh]
    ---------------------

    Alpha Occupied:

       1A    -10.180342     2A    -10.167866     3A    -10.167016
       4A    -10.166163     5A     -0.797771     6A     -0.686287
       7A     -0.686084     8A     -0.530777     9A     -0.441129
      10A     -0.435023    11A     -0.434319    12A     -0.382675
      13A     -0.382520    14A     -0.363608    15A     -0.338304
      16A     -0.337694    17A     -0.168961

    Alpha Virtual:

      18A      0.076070    19A      0.133912    20A      0.134387
      21A      0.142595    22A      0.142666    23A      0.154875
      24A      0.178233    25A      0.179327    26A      0.203544
      27A      0.214814    28A      0.275862    29A      0.276111
      30A      0.398985    31A      0.399422    32A      0.403397
      33A      0.424062    34A      0.424141    35A      0.456595
      36A      0.494913    37A      0.495854    38A      0.512179
      39A      0.513986    40A      0.578429    41A      0.579174
      42A      0.591300    43A      0.591947    44A      0.602586
      45A      0.624786    46A      0.631640    47A      0.635719
      48A      0.636915    49A      0.663015    50A      0.663816
      51A      0.683305    52A      0.684419    53A      0.734994
      54A      0.824973    55A      0.825818    56A      0.853895
      57A      0.914802    58A      0.915266    59A      0.944035
      60A      0.944482    61A      0.960919    62A      0.961933
      63A      1.003475    64A      1.126625    65A      1.129606
      66A      1.142238    67A      1.162865    68A      1.163666
      69A      1.223317    70A      1.273789    71A      1.275189
      72A      1.279367    73A      1.323906    74A      1.324787
      75A      1.355989    76A      1.365044    77A      1.367019
      78A      1.392386    79A      1.402905    80A      1.405279
      81A      1.416299    82A      1.417919    83A      1.427953
      84A      1.491420    85A      1.499055    86A      1.542546
      87A      1.543149    88A      1.572924    89A      1.576099
      90A      1.669798    91A      1.738382    92A      1.740338
      93A      1.768399    94A      1.829332    95A      1.833551
      96A      1.971647    97A      2.017592    98A      2.018351
      99A      2.020375   100A      2.050258   101A      2.055230
     102A      2.738307   103A      2.738670   104A      2.790923
     105A      2.811445   106A      2.889771   107A      2.890126
     108A      2.894945   109A      2.929406   110A      2.929550
     111A      2.958990   112A      2.962999   113A      2.965840
     114A      3.034003   115A      3.070015   116A      3.072444
     117A      3.084462   118A      3.168155   119A      3.169444
     120A      3.180582   121A      3.284535   122A      3.286089
     123A      3.326259   124A      3.328073   125A      3.375663
     126A      3.489759   127A      3.490456   128A      3.514059
     129A      3.525384   130A      3.567205   131A      3.569546
     132A      3.575207   133A      3.665485   134A      3.667181
     135A      3.679685   136A      3.694103   137A      3.694144
     138A      3.776545   139A      3.777021   140A      3.789274
     141A      3.910370   142A      3.914103   143A      4.034442
     144A      4.109199   145A      4.113388   146A      4.147630
     147A      4.148344   148A      4.173347   149A      4.200128
     150A      4.202819   151A      4.205990   152A      4.211139
     153A      4.315249   154A      4.316603   155A      4.359013
     156A      4.423981   157A      4.424485   158A      4.443860
     159A      4.515748   160A      4.517879   161A      4.577689
     162A      4.578943   163A      4.617544   164A      4.709502
     165A      4.773194   166A      4.776013   167A      4.836923
     168A      4.962848   169A      5.001431   170A      5.004549
     171A      5.227718   172A      5.242990   173A      5.250662
     174A      5.351902   175A      5.359342   176A      5.479444

    Beta Occupied:

       1A    -10.168625     2A    -10.167775     3A    -10.166934
       4A    -10.166508     5A     -0.781097     6A     -0.684085
       7A     -0.683890     8A     -0.511748     9A     -0.431414
      10A     -0.430672    11A     -0.421825    12A     -0.376759
      13A     -0.376605    14A     -0.362593    15A     -0.333424
      16A     -0.332820

    Beta Virtual:

      17A     -0.025743    18A      0.077079    19A      0.134847
      20A      0.135230    21A      0.144424    22A      0.144579
      23A      0.163335    24A      0.181904    25A      0.182999
      26A      0.215044    27A      0.218927    28A      0.282200
      29A      0.282468    30A      0.400196    31A      0.400594
      32A      0.419798    33A      0.426861    34A      0.426965
      35A      0.468506    36A      0.497171    37A      0.498119
      38A      0.513914    39A      0.556327    40A      0.584000
      41A      0.584702    42A      0.597493    43A      0.598120
      44A      0.609995    45A      0.628173    46A      0.631854
      47A      0.638978    48A      0.640170    49A      0.666539
      50A      0.667419    51A      0.685924    52A      0.687072
      53A      0.757516    54A      0.830156    55A      0.830970
      56A      0.855249    57A      0.922758    58A      0.923252
      59A      0.945898    60A      0.953390    61A      0.966203
      62A      0.967261    63A      1.008711    64A      1.130649
      65A      1.133647    66A      1.155607    67A      1.167919
      68A      1.168758    69A      1.232287    70A      1.279382
      71A      1.280794    72A      1.285119    73A      1.328832
      74A      1.329839    75A      1.365403    76A      1.370198
      77A      1.372350    78A      1.393451    79A      1.406384
      80A      1.408734    81A      1.421296    82A      1.423007
      83A      1.428230    84A      1.492474    85A      1.509498
      86A      1.546895    87A      1.547613    88A      1.580932
      89A      1.583832    90A      1.674642    91A      1.744139
      92A      1.746120    93A      1.779166    94A      1.833199
      95A      1.837395    96A      1.972521    97A      2.023951
      98A      2.026860    99A      2.039672   100A      2.057121
     101A      2.061794   102A      2.746674   103A      2.746975
     104A      2.811857   105A      2.816058   106A      2.902512
     107A      2.902772   108A      2.924642   109A      2.931928
     110A      2.931993   111A      2.960067   112A      2.967524
     113A      2.970386   114A      3.041940   115A      3.079647
     116A      3.082333   117A      3.086593   118A      3.184021
     119A      3.185003   120A      3.188320   121A      3.289378
     122A      3.290851   123A      3.330036   124A      3.331907
     125A      3.383476   126A      3.492512   127A      3.493159
     128A      3.512432   129A      3.528433   130A      3.574934
     131A      3.580636   132A      3.582917   133A      3.670160
     134A      3.672012   135A      3.693025   136A      3.725662
     137A      3.725790   138A      3.781065   139A      3.781632
     140A      3.817747   141A      3.920200   142A      3.923906
     143A      4.045320   144A      4.116232   145A      4.119969
     146A      4.155000   147A      4.155433   148A      4.187389
     149A      4.206307   150A      4.209973   151A      4.212504
     152A      4.215617   153A      4.322829   154A      4.323897
     155A      4.362378   156A      4.432031   157A      4.432690
     158A      4.446929   159A      4.523691   160A      4.525504
     161A      4.588164   162A      4.589670   163A      4.624737
     164A      4.719846   165A      4.780076   166A      4.783032
     167A      4.839843   168A      4.967641   169A      5.005488
     170A      5.008571   171A      5.233412   172A      5.244789
     173A      5.252458   174A      5.358377   175A      5.365824
     176A      5.481765

    Final Occupation by Irrep:
              A
    DOCC [    16 ]
    SOCC [     1 ]

  @DF-UKS Final Energy:  -157.81304841301287

   => Energetics <=

    Nuclear Repulsion Energy =            125.3949009031668425
    One-Electron Energy =                -458.7494152556624272
    Two-Electron Energy =                 195.8486164366887294
    DFT Exchange-Correlation Energy =     -20.3071504972060097
    Empirical Dispersion Energy =           0.0000000000000000
    VV10 Nonlocal Energy =                  0.0000000000000000
    Total Energy =                       -157.8130484130128650

  UHF NO Occupations:
  HONO-2 :   15  A 1.9996009
  HONO-1 :   16  A 1.9989804
  HONO-0 :   17  A 1.0000000
  LUNO+0 :   18  A 0.0010196
  LUNO+1 :   19  A 0.0003991
  LUNO+2 :   20  A 0.0001978
  LUNO+3 :   21  A 0.0001973

Computation Completed

Properties will be evaluated at   0.000000,   0.000000,   0.000000 [a0]

Properties computed using the SCF density matrix

  Nuclear Dipole Moment: [e a0]
     X:     0.8272      Y:    -0.0000      Z:     0.0077

  Electronic Dipole Moment: [e a0]
     X:    -0.7493      Y:     0.0000      Z:    -0.0060

  Dipole Moment: [e a0]
     X:     0.0779      Y:    -0.0000      Z:     0.0017     Total:     0.0779

  Dipole Moment: [D]
     X:     0.1980      Y:    -0.0000      Z:     0.0043     Total:     0.1981

*** tstop() called on n054 at Fri Nov  5 15:08:23 2021
Module time:
	user time   =     545.31 seconds =       9.09 minutes
	system time =      11.99 seconds =       0.20 minutes
	total time  =        141 seconds =       2.35 minutes
Total time:
	user time   =     545.31 seconds =       9.09 minutes
	system time =      11.99 seconds =       0.20 minutes
	total time  =        141 seconds =       2.35 minutes
Grab this energy -157.81304841301287
    Psi4 stopped on: Friday, 05 November 2021 03:08PM
    Psi4 wall time for execution: 0:02:20.12

*** Psi4 exiting successfully. Buy a developer a beer!
