                               Psi4 1.4a2.dev629

  ==> Input File <==

--------------------------------------------------------------------------
import os
memory 14 GB

molecule {
 C   -0.3215525324    0.0000052263    0.0050004185
 C    0.0622237183   -1.3946154043   -2.4217740721
 C    0.0615781663    2.8014875162   -0.0062294453
 C    0.0611771897   -1.4068648083    2.4305316068
 H    2.0872808008   -1.6383112783   -2.8485786147
 H   -0.7662702162   -0.3768444512   -4.0159966949
 H   -0.7636891228   -3.2850901332   -2.3456996675
 H    2.0864590867    3.2941117761   -0.0111585304
 H   -0.7633091347    3.6846003743    1.6676062621
 H   -0.7688078419    3.6694053497   -1.6864749969
 H    2.0859247910   -1.6559069043    2.8567378261
 H   -0.7682705579   -3.2966188653    2.3461200836
 H   -0.7653522234   -0.3953827114    4.0299158248
units bohr
0 2
}

basis {

assign 6-31g_2dfp_

[ 6-31g_2dfp_ ]

spherical

!----------------------------------------------------------------------
! Basis Set Exchange
! Version v0.8.13
! https://www.basissetexchange.org
!----------------------------------------------------------------------
!   Basis set: 6-31G(2df,p)
! Description: 6-31G(2df,p)
!        Role: orbital
!     Version: 0  (Data from the original Basis Set Exchange)
!----------------------------------------------------------------------

****
H     0
S    3   1.00
     18.7311370              0.03349460
      2.8253937              0.23472695
      0.6401217              0.81375733
S    1   1.00
      0.1612778              1.00000000
P    1   1.00
      1.5000000              1.0000000
P    1   1.00
      0.3750000              1.0000000
****
B     0
S    6   1.00
   2068.8823000              0.0018663
    310.6495700              0.0142515
     70.6830330              0.0695516
     19.8610800              0.2325729
      6.2993048              0.4670787
      2.1270270              0.3634314
SP   3   1.00
      4.7279710             -0.1303938              0.0745976
      1.1903377             -0.1307889              0.3078467
      0.3594117              1.1309444              0.7434568
SP   1   1.00
      0.1267512              1.0000000              1.0000000
D    1   1.00
      0.8020000              1.0000000
D    1   1.00
      0.2005000              1.0000000
F    1   1.00
      0.5000000              1.0000000
****
C     0
S    6   1.00
   3047.5249000              0.0018347
    457.3695100              0.0140373
    103.9486900              0.0688426
     29.2101550              0.2321844
      9.2866630              0.4679413
      3.1639270              0.3623120
SP   3   1.00
      7.8682724             -0.1193324              0.0689991
      1.8812885             -0.1608542              0.3164240
      0.5442493              1.1434564              0.7443083
SP   1   1.00
      0.1687144              1.0000000              1.0000000
D    1   1.00
      1.2520000              1.0000000
D    1   1.00
      0.3130000              1.0000000
F    1   1.00
      0.8000000              1.0000000
****
N     0
S    6   1.00
   4173.5110000              0.0018348
    627.4579000              0.0139950
    142.9021000              0.0685870
     40.2343300              0.2322410
     12.8202100              0.4690700
      4.3904370              0.3604550
SP   3   1.00
     11.6263580             -0.1149610              0.0675800
      2.7162800             -0.1691180              0.3239070
      0.7722180              1.1458520              0.7408950
SP   1   1.00
      0.2120313              1.0000000              1.0000000
D    1   1.00
      1.8260000              1.0000000
D    1   1.00
      0.4565000              1.0000000
F    1   1.00
      1.0000000              1.0000000
****
O     0
S    6   1.00
   5484.6717000              0.0018311
    825.2349500              0.0139501
    188.0469600              0.0684451
     52.9645000              0.2327143
     16.8975700              0.4701930
      5.7996353              0.3585209
SP   3   1.00
     15.5396160             -0.1107775              0.0708743
      3.5999336             -0.1480263              0.3397528
      1.0137618              1.1307670              0.7271586
SP   1   1.00
      0.2700058              1.0000000              1.0000000
D    1   1.00
      2.5840000              1.0000000
D    1   1.00
      0.6460000              1.0000000
F    1   1.00
      1.4000000              1.0000000
****
F     0
S    6   1.00
   7001.7130900              0.0018196169
   1051.3660900              0.0139160796
    239.2856900              0.0684053245
     67.3974453              0.233185760
     21.5199573              0.471267439
      7.40310130             0.356618546
SP   3   1.00
     20.8479528             -0.108506975            0.0716287243
      4.80830834            -0.146451658            0.3459121030
      1.34406986             1.128688580            0.7224699570
SP   1   1.00
      0.358151393            1.0000000              1.0000000
D    1   1.00
      3.5000000              1.0000000
D    1   1.00
      0.8750000              1.0000000
F    1   1.00
      1.8500000              1.0000000
****
Al     0
S    6   1.00
  13983.1000000              0.00194267
   2098.7500000              0.0148599
    477.7050000              0.0728494
    134.3600000              0.2468300
     42.8709000              0.4872580
     14.5189000              0.3234960
SP   6   1.00
    239.6680000             -0.00292619             0.00460285
     57.4419000             -0.0374080              0.0331990
     18.2859000             -0.1144870              0.1362820
      6.5991400              0.1156350              0.3304760
      2.4904900              0.6125950              0.4491460
      0.9445400              0.3937990              0.2657040
SP   3   1.00
      1.2779000             -0.2276060             -0.0175130
      0.3975900              0.00144583             0.2445330
      0.1600950              1.0927900              0.8049340
SP   1   1.00
      0.0556577              1.0000000              1.0000000
D    1   1.00
      0.6500000              1.0000000
D    1   1.00
      0.1625000              1.0000000
F    1   1.00
      0.2500000              1.0000000
****
Si     0
S    6   1.00
  16115.9000000              0.00195948
   2425.5800000              0.01492880
    553.8670000              0.07284780
    156.3400000              0.24613000
     50.0683000              0.48591400
     17.0178000              0.32500200
SP   6   1.00
    292.7180000             -0.00278094             0.00443826
     69.8731000             -0.03571460             0.03266790
     22.3363000             -0.11498500             0.13472100
      8.1503900              0.09356340             0.32867800
      3.1345800              0.60301700             0.44964000
      1.2254300              0.41895900             0.26137200
SP   3   1.00
      1.7273800             -0.24463000            -0.01779510
      0.5729220              0.00431572             0.25353900
      0.2221920              1.09818000             0.80066900
SP   1   1.00
      0.0778369              1.00000000             1.00000000
D    1   1.00
      0.9000000              1.0000000
D    1   1.00
      0.2250000              1.0000000
F    1   1.00
      0.3200000              1.0000000
****
P     0
S    6   1.00
  19413.3000000              0.0018516
   2909.4200000              0.0142062
    661.3640000              0.0699995
    185.7590000              0.2400790
     59.1943000              0.4847620
     20.0310000              0.3352000
SP   6   1.00
    339.4780000             -0.00278217             0.00456462
     81.0101000             -0.0360499              0.03369360
     25.8780000             -0.1166310              0.13975500
      9.4522100              0.0968328              0.33936200
      3.6656600              0.6144180              0.45092100
      1.4674600              0.4037980              0.23858600
SP   3   1.00
      2.1562300             -0.2529230             -0.01776530
      0.7489970              0.0328517              0.27405800
      0.2831450              1.0812500              0.78542100
SP   1   1.00
      0.0998317              1.0000000              1.00000000
D    1   1.00
      1.1000000              1.0000000
D    1   1.00
      0.2750000              1.0000000
F    1   1.00
      0.4500000              1.0000000
****
S     0
S    6   1.00
  21917.1000000              0.0018690
   3301.4900000              0.0142300
    754.1460000              0.0696960
    212.7110000              0.2384870
     67.9896000              0.4833070
     23.0515000              0.3380740
SP   6   1.00
    423.7350000             -0.0023767              0.0040610
    100.7100000             -0.0316930              0.0306810
     32.1599000             -0.1133170              0.1304520
     11.8079000              0.0560900              0.3272050
      4.6311000              0.5922550              0.4528510
      1.8702500              0.4550060              0.2560420
SP   3   1.00
      2.6158400             -0.2503740             -0.0145110
      0.9221670              0.0669570              0.3102630
      0.3412870              1.0545100              0.7544830
SP   1   1.00
      0.1171670              1.0000000              1.0000000
D    1   1.00
      1.3000000              1.0000000
D    1   1.00
      0.3250000              1.0000000
F    1   1.00
      0.5500000              1.0000000
****
Cl     0
S    6   1.00
  25180.1000000              0.0018330
   3780.3500000              0.0140340
    860.4740000              0.0690970
    242.1450000              0.2374520
     77.3349000              0.4830340
     26.2470000              0.3398560
SP   6   1.00
    491.7650000             -0.0022974              0.0039894
    116.9840000             -0.0307140              0.0303180
     37.4153000             -0.1125280              0.1298800
     13.7834000              0.0450160              0.3279510
      5.4521500              0.5893530              0.4535270
      2.2258800              0.4652060              0.2521540
SP   3   1.00
      3.1864900             -0.2518300             -0.0142990
      1.1442700              0.0615890              0.3235720
      0.4203770              1.0601800              0.7435070
SP   1   1.00
      0.1426570              1.0000000              1.0000000
D    1   1.00
      1.5000000              1.0000000
D    1   1.00
      0.3750000              1.0000000
F    1   1.00
      0.7000000              1.0000000
****
}

set {
reference uhf
freeze_core true
e_convergence 10
d_convergence 10
dft_spherical_points 1202
dft_radial_points 99
}

e = energy('b3lyp')

print_out('Grab this energy {0}'.format(e))
--------------------------------------------------------------------------

    Molecular point group: c1

    Geometry (in Bohr), charge = 0, multiplicity = 2:

       Center              X                  Y                   Z               Mass
    ------------   -----------------  -----------------  -----------------  -----------------
         C           -0.322220210423     0.000003242314     0.003550373652    12.000000000000
         C            0.061556040277    -1.394617388286    -2.423224116948    12.000000000000
         C            0.060910488277     2.801485532214    -0.007679490148    12.000000000000
         C            0.060509511677    -1.406866792286     2.429081561952    12.000000000000
         H            2.086613122777    -1.638313262286    -2.850028659548     1.007825032230
         H           -0.766937894223    -0.376846435186    -4.017446739748     1.007825032230
         H           -0.764356800823    -3.285092117186    -2.347149712348     1.007825032230
         H            2.085791408677     3.294109792114    -0.012608575248     1.007825032230
         H           -0.763976812723     3.684598390314     1.666156217252     1.007825032230
         H           -0.769475519923     3.669403365714    -1.687925041748     1.007825032230
         H            2.085257112977    -1.655908888286     2.855287781252     1.007825032230
         H           -0.768938235923    -3.296620849286     2.344670038752     1.007825032230
         H           -0.766019901423    -0.395384695386     4.028465779952     1.007825032230

  Charge       = 0
  Multiplicity = 2
  Basis Set: ANONYMOUS8266ECA7
    Blend: 6-31G_2DFP_
  Basis Set: (ANONYMOUS8266ECA7 AUX)
    Blend: DEF2-UNIVERSAL-JKFIT

    Orbital Energies [Eh]
    ---------------------

    Alpha Occupied:

       1A    -10.180329     2A    -10.167240     3A    -10.166969
       4A    -10.166697     5A     -0.797834     6A     -0.686444
       7A     -0.686002     8A     -0.530788     9A     -0.440956
      10A     -0.435148    11A     -0.434617    12A     -0.382591
      13A     -0.382302    14A     -0.363749    15A     -0.338294
      16A     -0.337745    17A     -0.169051

    Alpha Virtual:

      18A      0.076108    19A      0.133867    20A      0.134345
      21A      0.142556    22A      0.142834    23A      0.155085
      24A      0.178520    25A      0.178966    26A      0.203676
      27A      0.215029    28A      0.275854    29A      0.276196
      30A      0.399278    31A      0.399561    32A      0.403344
      33A      0.423817    34A      0.424083    35A      0.456831
      36A      0.494962    37A      0.495760    38A      0.511984
      39A      0.514045    40A      0.578682    41A      0.579219
      42A      0.591448    43A      0.591462    44A      0.602342
      45A      0.624831    46A      0.632020    47A      0.636121
      48A      0.636561    49A      0.663472    50A      0.663909
      51A      0.683525    52A      0.684015    53A      0.735076
      54A      0.824479    55A      0.826120    56A      0.854260
      57A      0.914937    58A      0.915413    59A      0.943721
      60A      0.944273    61A      0.960852    62A      0.961374
      63A      1.004194    64A      1.127409    65A      1.129745
      66A      1.141609    67A      1.163319    68A      1.164309
      69A      1.223263    70A      1.273949    71A      1.274995
      72A      1.279581    73A      1.324532    74A      1.324715
      75A      1.355577    76A      1.365624    77A      1.367087
      78A      1.392239    79A      1.403003    80A      1.404598
      81A      1.416468    82A      1.417494    83A      1.428542
      84A      1.492033    85A      1.498747    86A      1.542537
      87A      1.543259    88A      1.572029    89A      1.575747
      90A      1.669889    91A      1.738213    92A      1.740318
      93A      1.768205    94A      1.831164    95A      1.832196
      96A      1.971829    97A      2.018044    98A      2.018491
      99A      2.021315   100A      2.050598   101A      2.055721
     102A      2.737807   103A      2.738336   104A      2.791149
     105A      2.811955   106A      2.890015   107A      2.890200
     108A      2.895195   109A      2.929783   110A      2.930112
     111A      2.959050   112A      2.963544   113A      2.965350
     114A      3.034479   115A      3.069797   116A      3.071784
     117A      3.084032   118A      3.167965   119A      3.169507
     120A      3.180722   121A      3.284204   122A      3.285610
     123A      3.327316   124A      3.329224   125A      3.375372
     126A      3.489151   127A      3.490123   128A      3.514249
     129A      3.525466   130A      3.567755   131A      3.569965
     132A      3.576234   133A      3.666214   134A      3.666472
     135A      3.680740   136A      3.693135   137A      3.694033
     138A      3.777087   139A      3.778721   140A      3.788002
     141A      3.910917   142A      3.913765   143A      4.033368
     144A      4.110131   145A      4.112858   146A      4.146233
     147A      4.149526   148A      4.173164   149A      4.202039
     150A      4.202393   151A      4.205505   152A      4.211464
     153A      4.316252   154A      4.316303   155A      4.360140
     156A      4.423760   157A      4.424026   158A      4.444546
     159A      4.516847   160A      4.518497   161A      4.578172
     162A      4.580337   163A      4.618010   164A      4.709762
     165A      4.773654   166A      4.776262   167A      4.835935
     168A      4.963379   169A      5.001851   170A      5.003846
     171A      5.228392   172A      5.246599   173A      5.246919
     174A      5.355379   175A      5.356776   176A      5.479589

    Beta Occupied:

       1A    -10.167998     2A    -10.167730     3A    -10.167462
       4A    -10.166511     5A     -0.781163     6A     -0.684249
       7A     -0.683799     8A     -0.511756     9A     -0.431519
      10A     -0.430972    11A     -0.421659    12A     -0.376676
      13A     -0.376366    14A     -0.362726    15A     -0.333425
      16A     -0.332868

    Beta Virtual:

      17A     -0.025909    18A      0.077113    19A      0.134761
      20A      0.135261    21A      0.144443    22A      0.144709
      23A      0.163594    24A      0.182175    25A      0.182640
      26A      0.215260    27A      0.219020    28A      0.282180
      29A      0.282545    30A      0.400510    31A      0.400741
      32A      0.419746    33A      0.426607    34A      0.426904
      35A      0.468821    36A      0.497235    37A      0.498041
      38A      0.513725    39A      0.556300    40A      0.584288
      41A      0.584762    42A      0.597584    43A      0.597627
      44A      0.609782    45A      0.628216    46A      0.632183
      47A      0.639383    48A      0.639856    49A      0.667033
      50A      0.667520    51A      0.686090    52A      0.686684
      53A      0.757562    54A      0.829653    55A      0.831314
      56A      0.855616    57A      0.922940    58A      0.923443
      59A      0.946133    60A      0.952717    61A      0.966078
      62A      0.966702    63A      1.009461    64A      1.131448
      65A      1.133770    66A      1.154767    67A      1.168353
      68A      1.169410    69A      1.232331    70A      1.279561
      71A      1.280615    72A      1.285403    73A      1.329546
      74A      1.329760    75A      1.364934    76A      1.370754
      77A      1.372420    78A      1.393316    79A      1.406516
      80A      1.408053    81A      1.421463    82A      1.422485
      83A      1.428818    84A      1.493074    85A      1.509168
      86A      1.546830    87A      1.547766    88A      1.580063
      89A      1.583479    90A      1.674738    91A      1.743981
      92A      1.746079    93A      1.778998    94A      1.834999
      95A      1.836067    96A      1.972699    97A      2.024842
      98A      2.027809    99A      2.039445   100A      2.057392
     101A      2.062333   102A      2.746109   103A      2.746728
     104A      2.812372   105A      2.816288   106A      2.902672
     107A      2.902785   108A      2.924888   109A      2.932373
     110A      2.932519   111A      2.960121   112A      2.968155
     113A      2.969897   114A      3.042406   115A      3.079540
     116A      3.081713   117A      3.085983   118A      3.183814
     119A      3.185126   120A      3.188421   121A      3.289048
     122A      3.290322   123A      3.331088   124A      3.333013
     125A      3.383162   126A      3.491951   127A      3.492910
     128A      3.512632   129A      3.528483   130A      3.575599
     131A      3.581276   132A      3.583478   133A      3.670852
     134A      3.671147   135A      3.693981   136A      3.724975
     137A      3.725768   138A      3.781705   139A      3.783384
     140A      3.816472   141A      3.920686   142A      3.923535
     143A      4.044309   144A      4.117046   145A      4.119757
     146A      4.153415   147A      4.156602   148A      4.187191
     149A      4.207996   150A      4.210304   151A      4.211421
     152A      4.216000   153A      4.323694   154A      4.323776
     155A      4.363524   156A      4.431976   157A      4.432213
     158A      4.447448   159A      4.524720   160A      4.526172
     161A      4.588715   162A      4.591041   163A      4.625127
     164A      4.720212   165A      4.780557   166A      4.783236
     167A      4.838857   168A      4.968169   169A      5.005907
     170A      5.007901   171A      5.234091   172A      5.248383
     173A      5.248713   174A      5.361843   175A      5.363276
     176A      5.481915

    Final Occupation by Irrep:
              A
    DOCC [    16 ]
    SOCC [     1 ]

  @DF-UKS Final Energy:  -157.81306988340211

   => Energetics <=

    Nuclear Repulsion Energy =            125.4064654523069606
    One-Electron Energy =                -458.7720310046338454
    Two-Electron Energy =                 195.8599848950970852
    DFT Exchange-Correlation Energy =     -20.3074892261723328
    Empirical Dispersion Energy =           0.0000000000000000
    VV10 Nonlocal Energy =                  0.0000000000000000
    Total Energy =                       -157.8130698834021075

  UHF NO Occupations:
  HONO-2 :   15  A 1.9995995
  HONO-1 :   16  A 1.9989824
  HONO-0 :   17  A 1.0000000
  LUNO+0 :   18  A 0.0010176
  LUNO+1 :   19  A 0.0004005
  LUNO+2 :   20  A 0.0001976
  LUNO+3 :   21  A 0.0001969

Computation Completed

Properties will be evaluated at   0.000000,   0.000000,   0.000000 [a0]

Properties computed using the SCF density matrix

  Nuclear Dipole Moment: [e a0]
     X:     0.8225      Y:    -0.0000      Z:    -0.0102

  Electronic Dipole Moment: [e a0]
     X:    -0.7450      Y:     0.0000      Z:     0.0110

  Dipole Moment: [e a0]
     X:     0.0775      Y:    -0.0000      Z:     0.0008     Total:     0.0775

  Dipole Moment: [D]
     X:     0.1970      Y:    -0.0000      Z:     0.0019     Total:     0.1970

*** tstop() called on n070 at Fri Nov  5 15:41:04 2021
Module time:
	user time   =     574.36 seconds =       9.57 minutes
	system time =      13.45 seconds =       0.22 minutes
	total time  =        148 seconds =       2.47 minutes
Total time:
	user time   =     574.36 seconds =       9.57 minutes
	system time =      13.45 seconds =       0.22 minutes
	total time  =        148 seconds =       2.47 minutes
Grab this energy -157.8130698834021
    Psi4 stopped on: Friday, 05 November 2021 03:41PM
    Psi4 wall time for execution: 0:02:27.93

*** Psi4 exiting successfully. Buy a developer a beer!
