                               Psi4 1.4a2.dev629

  ==> Input File <==

--------------------------------------------------------------------------
import os
memory 14 GB

molecule {
 C   -0.3233389855    0.0004943355   -0.0053442770
 C    0.0616995623   -1.4001076159   -2.4268258153
 C    0.0596422848    2.8018526702   -0.0011079660
 C    0.0619568815   -1.4010172536    2.4261872449
 H    2.0850811211   -1.6442514635   -2.8470310833
 H   -0.7637834339   -0.3863276206   -4.0247562019
 H   -0.7651862150   -3.2942311446   -2.3477992136
 H    2.0909202319    3.2876055134    0.0010010810
 H   -0.7667203164    3.6811543889    1.6741065948
 H   -0.7683892671    3.6794391067   -1.6726420467
 H    2.0846701555   -1.6439082246    2.8484338097
 H   -0.7661188166   -3.2933006776    2.3490065751
 H   -0.7630410792   -0.3874263279    4.0267712983
units bohr
0 2
}

basis {

assign 6-31g_2dfp_

[ 6-31g_2dfp_ ]

spherical

!----------------------------------------------------------------------
! Basis Set Exchange
! Version v0.8.13
! https://www.basissetexchange.org
!----------------------------------------------------------------------
!   Basis set: 6-31G(2df,p)
! Description: 6-31G(2df,p)
!        Role: orbital
!     Version: 0  (Data from the original Basis Set Exchange)
!----------------------------------------------------------------------

****
H     0
S    3   1.00
     18.7311370              0.03349460
      2.8253937              0.23472695
      0.6401217              0.81375733
S    1   1.00
      0.1612778              1.00000000
P    1   1.00
      1.5000000              1.0000000
P    1   1.00
      0.3750000              1.0000000
****
B     0
S    6   1.00
   2068.8823000              0.0018663
    310.6495700              0.0142515
     70.6830330              0.0695516
     19.8610800              0.2325729
      6.2993048              0.4670787
      2.1270270              0.3634314
SP   3   1.00
      4.7279710             -0.1303938              0.0745976
      1.1903377             -0.1307889              0.3078467
      0.3594117              1.1309444              0.7434568
SP   1   1.00
      0.1267512              1.0000000              1.0000000
D    1   1.00
      0.8020000              1.0000000
D    1   1.00
      0.2005000              1.0000000
F    1   1.00
      0.5000000              1.0000000
****
C     0
S    6   1.00
   3047.5249000              0.0018347
    457.3695100              0.0140373
    103.9486900              0.0688426
     29.2101550              0.2321844
      9.2866630              0.4679413
      3.1639270              0.3623120
SP   3   1.00
      7.8682724             -0.1193324              0.0689991
      1.8812885             -0.1608542              0.3164240
      0.5442493              1.1434564              0.7443083
SP   1   1.00
      0.1687144              1.0000000              1.0000000
D    1   1.00
      1.2520000              1.0000000
D    1   1.00
      0.3130000              1.0000000
F    1   1.00
      0.8000000              1.0000000
****
N     0
S    6   1.00
   4173.5110000              0.0018348
    627.4579000              0.0139950
    142.9021000              0.0685870
     40.2343300              0.2322410
     12.8202100              0.4690700
      4.3904370              0.3604550
SP   3   1.00
     11.6263580             -0.1149610              0.0675800
      2.7162800             -0.1691180              0.3239070
      0.7722180              1.1458520              0.7408950
SP   1   1.00
      0.2120313              1.0000000              1.0000000
D    1   1.00
      1.8260000              1.0000000
D    1   1.00
      0.4565000              1.0000000
F    1   1.00
      1.0000000              1.0000000
****
O     0
S    6   1.00
   5484.6717000              0.0018311
    825.2349500              0.0139501
    188.0469600              0.0684451
     52.9645000              0.2327143
     16.8975700              0.4701930
      5.7996353              0.3585209
SP   3   1.00
     15.5396160             -0.1107775              0.0708743
      3.5999336             -0.1480263              0.3397528
      1.0137618              1.1307670              0.7271586
SP   1   1.00
      0.2700058              1.0000000              1.0000000
D    1   1.00
      2.5840000              1.0000000
D    1   1.00
      0.6460000              1.0000000
F    1   1.00
      1.4000000              1.0000000
****
F     0
S    6   1.00
   7001.7130900              0.0018196169
   1051.3660900              0.0139160796
    239.2856900              0.0684053245
     67.3974453              0.233185760
     21.5199573              0.471267439
      7.40310130             0.356618546
SP   3   1.00
     20.8479528             -0.108506975            0.0716287243
      4.80830834            -0.146451658            0.3459121030
      1.34406986             1.128688580            0.7224699570
SP   1   1.00
      0.358151393            1.0000000              1.0000000
D    1   1.00
      3.5000000              1.0000000
D    1   1.00
      0.8750000              1.0000000
F    1   1.00
      1.8500000              1.0000000
****
Al     0
S    6   1.00
  13983.1000000              0.00194267
   2098.7500000              0.0148599
    477.7050000              0.0728494
    134.3600000              0.2468300
     42.8709000              0.4872580
     14.5189000              0.3234960
SP   6   1.00
    239.6680000             -0.00292619             0.00460285
     57.4419000             -0.0374080              0.0331990
     18.2859000             -0.1144870              0.1362820
      6.5991400              0.1156350              0.3304760
      2.4904900              0.6125950              0.4491460
      0.9445400              0.3937990              0.2657040
SP   3   1.00
      1.2779000             -0.2276060             -0.0175130
      0.3975900              0.00144583             0.2445330
      0.1600950              1.0927900              0.8049340
SP   1   1.00
      0.0556577              1.0000000              1.0000000
D    1   1.00
      0.6500000              1.0000000
D    1   1.00
      0.1625000              1.0000000
F    1   1.00
      0.2500000              1.0000000
****
Si     0
S    6   1.00
  16115.9000000              0.00195948
   2425.5800000              0.01492880
    553.8670000              0.07284780
    156.3400000              0.24613000
     50.0683000              0.48591400
     17.0178000              0.32500200
SP   6   1.00
    292.7180000             -0.00278094             0.00443826
     69.8731000             -0.03571460             0.03266790
     22.3363000             -0.11498500             0.13472100
      8.1503900              0.09356340             0.32867800
      3.1345800              0.60301700             0.44964000
      1.2254300              0.41895900             0.26137200
SP   3   1.00
      1.7273800             -0.24463000            -0.01779510
      0.5729220              0.00431572             0.25353900
      0.2221920              1.09818000             0.80066900
SP   1   1.00
      0.0778369              1.00000000             1.00000000
D    1   1.00
      0.9000000              1.0000000
D    1   1.00
      0.2250000              1.0000000
F    1   1.00
      0.3200000              1.0000000
****
P     0
S    6   1.00
  19413.3000000              0.0018516
   2909.4200000              0.0142062
    661.3640000              0.0699995
    185.7590000              0.2400790
     59.1943000              0.4847620
     20.0310000              0.3352000
SP   6   1.00
    339.4780000             -0.00278217             0.00456462
     81.0101000             -0.0360499              0.03369360
     25.8780000             -0.1166310              0.13975500
      9.4522100              0.0968328              0.33936200
      3.6656600              0.6144180              0.45092100
      1.4674600              0.4037980              0.23858600
SP   3   1.00
      2.1562300             -0.2529230             -0.01776530
      0.7489970              0.0328517              0.27405800
      0.2831450              1.0812500              0.78542100
SP   1   1.00
      0.0998317              1.0000000              1.00000000
D    1   1.00
      1.1000000              1.0000000
D    1   1.00
      0.2750000              1.0000000
F    1   1.00
      0.4500000              1.0000000
****
S     0
S    6   1.00
  21917.1000000              0.0018690
   3301.4900000              0.0142300
    754.1460000              0.0696960
    212.7110000              0.2384870
     67.9896000              0.4833070
     23.0515000              0.3380740
SP   6   1.00
    423.7350000             -0.0023767              0.0040610
    100.7100000             -0.0316930              0.0306810
     32.1599000             -0.1133170              0.1304520
     11.8079000              0.0560900              0.3272050
      4.6311000              0.5922550              0.4528510
      1.8702500              0.4550060              0.2560420
SP   3   1.00
      2.6158400             -0.2503740             -0.0145110
      0.9221670              0.0669570              0.3102630
      0.3412870              1.0545100              0.7544830
SP   1   1.00
      0.1171670              1.0000000              1.0000000
D    1   1.00
      1.3000000              1.0000000
D    1   1.00
      0.3250000              1.0000000
F    1   1.00
      0.5500000              1.0000000
****
Cl     0
S    6   1.00
  25180.1000000              0.0018330
   3780.3500000              0.0140340
    860.4740000              0.0690970
    242.1450000              0.2374520
     77.3349000              0.4830340
     26.2470000              0.3398560
SP   6   1.00
    491.7650000             -0.0022974              0.0039894
    116.9840000             -0.0307140              0.0303180
     37.4153000             -0.1125280              0.1298800
     13.7834000              0.0450160              0.3279510
      5.4521500              0.5893530              0.4535270
      2.2258800              0.4652060              0.2521540
SP   3   1.00
      3.1864900             -0.2518300             -0.0142990
      1.1442700              0.0615890              0.3235720
      0.4203770              1.0601800              0.7435070
SP   1   1.00
      0.1426570              1.0000000              1.0000000
D    1   1.00
      1.5000000              1.0000000
D    1   1.00
      0.3750000              1.0000000
F    1   1.00
      0.7000000              1.0000000
****
}

set {
reference uhf
freeze_core true
e_convergence 10
d_convergence 10
dft_spherical_points 1202
dft_radial_points 99
}

e = energy('b3lyp')

print_out('Grab this energy {0}'.format(e))
--------------------------------------------------------------------------

    Molecular point group: c1

    Geometry (in Bohr), charge = 0, multiplicity = 2:

       Center              X                  Y                   Z               Mass
    ------------   -----------------  -----------------  -----------------  -----------------
         C           -0.323338933102     0.000259372627    -0.003978535267    12.000000000000
         C            0.061699614698    -1.400342578773    -2.425460073567    12.000000000000
         C            0.059642337198     2.801617707327     0.000257775733    12.000000000000
         C            0.061956933898    -1.401252216473     2.427552986633    12.000000000000
         H            2.085081173498    -1.644486426373    -2.845665341567     1.007825032230
         H           -0.763783381502    -0.386562583473    -4.023390460167     1.007825032230
         H           -0.765186162602    -3.294466107473    -2.346433471867     1.007825032230
         H            2.090920284298     3.287370550527     0.002366822733     1.007825032230
         H           -0.766720264002     3.680919426027     1.675472336533     1.007825032230
         H           -0.768389214702     3.679204143827    -1.671276304967     1.007825032230
         H            2.084670207898    -1.644143187473     2.849799551433     1.007825032230
         H           -0.766118764202    -3.293535640473     2.350372316833     1.007825032230
         H           -0.763041026802    -0.387661290773     4.028137040033     1.007825032230

  Charge       = 0
  Multiplicity = 2
  Basis Set: ANONYMOUS89934A97
    Blend: 6-31G_2DFP_
  Basis Set: (ANONYMOUS89934A97 AUX)
    Blend: DEF2-UNIVERSAL-JKFIT

    Orbital Energies [Eh]
    ---------------------

    Alpha Occupied:

       1A    -10.180342     2A    -10.167052     3A    -10.167028
       4A    -10.166964     5A     -0.797769     6A     -0.686377
       7A     -0.685999     8A     -0.530777     9A     -0.441133
      10A     -0.434887    11A     -0.434449    12A     -0.382718
      13A     -0.382481    14A     -0.363609    15A     -0.338519
      16A     -0.337477    17A     -0.168960

    Alpha Virtual:

      18A      0.076071    19A      0.133985    20A      0.134323
      21A      0.142440    22A      0.142810    23A      0.154881
      24A      0.178694    25A      0.178865    26A      0.203544
      27A      0.214803    28A      0.275687    29A      0.276284
      30A      0.399101    31A      0.399356    32A      0.403344
      33A      0.424013    34A      0.424182    35A      0.456592
      36A      0.495236    37A      0.495539    38A      0.512161
      39A      0.513980    40A      0.578548    41A      0.579078
      42A      0.591483    43A      0.591792    44A      0.602584
      45A      0.624751    46A      0.631755    47A      0.636071
      48A      0.636457    49A      0.663044    50A      0.663794
      51A      0.683671    52A      0.684037    53A      0.734995
      54A      0.825293    55A      0.825512    56A      0.853922
      57A      0.914785    58A      0.915257    59A      0.944126
      60A      0.944616    61A      0.961083    62A      0.961509
      63A      1.003453    64A      1.127842    65A      1.128334
      66A      1.142256    67A      1.162863    68A      1.163680
      69A      1.223330    70A      1.273997    71A      1.274968
      72A      1.279368    73A      1.324253    74A      1.324459
      75A      1.355961    76A      1.365785    77A      1.366319
      78A      1.392439    79A      1.403595    80A      1.404512
      81A      1.416492    82A      1.417746    83A      1.427925
      84A      1.491487    85A      1.499077    86A      1.542388
      87A      1.543295    88A      1.574287    89A      1.574604
      90A      1.669817    91A      1.739129    92A      1.739677
      93A      1.768349    94A      1.830548    95A      1.832240
      96A      1.971717    97A      2.017904    98A      2.018717
      99A      2.019783   100A      2.051583   101A      2.053740
     102A      2.738013   103A      2.738960   104A      2.790926
     105A      2.811422   106A      2.889376   107A      2.890497
     108A      2.894965   109A      2.929107   110A      2.929887
     111A      2.958993   112A      2.964014   113A      2.964745
     114A      3.034009   115A      3.070780   116A      3.071791
     117A      3.084364   118A      3.168495   119A      3.169014
     120A      3.180669   121A      3.284872   122A      3.285753
     123A      3.326724   124A      3.327586   125A      3.375613
     126A      3.489583   127A      3.490703   128A      3.514024
     129A      3.525334   130A      3.568113   131A      3.568666
     132A      3.575157   133A      3.665596   134A      3.667171
     135A      3.679653   136A      3.693939   137A      3.694303
     138A      3.776035   139A      3.777545   140A      3.789179
     141A      3.911756   142A      3.912702   143A      4.034418
     144A      4.110800   145A      4.111906   146A      4.146983
     147A      4.149200   148A      4.173247   149A      4.201812
     150A      4.202524   151A      4.204419   152A      4.210943
     153A      4.314972   154A      4.317024   155A      4.358985
     156A      4.424139   157A      4.424775   158A      4.443438
     159A      4.516153   160A      4.517544   161A      4.577842
     162A      4.578388   163A      4.617862   164A      4.709466
     165A      4.773874   166A      4.775344   167A      4.836887
     168A      4.962829   169A      5.002179   170A      5.003767
     171A      5.228008   172A      5.244751   173A      5.248874
     174A      5.354214   175A      5.356860   176A      5.479376

    Beta Occupied:

       1A    -10.167807     2A    -10.167785     3A    -10.167732
       4A    -10.166519     5A     -0.781094     6A     -0.684167
       7A     -0.683813     8A     -0.511749     9A     -0.431254
      10A     -0.430838    11A     -0.421816    12A     -0.376772
      13A     -0.376598    14A     -0.362592    15A     -0.333652
      16A     -0.332591

    Beta Virtual:

      17A     -0.025743    18A      0.077080    19A      0.134887
      20A      0.135201    21A      0.144328    22A      0.144664
      23A      0.163338    24A      0.182345    25A      0.182556
      26A      0.215033    27A      0.218927    28A      0.282067
      29A      0.282599    30A      0.400273    31A      0.400522
      32A      0.419790    33A      0.426824    34A      0.426993
      35A      0.468499    36A      0.497489    37A      0.497809
      38A      0.513896    39A      0.556321    40A      0.584091
      41A      0.584638    42A      0.597641    43A      0.597994
      44A      0.610005    45A      0.628126    46A      0.631920
      47A      0.639344    48A      0.639747    49A      0.666641
      50A      0.667327    51A      0.686324    52A      0.686655
      53A      0.757517    54A      0.830464    55A      0.830677
      56A      0.855276    57A      0.922754    58A      0.923229
      59A      0.945963    60A      0.953545    61A      0.966365
      62A      0.966839    63A      1.008693    64A      1.131907
      65A      1.132344    66A      1.155613    67A      1.167931
      68A      1.168761    69A      1.232302    70A      1.279636
      71A      1.280523    72A      1.285122    73A      1.329254
      74A      1.329437    75A      1.365371    76A      1.371081
      77A      1.371513    78A      1.393499    79A      1.407010
      80A      1.408026    81A      1.421531    82A      1.422806
      83A      1.428198    84A      1.492535    85A      1.509520
      86A      1.546808    87A      1.547689    88A      1.582173
      89A      1.582463    90A      1.674664    91A      1.744895
      92A      1.745441    93A      1.779121    94A      1.834391
      95A      1.836108    96A      1.972578    97A      2.024705
      98A      2.026189    99A      2.039674   100A      2.058353
     101A      2.060413   102A      2.746340   103A      2.747304
     104A      2.811834   105A      2.816062   106A      2.902160
     107A      2.903110   108A      2.924645   109A      2.931535
     110A      2.932424   111A      2.960058   112A      2.968549
     113A      2.969302   114A      3.041942   115A      3.080747
     116A      3.081619   117A      3.086204   118A      3.184048
     119A      3.184845   120A      3.188468   121A      3.289689
     122A      3.290533   123A      3.330515   124A      3.331406
     125A      3.383431   126A      3.492312   127A      3.493430
     128A      3.512395   129A      3.528380   130A      3.574988
     131A      3.581493   132A      3.581997   133A      3.670321
     134A      3.671938   135A      3.692950   136A      3.725514
     137A      3.725988   138A      3.780592   139A      3.782069
     140A      3.817688   141A      3.921573   142A      3.922524
     143A      4.045305   144A      4.117659   145A      4.118679
     146A      4.154237   147A      4.156371   148A      4.187296
     149A      4.207941   150A      4.209401   151A      4.211260
     152A      4.215421   153A      4.322371   154A      4.324500
     155A      4.362348   156A      4.432354   157A      4.432983
     158A      4.446328   159A      4.523932   160A      4.525346
     161A      4.588409   162A      4.588999   163A      4.625079
     164A      4.719812   165A      4.780799   166A      4.782326
     167A      4.839804   168A      4.967622   169A      5.006241
     170A      5.007787   171A      5.233722   172A      5.246548
     173A      5.250647   174A      5.360673   175A      5.363362
     176A      5.481697

    Final Occupation by Irrep:
              A
    DOCC [    16 ]
    SOCC [     1 ]

  @DF-UKS Final Energy:  -157.81305453376805

   => Energetics <=

    Nuclear Repulsion Energy =            125.3947169928021736
    One-Electron Energy =                -458.7490531601281987
    Two-Electron Energy =                 195.8484304947245676
    DFT Exchange-Correlation Energy =     -20.3071488611665742
    Empirical Dispersion Energy =           0.0000000000000000
    VV10 Nonlocal Energy =                  0.0000000000000000
    Total Energy =                       -157.8130545337680530

  UHF NO Occupations:
  HONO-2 :   15  A 1.9996008
  HONO-1 :   16  A 1.9989804
  HONO-0 :   17  A 1.0000000
  LUNO+0 :   18  A 0.0010196
  LUNO+1 :   19  A 0.0003992
  LUNO+2 :   20  A 0.0001986
  LUNO+3 :   21  A 0.0001965

Computation Completed

Properties will be evaluated at   0.000000,   0.000000,   0.000000 [a0]

Properties computed using the SCF density matrix

  Nuclear Dipole Moment: [e a0]
     X:     0.8272      Y:    -0.0017      Z:     0.0096

  Electronic Dipole Moment: [e a0]
     X:    -0.7493      Y:     0.0023      Z:    -0.0108

  Dipole Moment: [e a0]
     X:     0.0779      Y:     0.0006      Z:    -0.0012     Total:     0.0779

  Dipole Moment: [D]
     X:     0.1980      Y:     0.0016      Z:    -0.0031     Total:     0.1981

*** tstop() called on n061 at Fri Nov  5 13:53:23 2021
Module time:
	user time   =     545.97 seconds =       9.10 minutes
	system time =      12.06 seconds =       0.20 minutes
	total time  =        141 seconds =       2.35 minutes
Total time:
	user time   =     545.97 seconds =       9.10 minutes
	system time =      12.06 seconds =       0.20 minutes
	total time  =        141 seconds =       2.35 minutes
Grab this energy -157.81305453376805
    Psi4 stopped on: Friday, 05 November 2021 01:53PM
    Psi4 wall time for execution: 0:02:20.35

*** Psi4 exiting successfully. Buy a developer a beer!
