                               Psi4 1.4a2.dev629

  ==> Input File <==

--------------------------------------------------------------------------
import os
memory 14 GB

molecule {
 C   -0.3251106714   -0.0050075110   -0.0000000000
 C    0.0602820375   -1.3983121183   -2.4327137967
 C    0.0610683274    2.7940973906    0.0000000000
 C    0.0602820375   -1.3983121183    2.4327137967
 H    2.0868655581   -1.6350200145   -2.8509820251
 H   -0.7679168427   -0.3818566781   -4.0298546774
 H   -0.7632869194   -3.2913725571   -2.3652115011
 H    2.0878913864    3.2729083903    0.0000000000
 H   -0.7641722929    3.6755500763    1.6757428967
 H   -0.7641722929    3.6755500763   -1.6757428967
 H    2.0868655581   -1.6350200145    2.8509820251
 H   -0.7632869194   -3.2913725571    2.3652115011
 H   -0.7679168427   -0.3818566781    4.0298546774
units bohr
0 2
}

basis {

assign 6-31g_2dfp_

[ 6-31g_2dfp_ ]

spherical

!----------------------------------------------------------------------
! Basis Set Exchange
! Version v0.8.13
! https://www.basissetexchange.org
!----------------------------------------------------------------------
!   Basis set: 6-31G(2df,p)
! Description: 6-31G(2df,p)
!        Role: orbital
!     Version: 0  (Data from the original Basis Set Exchange)
!----------------------------------------------------------------------

****
H     0
S    3   1.00
     18.7311370              0.03349460
      2.8253937              0.23472695
      0.6401217              0.81375733
S    1   1.00
      0.1612778              1.00000000
P    1   1.00
      1.5000000              1.0000000
P    1   1.00
      0.3750000              1.0000000
****
B     0
S    6   1.00
   2068.8823000              0.0018663
    310.6495700              0.0142515
     70.6830330              0.0695516
     19.8610800              0.2325729
      6.2993048              0.4670787
      2.1270270              0.3634314
SP   3   1.00
      4.7279710             -0.1303938              0.0745976
      1.1903377             -0.1307889              0.3078467
      0.3594117              1.1309444              0.7434568
SP   1   1.00
      0.1267512              1.0000000              1.0000000
D    1   1.00
      0.8020000              1.0000000
D    1   1.00
      0.2005000              1.0000000
F    1   1.00
      0.5000000              1.0000000
****
C     0
S    6   1.00
   3047.5249000              0.0018347
    457.3695100              0.0140373
    103.9486900              0.0688426
     29.2101550              0.2321844
      9.2866630              0.4679413
      3.1639270              0.3623120
SP   3   1.00
      7.8682724             -0.1193324              0.0689991
      1.8812885             -0.1608542              0.3164240
      0.5442493              1.1434564              0.7443083
SP   1   1.00
      0.1687144              1.0000000              1.0000000
D    1   1.00
      1.2520000              1.0000000
D    1   1.00
      0.3130000              1.0000000
F    1   1.00
      0.8000000              1.0000000
****
N     0
S    6   1.00
   4173.5110000              0.0018348
    627.4579000              0.0139950
    142.9021000              0.0685870
     40.2343300              0.2322410
     12.8202100              0.4690700
      4.3904370              0.3604550
SP   3   1.00
     11.6263580             -0.1149610              0.0675800
      2.7162800             -0.1691180              0.3239070
      0.7722180              1.1458520              0.7408950
SP   1   1.00
      0.2120313              1.0000000              1.0000000
D    1   1.00
      1.8260000              1.0000000
D    1   1.00
      0.4565000              1.0000000
F    1   1.00
      1.0000000              1.0000000
****
O     0
S    6   1.00
   5484.6717000              0.0018311
    825.2349500              0.0139501
    188.0469600              0.0684451
     52.9645000              0.2327143
     16.8975700              0.4701930
      5.7996353              0.3585209
SP   3   1.00
     15.5396160             -0.1107775              0.0708743
      3.5999336             -0.1480263              0.3397528
      1.0137618              1.1307670              0.7271586
SP   1   1.00
      0.2700058              1.0000000              1.0000000
D    1   1.00
      2.5840000              1.0000000
D    1   1.00
      0.6460000              1.0000000
F    1   1.00
      1.4000000              1.0000000
****
F     0
S    6   1.00
   7001.7130900              0.0018196169
   1051.3660900              0.0139160796
    239.2856900              0.0684053245
     67.3974453              0.233185760
     21.5199573              0.471267439
      7.40310130             0.356618546
SP   3   1.00
     20.8479528             -0.108506975            0.0716287243
      4.80830834            -0.146451658            0.3459121030
      1.34406986             1.128688580            0.7224699570
SP   1   1.00
      0.358151393            1.0000000              1.0000000
D    1   1.00
      3.5000000              1.0000000
D    1   1.00
      0.8750000              1.0000000
F    1   1.00
      1.8500000              1.0000000
****
Al     0
S    6   1.00
  13983.1000000              0.00194267
   2098.7500000              0.0148599
    477.7050000              0.0728494
    134.3600000              0.2468300
     42.8709000              0.4872580
     14.5189000              0.3234960
SP   6   1.00
    239.6680000             -0.00292619             0.00460285
     57.4419000             -0.0374080              0.0331990
     18.2859000             -0.1144870              0.1362820
      6.5991400              0.1156350              0.3304760
      2.4904900              0.6125950              0.4491460
      0.9445400              0.3937990              0.2657040
SP   3   1.00
      1.2779000             -0.2276060             -0.0175130
      0.3975900              0.00144583             0.2445330
      0.1600950              1.0927900              0.8049340
SP   1   1.00
      0.0556577              1.0000000              1.0000000
D    1   1.00
      0.6500000              1.0000000
D    1   1.00
      0.1625000              1.0000000
F    1   1.00
      0.2500000              1.0000000
****
Si     0
S    6   1.00
  16115.9000000              0.00195948
   2425.5800000              0.01492880
    553.8670000              0.07284780
    156.3400000              0.24613000
     50.0683000              0.48591400
     17.0178000              0.32500200
SP   6   1.00
    292.7180000             -0.00278094             0.00443826
     69.8731000             -0.03571460             0.03266790
     22.3363000             -0.11498500             0.13472100
      8.1503900              0.09356340             0.32867800
      3.1345800              0.60301700             0.44964000
      1.2254300              0.41895900             0.26137200
SP   3   1.00
      1.7273800             -0.24463000            -0.01779510
      0.5729220              0.00431572             0.25353900
      0.2221920              1.09818000             0.80066900
SP   1   1.00
      0.0778369              1.00000000             1.00000000
D    1   1.00
      0.9000000              1.0000000
D    1   1.00
      0.2250000              1.0000000
F    1   1.00
      0.3200000              1.0000000
****
P     0
S    6   1.00
  19413.3000000              0.0018516
   2909.4200000              0.0142062
    661.3640000              0.0699995
    185.7590000              0.2400790
     59.1943000              0.4847620
     20.0310000              0.3352000
SP   6   1.00
    339.4780000             -0.00278217             0.00456462
     81.0101000             -0.0360499              0.03369360
     25.8780000             -0.1166310              0.13975500
      9.4522100              0.0968328              0.33936200
      3.6656600              0.6144180              0.45092100
      1.4674600              0.4037980              0.23858600
SP   3   1.00
      2.1562300             -0.2529230             -0.01776530
      0.7489970              0.0328517              0.27405800
      0.2831450              1.0812500              0.78542100
SP   1   1.00
      0.0998317              1.0000000              1.00000000
D    1   1.00
      1.1000000              1.0000000
D    1   1.00
      0.2750000              1.0000000
F    1   1.00
      0.4500000              1.0000000
****
S     0
S    6   1.00
  21917.1000000              0.0018690
   3301.4900000              0.0142300
    754.1460000              0.0696960
    212.7110000              0.2384870
     67.9896000              0.4833070
     23.0515000              0.3380740
SP   6   1.00
    423.7350000             -0.0023767              0.0040610
    100.7100000             -0.0316930              0.0306810
     32.1599000             -0.1133170              0.1304520
     11.8079000              0.0560900              0.3272050
      4.6311000              0.5922550              0.4528510
      1.8702500              0.4550060              0.2560420
SP   3   1.00
      2.6158400             -0.2503740             -0.0145110
      0.9221670              0.0669570              0.3102630
      0.3412870              1.0545100              0.7544830
SP   1   1.00
      0.1171670              1.0000000              1.0000000
D    1   1.00
      1.3000000              1.0000000
D    1   1.00
      0.3250000              1.0000000
F    1   1.00
      0.5500000              1.0000000
****
Cl     0
S    6   1.00
  25180.1000000              0.0018330
   3780.3500000              0.0140340
    860.4740000              0.0690970
    242.1450000              0.2374520
     77.3349000              0.4830340
     26.2470000              0.3398560
SP   6   1.00
    491.7650000             -0.0022974              0.0039894
    116.9840000             -0.0307140              0.0303180
     37.4153000             -0.1125280              0.1298800
     13.7834000              0.0450160              0.3279510
      5.4521500              0.5893530              0.4535270
      2.2258800              0.4652060              0.2521540
SP   3   1.00
      3.1864900             -0.2518300             -0.0142990
      1.1442700              0.0615890              0.3235720
      0.4203770              1.0601800              0.7435070
SP   1   1.00
      0.1426570              1.0000000              1.0000000
D    1   1.00
      1.5000000              1.0000000
D    1   1.00
      0.3750000              1.0000000
F    1   1.00
      0.7000000              1.0000000
****
}

set {
reference uhf
freeze_core true
e_convergence 10
d_convergence 10
dft_spherical_points 1202
dft_radial_points 99
}

e = energy('b3lyp')

print_out('Grab this energy {0}'.format(e))
--------------------------------------------------------------------------

    Molecular point group: cs

    Geometry (in Bohr), charge = 0, multiplicity = 2:

       Center              X                  Y                   Z               Mass
    ------------   -----------------  -----------------  -----------------  -----------------
         C           -0.324448433112    -0.003555910215     0.000000000000    12.000000000000
         C            0.060944275788    -1.396860517515    -2.432713796700    12.000000000000
         C            0.061730565688     2.795548991385     0.000000000000    12.000000000000
         C            0.060944275788    -1.396860517515     2.432713796700    12.000000000000
         H            2.087527796388    -1.633568413715    -2.850982025100     1.007825032230
         H           -0.767254604412    -0.380405077315    -4.029854677400     1.007825032230
         H           -0.762624681112    -3.289920956315    -2.365211501100     1.007825032230
         H            2.088553624688     3.274359991085     0.000000000000     1.007825032230
         H           -0.763510054612     3.677001677085     1.675742896700     1.007825032230
         H           -0.763510054612     3.677001677085    -1.675742896700     1.007825032230
         H            2.087527796388    -1.633568413715     2.850982025100     1.007825032230
         H           -0.762624681112    -3.289920956315     2.365211501100     1.007825032230
         H           -0.767254604412    -0.380405077315     4.029854677400     1.007825032230

  Charge       = 0
  Multiplicity = 2
  Basis Set: ANONYMOUSD39D85C7
    Blend: 6-31G_2DFP_
  Basis Set: (ANONYMOUSD39D85C7 AUX)
    Blend: DEF2-UNIVERSAL-JKFIT

    Orbital Energies [Eh]
    ---------------------

    Alpha Occupied:

       1Ap   -10.180355     1App  -10.167233     2Ap   -10.167204
       3Ap   -10.166749     4Ap    -0.797705     2App   -0.686368
       5Ap    -0.685929     6Ap    -0.530765     7Ap    -0.441296
       3App   -0.434725     8Ap    -0.434195     4App   -0.382895
       9Ap    -0.382607     5App   -0.363472     6App   -0.338244
      10Ap    -0.337705    11Ap    -0.168871

    Alpha Virtual:

      12Ap     0.076036     7App    0.133965    13Ap     0.134445
       8App    0.142423    14Ap     0.142694    15Ap     0.154674
       9App    0.178593    16Ap     0.179040    17Ap     0.203412
      10App    0.214586    11App    0.275778    18Ap     0.276116
      12App    0.398866    19Ap     0.399077    20Ap     0.403486
      13App    0.424118    21Ap     0.424391    22Ap     0.456360
      14App    0.495007    23Ap     0.495809    15App    0.512361
      24Ap     0.513931    16App    0.578418    25Ap     0.578864
      17App    0.591804    26Ap     0.591875    27Ap     0.602805
      28Ap     0.624705    18App    0.631517    29Ap     0.635937
      19App    0.636376    20App    0.662922    30Ap     0.663352
      21App    0.683702    31Ap     0.684177    32Ap     0.734909
      22App    0.824675    33Ap     0.826323    23App    0.853574
      24App    0.914645    34Ap     0.915125    25App    0.943836
      35Ap     0.945307    36Ap     0.961425    26App    0.961921
      37Ap     1.002741    27App    1.126524    38Ap     1.128812
      39Ap     1.142803    28App    1.162244    40Ap     1.163187
      41Ap     1.223414    29App    1.274001    42Ap     1.275033
      43Ap     1.279143    44Ap     1.324002    30App    1.324147
      45Ap     1.356407    31App    1.364953    46Ap     1.366463
      32App    1.392614    33App    1.403566    47Ap     1.405152
      34App    1.416787    48Ap     1.417757    35App    1.427314
      36App    1.490837    49Ap     1.499379    37App    1.542438
      50Ap     1.543105    38App    1.573279    51Ap     1.576968
      52Ap     1.669758    39App    1.738493    53Ap     1.740579
      54Ap     1.768499    40App    1.830617    55Ap     1.831627
      41App    1.971628    42App    2.016781    56Ap     2.018479
      57Ap     2.019624    43App    2.049678    58Ap     2.054743
      44App    2.738636    59Ap     2.739168    60Ap     2.790696
      45App    2.810924    61Ap     2.889674    46App    2.889900
      62Ap     2.894696    47App    2.928855    63Ap     2.929219
      48App    2.958925    49App    2.963467    64Ap     2.965215
      65Ap     3.033531    50App    3.070730    66Ap     3.072764
      51App    3.084738    52App    3.168119    67Ap     3.169622
      68Ap     3.180402    69Ap     3.284996    53App    3.286426
      54App    3.325119    70Ap     3.326998    71Ap     3.375949
      55App    3.490108    72Ap     3.491115    56App    3.513759
      73Ap     3.525136    57App    3.566537    74Ap     3.569066
      58App    3.574523    59App    3.666351    75Ap     3.666531
      76Ap     3.678562    77Ap     3.694171    60App    3.695083
      78Ap     3.774731    61App    3.776494    79Ap     3.790582
      62App    3.910714    80Ap     3.913548    81Ap     4.035592
      63App    4.109889    82Ap     4.112633    64App    4.146684
      83Ap     4.149988    84Ap     4.173286    65App    4.200566
      85Ap     4.203016    86Ap     4.203984    66App    4.210436
      87Ap     4.315630    67App    4.315668    68App    4.357819
      69App    4.424710    88Ap     4.425085    70App    4.442563
      71App    4.515220    89Ap     4.516832    72App    4.576243
      90Ap     4.578366    91Ap     4.616996    92Ap     4.709160
      73App    4.772889    93Ap     4.775561    74App    4.837956
      94Ap     4.962342    75App    5.002085    95Ap     5.004063
      96Ap     5.227674    97Ap     5.246727    76App    5.247031
      77App    5.354218    98Ap     5.355632    78App    5.479065

    Beta Occupied:

       1App  -10.167984     1Ap   -10.167966     2Ap   -10.167512
       3Ap   -10.166526     4Ap    -0.781027     2App   -0.684176
       5Ap    -0.683729     6Ap    -0.511740     3App   -0.431112
       7Ap    -0.430568     8Ap    -0.421986     4App   -0.377001
       9Ap    -0.376693     5App   -0.362462     6App   -0.333368
      10Ap    -0.332820

    Beta Virtual:

      11Ap    -0.025577    12Ap     0.077049     7App    0.134830
      13Ap     0.135330     8App    0.144289    14Ap     0.144549
      15Ap     0.163084     9App    0.182261    16Ap     0.182728
      10App    0.214814    17Ap     0.218834    11App    0.282125
      18Ap     0.282487    12App    0.400053    19Ap     0.400273
      20Ap     0.419852    13App    0.426919    21Ap     0.427223
      22Ap     0.468193    14App    0.497249    23Ap     0.498063
      15App    0.514091    24Ap     0.556357    16App    0.583975
      25Ap     0.584370    17App    0.597997    26Ap     0.598087
      27Ap     0.610205    28Ap     0.628084    18App    0.631670
      29Ap     0.639215    19App    0.639684    20App    0.666434
      30Ap     0.666918    21App    0.686305    31Ap     0.686883
      32Ap     0.757467    22App    0.829817    33Ap     0.831486
      23App    0.854924    24App    0.922559    34Ap     0.923061
      25App    0.945694    35Ap     0.954138    36Ap     0.966729
      26App    0.967283    37Ap     1.007949    27App    1.130558
      38Ap     1.132834    39Ap     1.156393    28App    1.167290
      40Ap     1.168306    41Ap     1.232279    29App    1.279575
      42Ap     1.280617    43Ap     1.284830    44Ap     1.328936
      30App    1.329115    45Ap     1.365883    31App    1.370095
      46Ap     1.371814    32App    1.393661    33App    1.407052
      47Ap     1.408572    34App    1.421880    48Ap     1.422862
      35App    1.427584    36App    1.491899    49Ap     1.509846
      37App    1.546757    50Ap     1.547609    38App    1.581276
      51Ap     1.584695    52Ap     1.674601    39App    1.744257
      53Ap     1.746337    54Ap     1.779262    40App    1.834457
      55Ap     1.835503    41App    1.972483    42App    2.023090
      56Ap     2.026051    57Ap     2.039838    43App    2.056495
      58Ap     2.061390    44App    2.746916    59Ap     2.747539
      45App    2.811331    60Ap     2.815827    61Ap     2.902466
      46App    2.902618    62Ap     2.924414    47App    2.931413
      63Ap     2.931597    48App    2.959991    49App    2.967997
      64Ap     2.969691    65Ap     3.041475    50App    3.080446
      66Ap     3.082796    51App    3.086660    52App    3.183986
      67Ap     3.185254    68Ap     3.188069    69Ap     3.289889
      53App    3.291180    54App    3.328940    70Ap     3.330836
      71Ap     3.383793    55App    3.492769    72Ap     3.493772
      56App    3.512128    73Ap     3.528226    57App    3.573949
      58App    3.580383    74Ap     3.582458    59App    3.671162
      75Ap     3.671399    76Ap     3.691916    77Ap     3.725673
      60App    3.726515    78Ap     3.779235    61App    3.780972
      79Ap     3.819044    62App    3.920580    80Ap     3.923411
      81Ap     4.046426    63App    4.116619    82Ap     4.119353
      64App    4.154028    83Ap     4.157220    84Ap     4.187382
      65App    4.206496    85Ap     4.209904    86Ap     4.211020
      66App    4.214892    87Ap     4.323036    67App    4.323112
      68App    4.361159    69App    4.432891    88Ap     4.433270
      70App    4.445524    71App    4.523116    89Ap     4.524535
      72App    4.586745    90Ap     4.589025    91Ap     4.624266
      92Ap     4.719399    73App    4.779817    93Ap     4.782565
      74App    4.840872    94Ap     4.967138    75App    5.006109
      95Ap     5.008086    96Ap     5.233401    97Ap     5.248505
      76App    5.248816    77App    5.360679    98Ap     5.362129
      78App    5.481381

    Final Occupation by Irrep:
             Ap   App
    DOCC [    10,    6 ]
    SOCC [     1,    0 ]

  @DF-UKS Final Energy:  -157.81305416682574

   => Energetics <=

    Nuclear Repulsion Energy =            125.3832579233662585
    One-Electron Energy =                -458.7267074718300819
    Two-Electron Energy =                 195.8371957426462586
    DFT Exchange-Correlation Energy =     -20.3068003610081789
    Empirical Dispersion Energy =           0.0000000000000000
    VV10 Nonlocal Energy =                  0.0000000000000000
    Total Energy =                       -157.8130541668257365

  UHF NO Occupations:
  HONO-2 :    9 Ap 1.9996022
  HONO-1 :   10 Ap 1.9989784
  HONO-0 :   11 Ap 1.0000000
  LUNO+0 :   12 Ap 0.0010216
  LUNO+1 :   13 Ap 0.0003978
  LUNO+2 :   14 Ap 0.0001982
  LUNO+3 :    7App 0.0001975

Computation Completed

Properties will be evaluated at   0.000000,   0.000000,   0.000000 [a0]

Properties computed using the SCF density matrix

  Nuclear Dipole Moment: [e a0]
     X:     0.8319      Y:     0.0102      Z:     0.0000

  Electronic Dipole Moment: [e a0]
     X:    -0.7535      Y:    -0.0109      Z:     0.0000

  Dipole Moment: [e a0]
     X:     0.0783      Y:    -0.0007      Z:     0.0000     Total:     0.0783

  Dipole Moment: [D]
     X:     0.1991      Y:    -0.0019      Z:     0.0000     Total:     0.1991

*** tstop() called on n036 at Fri Nov  5 15:42:45 2021
Module time:
	user time   =     634.68 seconds =      10.58 minutes
	system time =      11.96 seconds =       0.20 minutes
	total time  =        162 seconds =       2.70 minutes
Total time:
	user time   =     634.68 seconds =      10.58 minutes
	system time =      11.96 seconds =       0.20 minutes
	total time  =        162 seconds =       2.70 minutes
Grab this energy -157.81305416682574
    Psi4 stopped on: Friday, 05 November 2021 03:42PM
    Psi4 wall time for execution: 0:02:42.57

*** Psi4 exiting successfully. Buy a developer a beer!
