                               Psi4 1.4a2.dev629

  ==> Input File <==

--------------------------------------------------------------------------
import os
memory 14 GB

molecule {
 C   -0.3233401268   -0.0004987830   -0.0000012997
 C    0.0604530321   -1.4020258061   -2.4257746481
 C    0.0623966317    2.8016627526   -0.0009676198
 C    0.0604519558   -1.4003523414    2.4267383503
 H    2.0890003430   -1.6463650424   -2.8458480536
 H   -0.7697622917   -0.3882917475   -4.0265211625
 H   -0.7631239946   -3.2884482838   -2.3500104120
 H    2.0826749241    3.2885875482   -0.0025983911
 H   -0.7660996255    3.6807061027    1.6813904973
 H   -0.7613749651    3.6796961573   -1.6778650624
 H    2.0889995373   -1.6418550438    2.8484498644
 H   -0.7678478281   -3.2920093390    2.3491318689
 H   -0.7650354688   -0.3908304875    4.0238760685
units bohr
0 2
}

basis {

assign 6-31g_2dfp_

[ 6-31g_2dfp_ ]

spherical

!----------------------------------------------------------------------
! Basis Set Exchange
! Version v0.8.13
! https://www.basissetexchange.org
!----------------------------------------------------------------------
!   Basis set: 6-31G(2df,p)
! Description: 6-31G(2df,p)
!        Role: orbital
!     Version: 0  (Data from the original Basis Set Exchange)
!----------------------------------------------------------------------

****
H     0
S    3   1.00
     18.7311370              0.03349460
      2.8253937              0.23472695
      0.6401217              0.81375733
S    1   1.00
      0.1612778              1.00000000
P    1   1.00
      1.5000000              1.0000000
P    1   1.00
      0.3750000              1.0000000
****
B     0
S    6   1.00
   2068.8823000              0.0018663
    310.6495700              0.0142515
     70.6830330              0.0695516
     19.8610800              0.2325729
      6.2993048              0.4670787
      2.1270270              0.3634314
SP   3   1.00
      4.7279710             -0.1303938              0.0745976
      1.1903377             -0.1307889              0.3078467
      0.3594117              1.1309444              0.7434568
SP   1   1.00
      0.1267512              1.0000000              1.0000000
D    1   1.00
      0.8020000              1.0000000
D    1   1.00
      0.2005000              1.0000000
F    1   1.00
      0.5000000              1.0000000
****
C     0
S    6   1.00
   3047.5249000              0.0018347
    457.3695100              0.0140373
    103.9486900              0.0688426
     29.2101550              0.2321844
      9.2866630              0.4679413
      3.1639270              0.3623120
SP   3   1.00
      7.8682724             -0.1193324              0.0689991
      1.8812885             -0.1608542              0.3164240
      0.5442493              1.1434564              0.7443083
SP   1   1.00
      0.1687144              1.0000000              1.0000000
D    1   1.00
      1.2520000              1.0000000
D    1   1.00
      0.3130000              1.0000000
F    1   1.00
      0.8000000              1.0000000
****
N     0
S    6   1.00
   4173.5110000              0.0018348
    627.4579000              0.0139950
    142.9021000              0.0685870
     40.2343300              0.2322410
     12.8202100              0.4690700
      4.3904370              0.3604550
SP   3   1.00
     11.6263580             -0.1149610              0.0675800
      2.7162800             -0.1691180              0.3239070
      0.7722180              1.1458520              0.7408950
SP   1   1.00
      0.2120313              1.0000000              1.0000000
D    1   1.00
      1.8260000              1.0000000
D    1   1.00
      0.4565000              1.0000000
F    1   1.00
      1.0000000              1.0000000
****
O     0
S    6   1.00
   5484.6717000              0.0018311
    825.2349500              0.0139501
    188.0469600              0.0684451
     52.9645000              0.2327143
     16.8975700              0.4701930
      5.7996353              0.3585209
SP   3   1.00
     15.5396160             -0.1107775              0.0708743
      3.5999336             -0.1480263              0.3397528
      1.0137618              1.1307670              0.7271586
SP   1   1.00
      0.2700058              1.0000000              1.0000000
D    1   1.00
      2.5840000              1.0000000
D    1   1.00
      0.6460000              1.0000000
F    1   1.00
      1.4000000              1.0000000
****
F     0
S    6   1.00
   7001.7130900              0.0018196169
   1051.3660900              0.0139160796
    239.2856900              0.0684053245
     67.3974453              0.233185760
     21.5199573              0.471267439
      7.40310130             0.356618546
SP   3   1.00
     20.8479528             -0.108506975            0.0716287243
      4.80830834            -0.146451658            0.3459121030
      1.34406986             1.128688580            0.7224699570
SP   1   1.00
      0.358151393            1.0000000              1.0000000
D    1   1.00
      3.5000000              1.0000000
D    1   1.00
      0.8750000              1.0000000
F    1   1.00
      1.8500000              1.0000000
****
Al     0
S    6   1.00
  13983.1000000              0.00194267
   2098.7500000              0.0148599
    477.7050000              0.0728494
    134.3600000              0.2468300
     42.8709000              0.4872580
     14.5189000              0.3234960
SP   6   1.00
    239.6680000             -0.00292619             0.00460285
     57.4419000             -0.0374080              0.0331990
     18.2859000             -0.1144870              0.1362820
      6.5991400              0.1156350              0.3304760
      2.4904900              0.6125950              0.4491460
      0.9445400              0.3937990              0.2657040
SP   3   1.00
      1.2779000             -0.2276060             -0.0175130
      0.3975900              0.00144583             0.2445330
      0.1600950              1.0927900              0.8049340
SP   1   1.00
      0.0556577              1.0000000              1.0000000
D    1   1.00
      0.6500000              1.0000000
D    1   1.00
      0.1625000              1.0000000
F    1   1.00
      0.2500000              1.0000000
****
Si     0
S    6   1.00
  16115.9000000              0.00195948
   2425.5800000              0.01492880
    553.8670000              0.07284780
    156.3400000              0.24613000
     50.0683000              0.48591400
     17.0178000              0.32500200
SP   6   1.00
    292.7180000             -0.00278094             0.00443826
     69.8731000             -0.03571460             0.03266790
     22.3363000             -0.11498500             0.13472100
      8.1503900              0.09356340             0.32867800
      3.1345800              0.60301700             0.44964000
      1.2254300              0.41895900             0.26137200
SP   3   1.00
      1.7273800             -0.24463000            -0.01779510
      0.5729220              0.00431572             0.25353900
      0.2221920              1.09818000             0.80066900
SP   1   1.00
      0.0778369              1.00000000             1.00000000
D    1   1.00
      0.9000000              1.0000000
D    1   1.00
      0.2250000              1.0000000
F    1   1.00
      0.3200000              1.0000000
****
P     0
S    6   1.00
  19413.3000000              0.0018516
   2909.4200000              0.0142062
    661.3640000              0.0699995
    185.7590000              0.2400790
     59.1943000              0.4847620
     20.0310000              0.3352000
SP   6   1.00
    339.4780000             -0.00278217             0.00456462
     81.0101000             -0.0360499              0.03369360
     25.8780000             -0.1166310              0.13975500
      9.4522100              0.0968328              0.33936200
      3.6656600              0.6144180              0.45092100
      1.4674600              0.4037980              0.23858600
SP   3   1.00
      2.1562300             -0.2529230             -0.01776530
      0.7489970              0.0328517              0.27405800
      0.2831450              1.0812500              0.78542100
SP   1   1.00
      0.0998317              1.0000000              1.00000000
D    1   1.00
      1.1000000              1.0000000
D    1   1.00
      0.2750000              1.0000000
F    1   1.00
      0.4500000              1.0000000
****
S     0
S    6   1.00
  21917.1000000              0.0018690
   3301.4900000              0.0142300
    754.1460000              0.0696960
    212.7110000              0.2384870
     67.9896000              0.4833070
     23.0515000              0.3380740
SP   6   1.00
    423.7350000             -0.0023767              0.0040610
    100.7100000             -0.0316930              0.0306810
     32.1599000             -0.1133170              0.1304520
     11.8079000              0.0560900              0.3272050
      4.6311000              0.5922550              0.4528510
      1.8702500              0.4550060              0.2560420
SP   3   1.00
      2.6158400             -0.2503740             -0.0145110
      0.9221670              0.0669570              0.3102630
      0.3412870              1.0545100              0.7544830
SP   1   1.00
      0.1171670              1.0000000              1.0000000
D    1   1.00
      1.3000000              1.0000000
D    1   1.00
      0.3250000              1.0000000
F    1   1.00
      0.5500000              1.0000000
****
Cl     0
S    6   1.00
  25180.1000000              0.0018330
   3780.3500000              0.0140340
    860.4740000              0.0690970
    242.1450000              0.2374520
     77.3349000              0.4830340
     26.2470000              0.3398560
SP   6   1.00
    491.7650000             -0.0022974              0.0039894
    116.9840000             -0.0307140              0.0303180
     37.4153000             -0.1125280              0.1298800
     13.7834000              0.0450160              0.3279510
      5.4521500              0.5893530              0.4535270
      2.2258800              0.4652060              0.2521540
SP   3   1.00
      3.1864900             -0.2518300             -0.0142990
      1.1442700              0.0615890              0.3235720
      0.4203770              1.0601800              0.7435070
SP   1   1.00
      0.1426570              1.0000000              1.0000000
D    1   1.00
      1.5000000              1.0000000
D    1   1.00
      0.3750000              1.0000000
F    1   1.00
      0.7000000              1.0000000
****
}

set {
reference uhf
freeze_core true
e_convergence 10
d_convergence 10
dft_spherical_points 1202
dft_radial_points 99
}

e = energy('b3lyp')

print_out('Grab this energy {0}'.format(e))
--------------------------------------------------------------------------

    Molecular point group: c1

    Geometry (in Bohr), charge = 0, multiplicity = 2:

       Center              X                  Y                   Z               Mass
    ------------   -----------------  -----------------  -----------------  -----------------
         C           -0.323340411407    -0.000264494228    -0.000000294814    12.000000000000
         C            0.060452747493    -1.401791517328    -2.425773643214    12.000000000000
         C            0.062396347093     2.801897041372    -0.000966614914    12.000000000000
         C            0.060451671193    -1.400118052628     2.426739355186    12.000000000000
         H            2.089000058393    -1.646130753628    -2.845847048714     1.007825032230
         H           -0.769762576307    -0.388057458728    -4.026520157614     1.007825032230
         H           -0.763124279207    -3.288213995028    -2.350009407114     1.007825032230
         H            2.082674639493     3.288821836972    -0.002597386214     1.007825032230
         H           -0.766099910107     3.680940391472     1.681391502186     1.007825032230
         H           -0.761375249707     3.679930446072    -1.677864057514     1.007825032230
         H            2.088999252693    -1.641620755028     2.848450869286     1.007825032230
         H           -0.767848112707    -3.291775050228     2.349132873786     1.007825032230
         H           -0.765035753407    -0.390596198728     4.023877073386     1.007825032230

  Charge       = 0
  Multiplicity = 2
  Basis Set: ANONYMOUS3DCBD062
    Blend: 6-31G_2DFP_
  Basis Set: (ANONYMOUS3DCBD062 AUX)
    Blend: DEF2-UNIVERSAL-JKFIT

    Orbital Energies [Eh]
    ---------------------

    Alpha Occupied:

       1A    -10.180342     2A    -10.167043     3A    -10.167025
       4A    -10.166976     5A     -0.797766     6A     -0.686191
       7A     -0.686187     8A     -0.530780     9A     -0.441126
      10A     -0.434691    11A     -0.434651    12A     -0.382622
      13A     -0.382575    14A     -0.363610    15A     -0.338031
      16A     -0.337966    17A     -0.168961

    Alpha Virtual:

      18A      0.076070    19A      0.133979    20A      0.134308
      21A      0.142573    22A      0.142694    23A      0.154879
      24A      0.178696    25A      0.178867    26A      0.203546
      27A      0.214805    28A      0.275911    29A      0.276061
      30A      0.399193    31A      0.399264    32A      0.403343
      33A      0.424012    34A      0.424182    35A      0.456590
      36A      0.495243    37A      0.495535    38A      0.512159
      39A      0.513982    40A      0.578646    41A      0.578986
      42A      0.591486    43A      0.591771    44A      0.602580
      45A      0.624718    46A      0.631808    47A      0.636154
      48A      0.636346    49A      0.663043    50A      0.663795
      51A      0.683692    52A      0.684039    53A      0.734995
      54A      0.825387    55A      0.825418    56A      0.853920
      57A      0.914810    58A      0.915242    59A      0.944099
      60A      0.944637    61A      0.961156    62A      0.961430
      63A      1.003455    64A      1.128069    65A      1.128154
      66A      1.142209    67A      1.163152    68A      1.163393
      69A      1.223323    70A      1.274344    71A      1.274622
      72A      1.279367    73A      1.324294    74A      1.324392
      75A      1.355953    76A      1.366020    77A      1.366079
      78A      1.392467    79A      1.403592    80A      1.404526
      81A      1.416601    82A      1.417645    83A      1.427911
      84A      1.491453    85A      1.499100    86A      1.542364
      87A      1.543302    88A      1.574291    89A      1.574610
      90A      1.669830    91A      1.739266    92A      1.739510
      93A      1.768349    94A      1.830604    95A      1.832206
      96A      1.971685    97A      2.018212    98A      2.018619
      99A      2.019610   100A      2.051709   101A      2.053613
     102A      2.738074   103A      2.738893   104A      2.790923
     105A      2.811428   106A      2.889913   107A      2.889968
     108A      2.894964   109A      2.929490   110A      2.929500
     111A      2.958996   112A      2.964065   113A      2.964703
     114A      3.034003   115A      3.071253   116A      3.071317
     117A      3.084383   118A      3.168550   119A      3.169011
     120A      3.180606   121A      3.284982   122A      3.285631
     123A      3.326958   124A      3.327383   125A      3.375624
     126A      3.490013   127A      3.490314   128A      3.514004
     129A      3.525336   130A      3.568292   131A      3.568492
     132A      3.575148   133A      3.665677   134A      3.667088
     135A      3.679667   136A      3.693994   137A      3.694261
     138A      3.776771   139A      3.776839   140A      3.789124
     141A      3.912129   142A      3.912335   143A      4.034429
     144A      4.110851   145A      4.111734   146A      4.147572
     147A      4.148718   148A      4.173103   149A      4.201715
     150A      4.203278   151A      4.203768   152A      4.211081
     153A      4.315137   154A      4.316835   155A      4.358973
     156A      4.424141   157A      4.424804   158A      4.443437
     159A      4.516148   160A      4.517554   161A      4.578138
     162A      4.578393   163A      4.617558   164A      4.709455
     165A      4.774150   166A      4.775059   167A      4.836895
     168A      4.962881   169A      5.002205   170A      5.003700
     171A      5.227993   172A      5.244653   173A      5.248809
     174A      5.354387   175A      5.356858   176A      5.479409

    Beta Occupied:

       1A    -10.167797     2A    -10.167784     3A    -10.167743
       4A    -10.166520     5A     -0.781092     6A     -0.683995
       7A     -0.683988     8A     -0.511751     9A     -0.431060
      10A     -0.431028    11A     -0.421819    12A     -0.376728
      13A     -0.376638    14A     -0.362594    15A     -0.333147
      16A     -0.333096

    Beta Virtual:

      17A     -0.025743    18A      0.077079    19A      0.134879
      20A      0.135190    21A      0.144469    22A      0.144539
      23A      0.163337    24A      0.182348    25A      0.182557
      26A      0.215028    27A      0.218936    28A      0.282256
      29A      0.282412    30A      0.400364    31A      0.400432
      32A      0.419790    33A      0.426823    34A      0.426993
      35A      0.468498    36A      0.497497    37A      0.497803
      38A      0.513896    39A      0.556325    40A      0.584210
      41A      0.584520    42A      0.597643    43A      0.597977
      44A      0.609998    45A      0.628064    46A      0.632005
      47A      0.639429    48A      0.639632    49A      0.666639
      50A      0.667329    51A      0.686344    52A      0.686655
      53A      0.757518    54A      0.830553    55A      0.830588
      56A      0.855275    57A      0.922795    58A      0.923200
      59A      0.945959    60A      0.953543    61A      0.966433
      62A      0.966765    63A      1.008695    64A      1.132122
      65A      1.132156    66A      1.155585    67A      1.168188
      68A      1.168506    69A      1.232296    70A      1.279930
      71A      1.280228    72A      1.285123    73A      1.329285
      74A      1.329378    75A      1.365362    76A      1.371273
      77A      1.371316    78A      1.393527    79A      1.407013
      80A      1.408038    81A      1.421635    82A      1.422713
      83A      1.428180    84A      1.492515    85A      1.509530
      86A      1.546788    87A      1.547694    88A      1.582178
      89A      1.582466    90A      1.674675    91A      1.745027
      92A      1.745279    93A      1.779122    94A      1.834453
      95A      1.836069    96A      1.972560    97A      2.024982
      98A      2.025915    99A      2.039702   100A      2.058466
     101A      2.060291   102A      2.746418   103A      2.747221
     104A      2.811835   105A      2.816063   106A      2.902572
     107A      2.902707   108A      2.924648   109A      2.931938
     110A      2.932011   111A      2.960060   112A      2.968596
     113A      2.969266   114A      3.041933   115A      3.081051
     116A      3.081320   117A      3.086225   118A      3.184182
     119A      3.184871   120A      3.188294   121A      3.289769
     122A      3.290440   123A      3.330742   124A      3.331211
     125A      3.383441   126A      3.492783   127A      3.493006
     128A      3.512373   129A      3.528377   130A      3.574990
     131A      3.581587   132A      3.581894   133A      3.670374
     134A      3.671891   135A      3.692959   136A      3.725609
     137A      3.725905   138A      3.781298   139A      3.781367
     140A      3.817666   141A      3.921922   142A      3.922173
     143A      4.045316   144A      4.117679   145A      4.118524
     146A      4.154848   147A      4.155884   148A      4.187108
     149A      4.208027   150A      4.209752   151A      4.210805
     152A      4.215625   153A      4.322579   154A      4.324275
     155A      4.362335   156A      4.432356   157A      4.433019
     158A      4.446317   159A      4.523936   160A      4.525347
     161A      4.588725   162A      4.589007   163A      4.624752
     164A      4.719800   165A      4.781102   166A      4.782013
     167A      4.839812   168A      4.967677   169A      5.006262
     170A      5.007721   171A      5.233707   172A      5.246453
     173A      5.250588   174A      5.360852   175A      5.363343
     176A      5.481730

    Final Occupation by Irrep:
              A
    DOCC [    16 ]
    SOCC [     1 ]

  @DF-UKS Final Energy:  -157.81305071008393

   => Energetics <=

    Nuclear Repulsion Energy =            125.3946678603841605
    One-Electron Energy =                -458.7489432479237621
    Two-Electron Energy =                 195.8483736461619742
    DFT Exchange-Correlation Energy =     -20.3071489687063256
    Empirical Dispersion Energy =           0.0000000000000000
    VV10 Nonlocal Energy =                  0.0000000000000000
    Total Energy =                       -157.8130507100839282

  UHF NO Occupations:
  HONO-2 :   15  A 1.9996009
  HONO-1 :   16  A 1.9989805
  HONO-0 :   17  A 1.0000000
  LUNO+0 :   18  A 0.0010195
  LUNO+1 :   19  A 0.0003991
  LUNO+2 :   20  A 0.0001975
  LUNO+3 :   21  A 0.0001975

Computation Completed

Properties will be evaluated at   0.000000,   0.000000,   0.000000 [a0]

Properties computed using the SCF density matrix

  Nuclear Dipole Moment: [e a0]
     X:     0.8272      Y:     0.0016      Z:     0.0000

  Electronic Dipole Moment: [e a0]
     X:    -0.7493      Y:    -0.0023      Z:    -0.0000

  Dipole Moment: [e a0]
     X:     0.0779      Y:    -0.0006      Z:    -0.0000     Total:     0.0779

  Dipole Moment: [D]
     X:     0.1980      Y:    -0.0017      Z:    -0.0000     Total:     0.1980

*** tstop() called on n079 at Fri Nov  5 14:13:45 2021
Module time:
	user time   =     465.08 seconds =       7.75 minutes
	system time =       4.38 seconds =       0.07 minutes
	total time  =        118 seconds =       1.97 minutes
Total time:
	user time   =     465.08 seconds =       7.75 minutes
	system time =       4.38 seconds =       0.07 minutes
	total time  =        118 seconds =       1.97 minutes
Grab this energy -157.81305071008393
    Psi4 stopped on: Friday, 05 November 2021 02:13PM
    Psi4 wall time for execution: 0:01:58.08

*** Psi4 exiting successfully. Buy a developer a beer!
