                               Psi4 1.4a2.dev629

  ==> Input File <==

--------------------------------------------------------------------------
import os
memory 14 GB

molecule {
 C   -0.3233380007   -0.0007663096   -0.0000000000
 C    0.0625396650   -1.4000007998   -2.4266540959
 C    0.0582237264    2.8021606246    0.0000000000
 C    0.0625396650   -1.4000007998    2.4266540959
 H    2.0867958277   -1.6444688858   -2.8472857332
 H   -0.7658428289   -0.3884732007   -4.0254144259
 H   -0.7659879678   -3.2919501397   -2.3490071606
 H    2.0870846728    3.2879977367   -0.0000000000
 H   -0.7647938336    3.6801848433    1.6768013322
 H   -0.7647938336    3.6801848433   -1.6768013322
 H    2.0867958277   -1.6444688858    2.8472857332
 H   -0.7659879678   -3.2919501397    2.3490071606
 H   -0.7658428289   -0.3884732007    4.0254144259
units bohr
0 2
}

basis {

assign 6-31g_2dfp_

[ 6-31g_2dfp_ ]

spherical

!----------------------------------------------------------------------
! Basis Set Exchange
! Version v0.8.13
! https://www.basissetexchange.org
!----------------------------------------------------------------------
!   Basis set: 6-31G(2df,p)
! Description: 6-31G(2df,p)
!        Role: orbital
!     Version: 0  (Data from the original Basis Set Exchange)
!----------------------------------------------------------------------

****
H     0
S    3   1.00
     18.7311370              0.03349460
      2.8253937              0.23472695
      0.6401217              0.81375733
S    1   1.00
      0.1612778              1.00000000
P    1   1.00
      1.5000000              1.0000000
P    1   1.00
      0.3750000              1.0000000
****
B     0
S    6   1.00
   2068.8823000              0.0018663
    310.6495700              0.0142515
     70.6830330              0.0695516
     19.8610800              0.2325729
      6.2993048              0.4670787
      2.1270270              0.3634314
SP   3   1.00
      4.7279710             -0.1303938              0.0745976
      1.1903377             -0.1307889              0.3078467
      0.3594117              1.1309444              0.7434568
SP   1   1.00
      0.1267512              1.0000000              1.0000000
D    1   1.00
      0.8020000              1.0000000
D    1   1.00
      0.2005000              1.0000000
F    1   1.00
      0.5000000              1.0000000
****
C     0
S    6   1.00
   3047.5249000              0.0018347
    457.3695100              0.0140373
    103.9486900              0.0688426
     29.2101550              0.2321844
      9.2866630              0.4679413
      3.1639270              0.3623120
SP   3   1.00
      7.8682724             -0.1193324              0.0689991
      1.8812885             -0.1608542              0.3164240
      0.5442493              1.1434564              0.7443083
SP   1   1.00
      0.1687144              1.0000000              1.0000000
D    1   1.00
      1.2520000              1.0000000
D    1   1.00
      0.3130000              1.0000000
F    1   1.00
      0.8000000              1.0000000
****
N     0
S    6   1.00
   4173.5110000              0.0018348
    627.4579000              0.0139950
    142.9021000              0.0685870
     40.2343300              0.2322410
     12.8202100              0.4690700
      4.3904370              0.3604550
SP   3   1.00
     11.6263580             -0.1149610              0.0675800
      2.7162800             -0.1691180              0.3239070
      0.7722180              1.1458520              0.7408950
SP   1   1.00
      0.2120313              1.0000000              1.0000000
D    1   1.00
      1.8260000              1.0000000
D    1   1.00
      0.4565000              1.0000000
F    1   1.00
      1.0000000              1.0000000
****
O     0
S    6   1.00
   5484.6717000              0.0018311
    825.2349500              0.0139501
    188.0469600              0.0684451
     52.9645000              0.2327143
     16.8975700              0.4701930
      5.7996353              0.3585209
SP   3   1.00
     15.5396160             -0.1107775              0.0708743
      3.5999336             -0.1480263              0.3397528
      1.0137618              1.1307670              0.7271586
SP   1   1.00
      0.2700058              1.0000000              1.0000000
D    1   1.00
      2.5840000              1.0000000
D    1   1.00
      0.6460000              1.0000000
F    1   1.00
      1.4000000              1.0000000
****
F     0
S    6   1.00
   7001.7130900              0.0018196169
   1051.3660900              0.0139160796
    239.2856900              0.0684053245
     67.3974453              0.233185760
     21.5199573              0.471267439
      7.40310130             0.356618546
SP   3   1.00
     20.8479528             -0.108506975            0.0716287243
      4.80830834            -0.146451658            0.3459121030
      1.34406986             1.128688580            0.7224699570
SP   1   1.00
      0.358151393            1.0000000              1.0000000
D    1   1.00
      3.5000000              1.0000000
D    1   1.00
      0.8750000              1.0000000
F    1   1.00
      1.8500000              1.0000000
****
Al     0
S    6   1.00
  13983.1000000              0.00194267
   2098.7500000              0.0148599
    477.7050000              0.0728494
    134.3600000              0.2468300
     42.8709000              0.4872580
     14.5189000              0.3234960
SP   6   1.00
    239.6680000             -0.00292619             0.00460285
     57.4419000             -0.0374080              0.0331990
     18.2859000             -0.1144870              0.1362820
      6.5991400              0.1156350              0.3304760
      2.4904900              0.6125950              0.4491460
      0.9445400              0.3937990              0.2657040
SP   3   1.00
      1.2779000             -0.2276060             -0.0175130
      0.3975900              0.00144583             0.2445330
      0.1600950              1.0927900              0.8049340
SP   1   1.00
      0.0556577              1.0000000              1.0000000
D    1   1.00
      0.6500000              1.0000000
D    1   1.00
      0.1625000              1.0000000
F    1   1.00
      0.2500000              1.0000000
****
Si     0
S    6   1.00
  16115.9000000              0.00195948
   2425.5800000              0.01492880
    553.8670000              0.07284780
    156.3400000              0.24613000
     50.0683000              0.48591400
     17.0178000              0.32500200
SP   6   1.00
    292.7180000             -0.00278094             0.00443826
     69.8731000             -0.03571460             0.03266790
     22.3363000             -0.11498500             0.13472100
      8.1503900              0.09356340             0.32867800
      3.1345800              0.60301700             0.44964000
      1.2254300              0.41895900             0.26137200
SP   3   1.00
      1.7273800             -0.24463000            -0.01779510
      0.5729220              0.00431572             0.25353900
      0.2221920              1.09818000             0.80066900
SP   1   1.00
      0.0778369              1.00000000             1.00000000
D    1   1.00
      0.9000000              1.0000000
D    1   1.00
      0.2250000              1.0000000
F    1   1.00
      0.3200000              1.0000000
****
P     0
S    6   1.00
  19413.3000000              0.0018516
   2909.4200000              0.0142062
    661.3640000              0.0699995
    185.7590000              0.2400790
     59.1943000              0.4847620
     20.0310000              0.3352000
SP   6   1.00
    339.4780000             -0.00278217             0.00456462
     81.0101000             -0.0360499              0.03369360
     25.8780000             -0.1166310              0.13975500
      9.4522100              0.0968328              0.33936200
      3.6656600              0.6144180              0.45092100
      1.4674600              0.4037980              0.23858600
SP   3   1.00
      2.1562300             -0.2529230             -0.01776530
      0.7489970              0.0328517              0.27405800
      0.2831450              1.0812500              0.78542100
SP   1   1.00
      0.0998317              1.0000000              1.00000000
D    1   1.00
      1.1000000              1.0000000
D    1   1.00
      0.2750000              1.0000000
F    1   1.00
      0.4500000              1.0000000
****
S     0
S    6   1.00
  21917.1000000              0.0018690
   3301.4900000              0.0142300
    754.1460000              0.0696960
    212.7110000              0.2384870
     67.9896000              0.4833070
     23.0515000              0.3380740
SP   6   1.00
    423.7350000             -0.0023767              0.0040610
    100.7100000             -0.0316930              0.0306810
     32.1599000             -0.1133170              0.1304520
     11.8079000              0.0560900              0.3272050
      4.6311000              0.5922550              0.4528510
      1.8702500              0.4550060              0.2560420
SP   3   1.00
      2.6158400             -0.2503740             -0.0145110
      0.9221670              0.0669570              0.3102630
      0.3412870              1.0545100              0.7544830
SP   1   1.00
      0.1171670              1.0000000              1.0000000
D    1   1.00
      1.3000000              1.0000000
D    1   1.00
      0.3250000              1.0000000
F    1   1.00
      0.5500000              1.0000000
****
Cl     0
S    6   1.00
  25180.1000000              0.0018330
   3780.3500000              0.0140340
    860.4740000              0.0690970
    242.1450000              0.2374520
     77.3349000              0.4830340
     26.2470000              0.3398560
SP   6   1.00
    491.7650000             -0.0022974              0.0039894
    116.9840000             -0.0307140              0.0303180
     37.4153000             -0.1125280              0.1298800
     13.7834000              0.0450160              0.3279510
      5.4521500              0.5893530              0.4535270
      2.2258800              0.4652060              0.2521540
SP   3   1.00
      3.1864900             -0.2518300             -0.0142990
      1.1442700              0.0615890              0.3235720
      0.4203770              1.0601800              0.7435070
SP   1   1.00
      0.1426570              1.0000000              1.0000000
D    1   1.00
      1.5000000              1.0000000
D    1   1.00
      0.3750000              1.0000000
F    1   1.00
      0.7000000              1.0000000
****
}

set {
reference uhf
freeze_core true
e_convergence 10
d_convergence 10
dft_spherical_points 1202
dft_radial_points 99
}

e = energy('b3lyp')

print_out('Grab this energy {0}'.format(e))
--------------------------------------------------------------------------

    Molecular point group: cs

    Geometry (in Bohr), charge = 0, multiplicity = 2:

       Center              X                  Y                   Z               Mass
    ------------   -----------------  -----------------  -----------------  -----------------
         C           -0.323338971545    -0.001034127254     0.000000000000    12.000000000000
         C            0.062538694155    -1.400268617454    -2.426654095900    12.000000000000
         C            0.058222755555     2.801892806946     0.000000000000    12.000000000000
         C            0.062538694155    -1.400268617454     2.426654095900    12.000000000000
         H            2.086794856855    -1.644736703454    -2.847285733200     1.007825032230
         H           -0.765843799745    -0.388741018354    -4.025414425900     1.007825032230
         H           -0.765988938645    -3.292217957354    -2.349007160600     1.007825032230
         H            2.087083701955     3.287729919046     0.000000000000     1.007825032230
         H           -0.764794804445     3.679917025646     1.676801332200     1.007825032230
         H           -0.764794804445     3.679917025646    -1.676801332200     1.007825032230
         H            2.086794856855    -1.644736703454     2.847285733200     1.007825032230
         H           -0.765988938645    -3.292217957354     2.349007160600     1.007825032230
         H           -0.765843799745    -0.388741018354     4.025414425900     1.007825032230

  Charge       = 0
  Multiplicity = 2
  Basis Set: ANONYMOUS82E602FE
    Blend: 6-31G_2DFP_
  Basis Set: (ANONYMOUS82E602FE AUX)
    Blend: DEF2-UNIVERSAL-JKFIT

    Orbital Energies [Eh]
    ---------------------

    Alpha Occupied:

       1Ap   -10.180342     2Ap   -10.167031     1App  -10.167029
       3Ap   -10.166984     4Ap    -0.797766     2App   -0.686233
       5Ap    -0.686140     6Ap    -0.530776     7Ap    -0.441125
       3App   -0.434765     8Ap    -0.434578     4App   -0.382787
       9Ap    -0.382409     5App   -0.363610     6App   -0.338208
      10Ap    -0.337791    11Ap    -0.168961

    Alpha Virtual:

      12Ap     0.076072    13Ap     0.134083     7App    0.134227
      14Ap     0.142502     8App    0.142755    15Ap     0.154878
      16Ap     0.178716     9App    0.178841    17Ap     0.203547
      10App    0.214802    18Ap     0.275915    11App    0.276056
      12App    0.399183    19Ap     0.399270    20Ap     0.403346
      13App    0.424044    21Ap     0.424152    22Ap     0.456592
      14App    0.495326    23Ap     0.495453    15App    0.512160
      24Ap     0.513979    25Ap     0.578686    16App    0.578950
      26Ap     0.591490    17App    0.591772    27Ap     0.602575
      28Ap     0.624761    18App    0.631763    29Ap     0.636139
      19App    0.636367    30Ap     0.663156    20App    0.663671
      21App    0.683693    31Ap     0.684013    32Ap     0.734994
      22App    0.825389    33Ap     0.825426    23App    0.853916
      24App    0.914939    34Ap     0.915114    25App    0.944126
      35Ap     0.944614    36Ap     0.961159    26App    0.961424
      37Ap     1.003451    38Ap     1.128018    27App    1.128204
      39Ap     1.142214    40Ap     1.163185    28App    1.163352
      41Ap     1.223330    42Ap     1.274153    29App    1.274814
      43Ap     1.279366    44Ap     1.324051    30App    1.324666
      45Ap     1.355984    31App    1.365507    46Ap     1.366600
      32App    1.392421    47Ap     1.403682    33App    1.404442
      48Ap     1.416567    34App    1.417670    35App    1.427914
      36App    1.491493    49Ap     1.499082    50Ap     1.542615
      37App    1.543042    38App    1.573979    51Ap     1.574917
      52Ap     1.669824    53Ap     1.738901    39App    1.739935
      54Ap     1.768315    40App    1.831133    55Ap     1.831667
      41App    1.971721    56Ap     2.017942    57Ap     2.019208
      42App    2.019241    43App    2.052411    58Ap     2.052877
      59Ap     2.738398    44App    2.738570    60Ap     2.790925
      45App    2.811423    61Ap     2.889552    46App    2.890354
      62Ap     2.894940    63Ap     2.929358    47App    2.929643
      48App    2.958996    49App    2.964199    64Ap     2.964556
      65Ap     3.034008    66Ap     3.071278    50App    3.071281
      51App    3.084359    67Ap     3.168734    52App    3.168791
      68Ap     3.180623    69Ap     3.285065    53App    3.285567
      70Ap     3.327043    54App    3.327274    71Ap     3.375624
      55App    3.489882    72Ap     3.490442    56App    3.514016
      73Ap     3.525331    57App    3.568390    74Ap     3.568392
      58App    3.575137    75Ap     3.665861    59App    3.666902
      76Ap     3.679678    60App    3.694112    77Ap     3.694135
      78Ap     3.776748    61App    3.776857    79Ap     3.789116
      80Ap     3.911943    62App    3.912496    81Ap     4.034464
      63App    4.111065    82Ap     4.111681    83Ap     4.147987
      64App    4.148260    84Ap     4.173247    85Ap     4.202568
      86Ap     4.202948    65App    4.203267    66App    4.210845
      87Ap     4.315596    67App    4.316319    68App    4.358978
      69App    4.423772    88Ap     4.425129    70App    4.443417
      89Ap     4.515606    71App    4.518080    90Ap     4.578205
      72App    4.578359    91Ap     4.617528    92Ap     4.709451
      93Ap     4.774236    73App    4.774950    74App    4.836914
      94Ap     4.962860    95Ap     5.002771    75App    5.003109
      96Ap     5.228054    97Ap     5.246553    76App    5.247068
      77App    5.355269    98Ap     5.355749    78App    5.479350

    Beta Occupied:

       1Ap   -10.167785     1App  -10.167782     2Ap   -10.167758
       3Ap   -10.166519     4Ap    -0.781091     2App   -0.684033
       5Ap    -0.683946     6Ap    -0.511747     3App   -0.431134
       7Ap    -0.430951     8Ap    -0.421823     4App   -0.376889
       9Ap    -0.376478     5App   -0.362594     6App   -0.333329
      10Ap    -0.332915

    Beta Virtual:

      11Ap    -0.025742    12Ap     0.077081    13Ap     0.134970
       7App    0.135121    14Ap     0.144395     8App    0.144602
      15Ap     0.163337    16Ap     0.182373     9App    0.182527
      10App    0.215032    17Ap     0.218929    18Ap     0.282275
      11App    0.282392    12App    0.400350    19Ap     0.400444
      20Ap     0.419787    13App    0.426852    21Ap     0.426970
      22Ap     0.468500    14App    0.497593    23Ap     0.497707
      15App    0.513895    24Ap     0.556325    25Ap     0.584241
      16App    0.584494    26Ap     0.597656    17App    0.597966
      27Ap     0.609997    28Ap     0.628136    18App    0.631925
      29Ap     0.639429    19App    0.639644    30Ap     0.666731
      20App    0.667223    21App    0.686323    31Ap     0.686652
      32Ap     0.757518    22App    0.830563    33Ap     0.830589
      23App    0.855269    24App    0.922909    34Ap     0.923087
      25App    0.945963    35Ap     0.953543    36Ap     0.966467
      26App    0.966727    37Ap     1.008691    38Ap     1.131997
      27App    1.132280    39Ap     1.155588    40Ap     1.168324
      28App    1.168366    41Ap     1.232301    42Ap     1.279718
      29App    1.280442    43Ap     1.285121    44Ap     1.329019
      30App    1.329677    45Ap     1.365400    31App    1.370724
      46Ap     1.371869    32App    1.393483    47Ap     1.407125
      33App    1.407926    48Ap     1.421655    34App    1.422682
      35App    1.428184    36App    1.492542    49Ap     1.509525
      50Ap     1.547079    37App    1.547392    38App    1.581911
      51Ap     1.582730    52Ap     1.674671    53Ap     1.744671
      39App    1.745687    54Ap     1.779095    40App    1.834990
      55Ap     1.835521    41App    1.972581    56Ap     2.025192
      42App    2.025680    57Ap     2.039698    43App    2.059077
      58Ap     2.059641    59Ap     2.746745    44App    2.746894
      45App    2.811835    60Ap     2.816061    61Ap     2.902246
      46App    2.903037    62Ap     2.924646    63Ap     2.931805
      47App    2.932159    48App    2.960058    49App    2.968750
      64Ap     2.969093    65Ap     3.041943    66Ap     3.081173
      50App    3.081193    51App    3.086188    67Ap     3.184451
      52App    3.184502    68Ap     3.188378    69Ap     3.289903
      53App    3.290325    70Ap     3.330847    54App    3.331079
      71Ap     3.383442    55App    3.492629    72Ap     3.493155
      56App    3.512380    73Ap     3.528377    57App    3.574995
      58App    3.581713    74Ap     3.581750    75Ap     3.670576
      59App    3.671685    76Ap     3.692970    60App    3.725718
      77Ap     3.725794    78Ap     3.781228    61App    3.781429
      79Ap     3.817660    80Ap     3.921755    62App    3.922318
      81Ap     4.045351    63App    4.117931    82Ap     4.118444
      83Ap     4.155278    64App    4.155388    84Ap     4.187307
      85Ap     4.208787    65App    4.209219    86Ap     4.210621
      66App    4.215317    87Ap     4.323027    67App    4.323766
      68App    4.362343    69App    4.431996    88Ap     4.433333
      70App    4.446301    89Ap     4.523416    71App    4.525853
      90Ap     4.588814    72App    4.588953    91Ap     4.624720
      92Ap     4.719796    93Ap     4.781189    73App    4.781904
      74App    4.839831    94Ap     4.967655    95Ap     5.006828
      75App    5.007130    96Ap     5.233769    97Ap     5.248346
      76App    5.248844    77App    5.361771    98Ap     5.362209
      78App    5.481671

    Final Occupation by Irrep:
             Ap   App
    DOCC [    10,    6 ]
    SOCC [     1,    0 ]

  @DF-UKS Final Energy:  -157.81306991383389

   => Energetics <=

    Nuclear Repulsion Energy =            125.3946012227108753
    One-Electron Energy =                -458.7488694900655446
    Two-Electron Energy =                 195.8483407255711199
    DFT Exchange-Correlation Energy =     -20.3071423720503468
    Empirical Dispersion Energy =           0.0000000000000000
    VV10 Nonlocal Energy =                  0.0000000000000000
    Total Energy =                       -157.8130699138338855

  UHF NO Occupations:
  HONO-2 :    9 Ap 1.9996009
  HONO-1 :   10 Ap 1.9989805
  HONO-0 :   11 Ap 1.0000000
  LUNO+0 :   12 Ap 0.0010195
  LUNO+1 :   13 Ap 0.0003991
  LUNO+2 :   14 Ap 0.0001978
  LUNO+3 :    7App 0.0001972

Computation Completed

Properties will be evaluated at   0.000000,   0.000000,   0.000000 [a0]

Properties computed using the SCF density matrix

  Nuclear Dipole Moment: [e a0]
     X:     0.8272      Y:    -0.0019      Z:    -0.0000

  Electronic Dipole Moment: [e a0]
     X:    -0.7493      Y:     0.0020      Z:     0.0000

  Dipole Moment: [e a0]
     X:     0.0779      Y:     0.0001      Z:    -0.0000     Total:     0.0779

  Dipole Moment: [D]
     X:     0.1980      Y:     0.0002      Z:    -0.0000     Total:     0.1980

*** tstop() called on n040 at Fri Nov  5 11:45:46 2021
Module time:
	user time   =     635.48 seconds =      10.59 minutes
	system time =      12.41 seconds =       0.21 minutes
	total time  =        163 seconds =       2.72 minutes
Total time:
	user time   =     635.48 seconds =      10.59 minutes
	system time =      12.41 seconds =       0.21 minutes
	total time  =        163 seconds =       2.72 minutes
Grab this energy -157.81306991383389
    Psi4 stopped on: Friday, 05 November 2021 11:45AM
    Psi4 wall time for execution: 0:02:42.90

*** Psi4 exiting successfully. Buy a developer a beer!
