                               Psi4 1.4a2.dev629

  ==> Input File <==

--------------------------------------------------------------------------
import os
memory 14 GB

molecule {
 C   -0.3233395362   -0.0002484809   -0.0002457471
 C    0.0596238898   -1.4009151076   -2.4265533586
 C    0.0621327240    2.8016355530    0.0001488162
 C    0.0615469728   -1.4006797628    2.4264435124
 H    2.0824911123   -1.6393537034   -2.8405787262
 H   -0.7679913663   -0.3908108569   -4.0298442679
 H   -0.7674509614   -3.2943305364   -2.3523028413
 H    2.0900340088    3.2942049006    0.0018562122
 H   -0.7649679261    3.6783447095    1.6758124892
 H   -0.7630378452    3.6755072992   -1.6769553017
 H    2.0881228647   -1.6430200467    2.8506416413
 H   -0.7636508196   -3.2910623218    2.3458849489
 H   -0.7661209943   -0.3892959593    4.0256926226
units bohr
0 2
}

basis {

assign 6-31g_2dfp_

[ 6-31g_2dfp_ ]

spherical

!----------------------------------------------------------------------
! Basis Set Exchange
! Version v0.8.13
! https://www.basissetexchange.org
!----------------------------------------------------------------------
!   Basis set: 6-31G(2df,p)
! Description: 6-31G(2df,p)
!        Role: orbital
!     Version: 0  (Data from the original Basis Set Exchange)
!----------------------------------------------------------------------

****
H     0
S    3   1.00
     18.7311370              0.03349460
      2.8253937              0.23472695
      0.6401217              0.81375733
S    1   1.00
      0.1612778              1.00000000
P    1   1.00
      1.5000000              1.0000000
P    1   1.00
      0.3750000              1.0000000
****
B     0
S    6   1.00
   2068.8823000              0.0018663
    310.6495700              0.0142515
     70.6830330              0.0695516
     19.8610800              0.2325729
      6.2993048              0.4670787
      2.1270270              0.3634314
SP   3   1.00
      4.7279710             -0.1303938              0.0745976
      1.1903377             -0.1307889              0.3078467
      0.3594117              1.1309444              0.7434568
SP   1   1.00
      0.1267512              1.0000000              1.0000000
D    1   1.00
      0.8020000              1.0000000
D    1   1.00
      0.2005000              1.0000000
F    1   1.00
      0.5000000              1.0000000
****
C     0
S    6   1.00
   3047.5249000              0.0018347
    457.3695100              0.0140373
    103.9486900              0.0688426
     29.2101550              0.2321844
      9.2866630              0.4679413
      3.1639270              0.3623120
SP   3   1.00
      7.8682724             -0.1193324              0.0689991
      1.8812885             -0.1608542              0.3164240
      0.5442493              1.1434564              0.7443083
SP   1   1.00
      0.1687144              1.0000000              1.0000000
D    1   1.00
      1.2520000              1.0000000
D    1   1.00
      0.3130000              1.0000000
F    1   1.00
      0.8000000              1.0000000
****
N     0
S    6   1.00
   4173.5110000              0.0018348
    627.4579000              0.0139950
    142.9021000              0.0685870
     40.2343300              0.2322410
     12.8202100              0.4690700
      4.3904370              0.3604550
SP   3   1.00
     11.6263580             -0.1149610              0.0675800
      2.7162800             -0.1691180              0.3239070
      0.7722180              1.1458520              0.7408950
SP   1   1.00
      0.2120313              1.0000000              1.0000000
D    1   1.00
      1.8260000              1.0000000
D    1   1.00
      0.4565000              1.0000000
F    1   1.00
      1.0000000              1.0000000
****
O     0
S    6   1.00
   5484.6717000              0.0018311
    825.2349500              0.0139501
    188.0469600              0.0684451
     52.9645000              0.2327143
     16.8975700              0.4701930
      5.7996353              0.3585209
SP   3   1.00
     15.5396160             -0.1107775              0.0708743
      3.5999336             -0.1480263              0.3397528
      1.0137618              1.1307670              0.7271586
SP   1   1.00
      0.2700058              1.0000000              1.0000000
D    1   1.00
      2.5840000              1.0000000
D    1   1.00
      0.6460000              1.0000000
F    1   1.00
      1.4000000              1.0000000
****
F     0
S    6   1.00
   7001.7130900              0.0018196169
   1051.3660900              0.0139160796
    239.2856900              0.0684053245
     67.3974453              0.233185760
     21.5199573              0.471267439
      7.40310130             0.356618546
SP   3   1.00
     20.8479528             -0.108506975            0.0716287243
      4.80830834            -0.146451658            0.3459121030
      1.34406986             1.128688580            0.7224699570
SP   1   1.00
      0.358151393            1.0000000              1.0000000
D    1   1.00
      3.5000000              1.0000000
D    1   1.00
      0.8750000              1.0000000
F    1   1.00
      1.8500000              1.0000000
****
Al     0
S    6   1.00
  13983.1000000              0.00194267
   2098.7500000              0.0148599
    477.7050000              0.0728494
    134.3600000              0.2468300
     42.8709000              0.4872580
     14.5189000              0.3234960
SP   6   1.00
    239.6680000             -0.00292619             0.00460285
     57.4419000             -0.0374080              0.0331990
     18.2859000             -0.1144870              0.1362820
      6.5991400              0.1156350              0.3304760
      2.4904900              0.6125950              0.4491460
      0.9445400              0.3937990              0.2657040
SP   3   1.00
      1.2779000             -0.2276060             -0.0175130
      0.3975900              0.00144583             0.2445330
      0.1600950              1.0927900              0.8049340
SP   1   1.00
      0.0556577              1.0000000              1.0000000
D    1   1.00
      0.6500000              1.0000000
D    1   1.00
      0.1625000              1.0000000
F    1   1.00
      0.2500000              1.0000000
****
Si     0
S    6   1.00
  16115.9000000              0.00195948
   2425.5800000              0.01492880
    553.8670000              0.07284780
    156.3400000              0.24613000
     50.0683000              0.48591400
     17.0178000              0.32500200
SP   6   1.00
    292.7180000             -0.00278094             0.00443826
     69.8731000             -0.03571460             0.03266790
     22.3363000             -0.11498500             0.13472100
      8.1503900              0.09356340             0.32867800
      3.1345800              0.60301700             0.44964000
      1.2254300              0.41895900             0.26137200
SP   3   1.00
      1.7273800             -0.24463000            -0.01779510
      0.5729220              0.00431572             0.25353900
      0.2221920              1.09818000             0.80066900
SP   1   1.00
      0.0778369              1.00000000             1.00000000
D    1   1.00
      0.9000000              1.0000000
D    1   1.00
      0.2250000              1.0000000
F    1   1.00
      0.3200000              1.0000000
****
P     0
S    6   1.00
  19413.3000000              0.0018516
   2909.4200000              0.0142062
    661.3640000              0.0699995
    185.7590000              0.2400790
     59.1943000              0.4847620
     20.0310000              0.3352000
SP   6   1.00
    339.4780000             -0.00278217             0.00456462
     81.0101000             -0.0360499              0.03369360
     25.8780000             -0.1166310              0.13975500
      9.4522100              0.0968328              0.33936200
      3.6656600              0.6144180              0.45092100
      1.4674600              0.4037980              0.23858600
SP   3   1.00
      2.1562300             -0.2529230             -0.01776530
      0.7489970              0.0328517              0.27405800
      0.2831450              1.0812500              0.78542100
SP   1   1.00
      0.0998317              1.0000000              1.00000000
D    1   1.00
      1.1000000              1.0000000
D    1   1.00
      0.2750000              1.0000000
F    1   1.00
      0.4500000              1.0000000
****
S     0
S    6   1.00
  21917.1000000              0.0018690
   3301.4900000              0.0142300
    754.1460000              0.0696960
    212.7110000              0.2384870
     67.9896000              0.4833070
     23.0515000              0.3380740
SP   6   1.00
    423.7350000             -0.0023767              0.0040610
    100.7100000             -0.0316930              0.0306810
     32.1599000             -0.1133170              0.1304520
     11.8079000              0.0560900              0.3272050
      4.6311000              0.5922550              0.4528510
      1.8702500              0.4550060              0.2560420
SP   3   1.00
      2.6158400             -0.2503740             -0.0145110
      0.9221670              0.0669570              0.3102630
      0.3412870              1.0545100              0.7544830
SP   1   1.00
      0.1171670              1.0000000              1.0000000
D    1   1.00
      1.3000000              1.0000000
D    1   1.00
      0.3250000              1.0000000
F    1   1.00
      0.5500000              1.0000000
****
Cl     0
S    6   1.00
  25180.1000000              0.0018330
   3780.3500000              0.0140340
    860.4740000              0.0690970
    242.1450000              0.2374520
     77.3349000              0.4830340
     26.2470000              0.3398560
SP   6   1.00
    491.7650000             -0.0022974              0.0039894
    116.9840000             -0.0307140              0.0303180
     37.4153000             -0.1125280              0.1298800
     13.7834000              0.0450160              0.3279510
      5.4521500              0.5893530              0.4535270
      2.2258800              0.4652060              0.2521540
SP   3   1.00
      3.1864900             -0.2518300             -0.0142990
      1.1442700              0.0615890              0.3235720
      0.4203770              1.0601800              0.7435070
SP   1   1.00
      0.1426570              1.0000000              1.0000000
D    1   1.00
      1.5000000              1.0000000
D    1   1.00
      0.3750000              1.0000000
F    1   1.00
      0.7000000              1.0000000
****
}

set {
reference uhf
freeze_core true
e_convergence 10
d_convergence 10
dft_spherical_points 1202
dft_radial_points 99
}

e = energy('b3lyp')

print_out('Grab this energy {0}'.format(e))
--------------------------------------------------------------------------

    Molecular point group: c1

    Geometry (in Bohr), charge = 0, multiplicity = 2:

       Center              X                  Y                   Z               Mass
    ------------   -----------------  -----------------  -----------------  -----------------
         C           -0.323340313417    -0.000208028091    -0.000205920341    12.000000000000
         C            0.059623112583    -1.400874654791    -2.426513531841    12.000000000000
         C            0.062131946783     2.801676005809     0.000188642959    12.000000000000
         C            0.061546195583    -1.400639309991     2.426483339159    12.000000000000
         H            2.082490335083    -1.639313250591    -2.840538899441     1.007825032230
         H           -0.767992143517    -0.390770404091    -4.029804441141     1.007825032230
         H           -0.767451738617    -3.294290083591    -2.352263014541     1.007825032230
         H            2.090033231583     3.294245353409     0.001896038959     1.007825032230
         H           -0.764968703317     3.678385162309     1.675852315959     1.007825032230
         H           -0.763038622417     3.675547752009    -1.676915474941     1.007825032230
         H            2.088122087483    -1.642979593891     2.850681468059     1.007825032230
         H           -0.763651596817    -3.291021868991     2.345924775659     1.007825032230
         H           -0.766121771517    -0.389255506491     4.025732449359     1.007825032230

  Charge       = 0
  Multiplicity = 2
  Basis Set: ANONYMOUS494CA49F
    Blend: 6-31G_2DFP_
  Basis Set: (ANONYMOUS494CA49F AUX)
    Blend: DEF2-UNIVERSAL-JKFIT

    Orbital Energies [Eh]
    ---------------------

    Alpha Occupied:

       1A    -10.180343     2A    -10.167066     3A    -10.167010
       4A    -10.166969     5A     -0.797767     6A     -0.686229
       7A     -0.686146     8A     -0.530775     9A     -0.441127
      10A     -0.434794    11A     -0.434551    12A     -0.382913
      13A     -0.382281    14A     -0.363610    15A     -0.338216
      16A     -0.337782    17A     -0.168961

    Alpha Virtual:

      18A      0.076073    19A      0.134085    20A      0.134223
      21A      0.142336    22A      0.142918    23A      0.154881
      24A      0.178586    25A      0.178963    26A      0.203554
      27A      0.214802    28A      0.275956    29A      0.276014
      30A      0.399050    31A      0.399405    32A      0.403344
      33A      0.423953    34A      0.424243    35A      0.456596
      36A      0.495372    37A      0.495404    38A      0.512163
      39A      0.513984    40A      0.578625    41A      0.578986
      42A      0.591271    43A      0.591957    44A      0.602635
      45A      0.624764    46A      0.631719    47A      0.635988
      48A      0.636564    49A      0.663358    50A      0.663470
      51A      0.683692    52A      0.684011    53A      0.734992
      54A      0.825323    55A      0.825488    56A      0.853915
      57A      0.914578    58A      0.915467    59A      0.944092
      60A      0.944614    61A      0.961222    62A      0.961408
      63A      1.003450    64A      1.127539    65A      1.128678
      66A      1.142187    67A      1.163072    68A      1.163493
      69A      1.223326    70A      1.274326    71A      1.274627
      72A      1.279384    73A      1.324247    74A      1.324457
      75A      1.355959    76A      1.366053    77A      1.366081
      78A      1.392446    79A      1.403350    80A      1.404732
      81A      1.416606    82A      1.417585    83A      1.427940
      84A      1.491508    85A      1.499044    86A      1.542821
      87A      1.542867    88A      1.573774    89A      1.575147
      90A      1.669834    91A      1.739277    92A      1.739531
      93A      1.768342    94A      1.830801    95A      1.832005
      96A      1.971716    97A      2.018298    98A      2.018939
      99A      2.019171   100A      2.051987   101A      2.053297
     102A      2.738471   103A      2.738508   104A      2.790929
     105A      2.811431   106A      2.889673   107A      2.890174
     108A      2.895010   109A      2.929053   110A      2.929935
     111A      2.958984   112A      2.964124   113A      2.964646
     114A      3.033997   115A      3.070380   116A      3.072193
     117A      3.084352   118A      3.168465   119A      3.169108
     120A      3.180573   121A      3.285151   122A      3.285480
     123A      3.325934   124A      3.328406   125A      3.375617
     126A      3.488663   127A      3.491651   128A      3.514000
     129A      3.525341   130A      3.568136   131A      3.568351
     132A      3.575441   133A      3.665766   134A      3.666951
     135A      3.679676   136A      3.693202   137A      3.695013
     138A      3.776708   139A      3.776875   140A      3.789225
     141A      3.912061   142A      3.912407   143A      4.034442
     144A      4.111178   145A      4.111546   146A      4.148063
     147A      4.148148   148A      4.173250   149A      4.201853
     150A      4.203232   151A      4.203745   152A      4.210830
     153A      4.315675   154A      4.316247   155A      4.358977
     156A      4.424374   157A      4.424584   158A      4.443389
     159A      4.515972   160A      4.517647   161A      4.578256
     162A      4.578312   163A      4.617632   164A      4.709350
     165A      4.773741   166A      4.775481   167A      4.836921
     168A      4.962866   169A      5.002186   170A      5.003727
     171A      5.228090   172A      5.246037   173A      5.247588
     174A      5.355456   175A      5.355573   176A      5.479343

    Beta Occupied:

       1A    -10.167817     2A    -10.167767     3A    -10.167741
       4A    -10.166520     5A     -0.781092     6A     -0.684025
       7A     -0.683956     8A     -0.511747     9A     -0.431181
      10A     -0.430905    11A     -0.421825    12A     -0.377007
      13A     -0.376357    14A     -0.362594    15A     -0.333323
      16A     -0.332921

    Beta Virtual:

      17A     -0.025743    18A      0.077082    19A      0.134985
      20A      0.135103    21A      0.144238    22A      0.144758
      23A      0.163340    24A      0.182251    25A      0.182643
      26A      0.215031    27A      0.218934    28A      0.282298
      29A      0.282369    30A      0.400224    31A      0.400568
      32A      0.419792    33A      0.426762    34A      0.427057
      35A      0.468503    36A      0.497634    37A      0.497667
      38A      0.513898    39A      0.556326    40A      0.584169
      41A      0.584546    42A      0.597443    43A      0.598151
      44A      0.610045    45A      0.628141    46A      0.631898
      47A      0.639257    48A      0.639844    49A      0.666910
      50A      0.667046    51A      0.686350    52A      0.686624
      53A      0.757515    54A      0.830496    55A      0.830653
      56A      0.855268    57A      0.922586    58A      0.923403
      59A      0.945933    60A      0.953537    61A      0.966543
      62A      0.966698    63A      1.008690    64A      1.131630
      65A      1.132642    66A      1.155551    67A      1.168111
      68A      1.168615    69A      1.232298    70A      1.279946
      71A      1.280206    72A      1.285136    73A      1.329228
      74A      1.329453    75A      1.365347    76A      1.371301
      77A      1.371350    78A      1.393506    79A      1.406805
      80A      1.408204    81A      1.421638    82A      1.422625
      83A      1.428235    84A      1.492557    85A      1.509481
      86A      1.547131    87A      1.547389    88A      1.581515
      89A      1.583140    90A      1.674680    91A      1.745044
      92A      1.745292    93A      1.779119    94A      1.834663
      95A      1.835855    96A      1.972577    97A      2.025369
      98A      2.025545    99A      2.039666   100A      2.058684
     101A      2.060034   102A      2.746789   103A      2.746861
     104A      2.811843   105A      2.816064   106A      2.902371
     107A      2.902903   108A      2.924659   109A      2.931549
     110A      2.932406   111A      2.960056   112A      2.968669
     113A      2.969182   114A      3.041932   115A      3.080228
     116A      3.082165   117A      3.086169   118A      3.184215
     119A      3.184865   120A      3.188247   121A      3.289897
     122A      3.290331   123A      3.329754   124A      3.332194
     125A      3.383435   126A      3.491425   127A      3.494350
     128A      3.512366   129A      3.528386   130A      3.574769
     131A      3.581730   132A      3.581965   133A      3.670531
     134A      3.671693   135A      3.692952   136A      3.725189
     137A      3.726316   138A      3.781289   139A      3.781364
     140A      3.817738   141A      3.921869   142A      3.922232
     143A      4.045330   144A      4.118035   145A      4.118326
     146A      4.155154   147A      4.155472   148A      4.187306
     149A      4.208281   150A      4.209452   151A      4.210941
     152A      4.215302   153A      4.323157   154A      4.323648
     155A      4.362337   156A      4.432574   157A      4.432815
     158A      4.446272   159A      4.523772   160A      4.525429
     161A      4.588834   162A      4.588935   163A      4.624824
     164A      4.719693   165A      4.780652   166A      4.782480
     167A      4.839839   168A      4.967661   169A      5.006247
     170A      5.007744   171A      5.233806   172A      5.247823
     173A      5.249370   174A      5.361946   175A      5.362044
     176A      5.481664

    Final Occupation by Irrep:
              A
    DOCC [    16 ]
    SOCC [     1 ]

  @DF-UKS Final Energy:  -157.81306129275470

   => Energetics <=

    Nuclear Repulsion Energy =            125.3946224910223322
    One-Electron Energy =                -458.7488823195461691
    Two-Electron Energy =                 195.8483426590224212
    DFT Exchange-Correlation Energy =     -20.3071441232532948
    Empirical Dispersion Energy =           0.0000000000000000
    VV10 Nonlocal Energy =                  0.0000000000000000
    Total Energy =                       -157.8130612927546963

  UHF NO Occupations:
  HONO-2 :   15  A 1.9996008
  HONO-1 :   16  A 1.9989805
  HONO-0 :   17  A 1.0000000
  LUNO+0 :   18  A 0.0010195
  LUNO+1 :   19  A 0.0003992
  LUNO+2 :   20  A 0.0001977
  LUNO+3 :   21  A 0.0001973

Computation Completed

Properties will be evaluated at   0.000000,   0.000000,   0.000000 [a0]

Properties computed using the SCF density matrix

  Nuclear Dipole Moment: [e a0]
     X:     0.8272      Y:     0.0003      Z:     0.0003

  Electronic Dipole Moment: [e a0]
     X:    -0.7493      Y:    -0.0010      Z:    -0.0010

  Dipole Moment: [e a0]
     X:     0.0779      Y:    -0.0008      Z:    -0.0008     Total:     0.0779

  Dipole Moment: [D]
     X:     0.1980      Y:    -0.0019      Z:    -0.0019     Total:     0.1980

*** tstop() called on n031 at Fri Nov  5 15:16:17 2021
Module time:
	user time   =     637.11 seconds =      10.62 minutes
	system time =      12.34 seconds =       0.21 minutes
	total time  =        164 seconds =       2.73 minutes
Total time:
	user time   =     637.11 seconds =      10.62 minutes
	system time =      12.34 seconds =       0.21 minutes
	total time  =        164 seconds =       2.73 minutes
Grab this energy -157.8130612927547
    Psi4 stopped on: Friday, 05 November 2021 03:16PM
    Psi4 wall time for execution: 0:02:43.43

*** Psi4 exiting successfully. Buy a developer a beer!
