                               Psi4 1.4a2.dev629

  ==> Input File <==

--------------------------------------------------------------------------
import os
memory 14 GB

molecule {
 C   -0.3243657606   -0.0000020863   -0.0000000178
 C    0.0600791545   -1.3995680243   -2.4273140557
 C    0.0599593906    2.8019130197    0.0016008623
 C    0.0600793583   -1.4023408699    2.4257133643
 H    2.0902482279   -1.6448477488   -2.8474882821
 H   -0.7665545292   -0.3904207310   -4.0239914482
 H   -0.7663277634   -3.2900662460   -2.3497360417
 H    2.0901095107    3.2885190789   -0.0006254209
 H   -0.7667952543    3.6800629955    1.6738499173
 H   -0.7664059891    3.6799353462   -1.6744517177
 H    2.0902482620   -1.6437644628    2.8481136520
 H   -0.7667171139   -3.2896088435    2.3501474710
 H   -0.7661653704   -0.3898357413    4.0241817173
units bohr
0 2
}

basis {

assign 6-31g_2dfp_

[ 6-31g_2dfp_ ]

spherical

!----------------------------------------------------------------------
! Basis Set Exchange
! Version v0.8.13
! https://www.basissetexchange.org
!----------------------------------------------------------------------
!   Basis set: 6-31G(2df,p)
! Description: 6-31G(2df,p)
!        Role: orbital
!     Version: 0  (Data from the original Basis Set Exchange)
!----------------------------------------------------------------------

****
H     0
S    3   1.00
     18.7311370              0.03349460
      2.8253937              0.23472695
      0.6401217              0.81375733
S    1   1.00
      0.1612778              1.00000000
P    1   1.00
      1.5000000              1.0000000
P    1   1.00
      0.3750000              1.0000000
****
B     0
S    6   1.00
   2068.8823000              0.0018663
    310.6495700              0.0142515
     70.6830330              0.0695516
     19.8610800              0.2325729
      6.2993048              0.4670787
      2.1270270              0.3634314
SP   3   1.00
      4.7279710             -0.1303938              0.0745976
      1.1903377             -0.1307889              0.3078467
      0.3594117              1.1309444              0.7434568
SP   1   1.00
      0.1267512              1.0000000              1.0000000
D    1   1.00
      0.8020000              1.0000000
D    1   1.00
      0.2005000              1.0000000
F    1   1.00
      0.5000000              1.0000000
****
C     0
S    6   1.00
   3047.5249000              0.0018347
    457.3695100              0.0140373
    103.9486900              0.0688426
     29.2101550              0.2321844
      9.2866630              0.4679413
      3.1639270              0.3623120
SP   3   1.00
      7.8682724             -0.1193324              0.0689991
      1.8812885             -0.1608542              0.3164240
      0.5442493              1.1434564              0.7443083
SP   1   1.00
      0.1687144              1.0000000              1.0000000
D    1   1.00
      1.2520000              1.0000000
D    1   1.00
      0.3130000              1.0000000
F    1   1.00
      0.8000000              1.0000000
****
N     0
S    6   1.00
   4173.5110000              0.0018348
    627.4579000              0.0139950
    142.9021000              0.0685870
     40.2343300              0.2322410
     12.8202100              0.4690700
      4.3904370              0.3604550
SP   3   1.00
     11.6263580             -0.1149610              0.0675800
      2.7162800             -0.1691180              0.3239070
      0.7722180              1.1458520              0.7408950
SP   1   1.00
      0.2120313              1.0000000              1.0000000
D    1   1.00
      1.8260000              1.0000000
D    1   1.00
      0.4565000              1.0000000
F    1   1.00
      1.0000000              1.0000000
****
O     0
S    6   1.00
   5484.6717000              0.0018311
    825.2349500              0.0139501
    188.0469600              0.0684451
     52.9645000              0.2327143
     16.8975700              0.4701930
      5.7996353              0.3585209
SP   3   1.00
     15.5396160             -0.1107775              0.0708743
      3.5999336             -0.1480263              0.3397528
      1.0137618              1.1307670              0.7271586
SP   1   1.00
      0.2700058              1.0000000              1.0000000
D    1   1.00
      2.5840000              1.0000000
D    1   1.00
      0.6460000              1.0000000
F    1   1.00
      1.4000000              1.0000000
****
F     0
S    6   1.00
   7001.7130900              0.0018196169
   1051.3660900              0.0139160796
    239.2856900              0.0684053245
     67.3974453              0.233185760
     21.5199573              0.471267439
      7.40310130             0.356618546
SP   3   1.00
     20.8479528             -0.108506975            0.0716287243
      4.80830834            -0.146451658            0.3459121030
      1.34406986             1.128688580            0.7224699570
SP   1   1.00
      0.358151393            1.0000000              1.0000000
D    1   1.00
      3.5000000              1.0000000
D    1   1.00
      0.8750000              1.0000000
F    1   1.00
      1.8500000              1.0000000
****
Al     0
S    6   1.00
  13983.1000000              0.00194267
   2098.7500000              0.0148599
    477.7050000              0.0728494
    134.3600000              0.2468300
     42.8709000              0.4872580
     14.5189000              0.3234960
SP   6   1.00
    239.6680000             -0.00292619             0.00460285
     57.4419000             -0.0374080              0.0331990
     18.2859000             -0.1144870              0.1362820
      6.5991400              0.1156350              0.3304760
      2.4904900              0.6125950              0.4491460
      0.9445400              0.3937990              0.2657040
SP   3   1.00
      1.2779000             -0.2276060             -0.0175130
      0.3975900              0.00144583             0.2445330
      0.1600950              1.0927900              0.8049340
SP   1   1.00
      0.0556577              1.0000000              1.0000000
D    1   1.00
      0.6500000              1.0000000
D    1   1.00
      0.1625000              1.0000000
F    1   1.00
      0.2500000              1.0000000
****
Si     0
S    6   1.00
  16115.9000000              0.00195948
   2425.5800000              0.01492880
    553.8670000              0.07284780
    156.3400000              0.24613000
     50.0683000              0.48591400
     17.0178000              0.32500200
SP   6   1.00
    292.7180000             -0.00278094             0.00443826
     69.8731000             -0.03571460             0.03266790
     22.3363000             -0.11498500             0.13472100
      8.1503900              0.09356340             0.32867800
      3.1345800              0.60301700             0.44964000
      1.2254300              0.41895900             0.26137200
SP   3   1.00
      1.7273800             -0.24463000            -0.01779510
      0.5729220              0.00431572             0.25353900
      0.2221920              1.09818000             0.80066900
SP   1   1.00
      0.0778369              1.00000000             1.00000000
D    1   1.00
      0.9000000              1.0000000
D    1   1.00
      0.2250000              1.0000000
F    1   1.00
      0.3200000              1.0000000
****
P     0
S    6   1.00
  19413.3000000              0.0018516
   2909.4200000              0.0142062
    661.3640000              0.0699995
    185.7590000              0.2400790
     59.1943000              0.4847620
     20.0310000              0.3352000
SP   6   1.00
    339.4780000             -0.00278217             0.00456462
     81.0101000             -0.0360499              0.03369360
     25.8780000             -0.1166310              0.13975500
      9.4522100              0.0968328              0.33936200
      3.6656600              0.6144180              0.45092100
      1.4674600              0.4037980              0.23858600
SP   3   1.00
      2.1562300             -0.2529230             -0.01776530
      0.7489970              0.0328517              0.27405800
      0.2831450              1.0812500              0.78542100
SP   1   1.00
      0.0998317              1.0000000              1.00000000
D    1   1.00
      1.1000000              1.0000000
D    1   1.00
      0.2750000              1.0000000
F    1   1.00
      0.4500000              1.0000000
****
S     0
S    6   1.00
  21917.1000000              0.0018690
   3301.4900000              0.0142300
    754.1460000              0.0696960
    212.7110000              0.2384870
     67.9896000              0.4833070
     23.0515000              0.3380740
SP   6   1.00
    423.7350000             -0.0023767              0.0040610
    100.7100000             -0.0316930              0.0306810
     32.1599000             -0.1133170              0.1304520
     11.8079000              0.0560900              0.3272050
      4.6311000              0.5922550              0.4528510
      1.8702500              0.4550060              0.2560420
SP   3   1.00
      2.6158400             -0.2503740             -0.0145110
      0.9221670              0.0669570              0.3102630
      0.3412870              1.0545100              0.7544830
SP   1   1.00
      0.1171670              1.0000000              1.0000000
D    1   1.00
      1.3000000              1.0000000
D    1   1.00
      0.3250000              1.0000000
F    1   1.00
      0.5500000              1.0000000
****
Cl     0
S    6   1.00
  25180.1000000              0.0018330
   3780.3500000              0.0140340
    860.4740000              0.0690970
    242.1450000              0.2374520
     77.3349000              0.4830340
     26.2470000              0.3398560
SP   6   1.00
    491.7650000             -0.0022974              0.0039894
    116.9840000             -0.0307140              0.0303180
     37.4153000             -0.1125280              0.1298800
     13.7834000              0.0450160              0.3279510
      5.4521500              0.5893530              0.4535270
      2.2258800              0.4652060              0.2521540
SP   3   1.00
      3.1864900             -0.2518300             -0.0142990
      1.1442700              0.0615890              0.3235720
      0.4203770              1.0601800              0.7435070
SP   1   1.00
      0.1426570              1.0000000              1.0000000
D    1   1.00
      1.5000000              1.0000000
D    1   1.00
      0.3750000              1.0000000
F    1   1.00
      0.7000000              1.0000000
****
}

set {
reference uhf
freeze_core true
e_convergence 10
d_convergence 10
dft_spherical_points 1202
dft_radial_points 99
}

e = energy('b3lyp')

print_out('Grab this energy {0}'.format(e))
--------------------------------------------------------------------------

    Molecular point group: c1

    Geometry (in Bohr), charge = 0, multiplicity = 2:

       Center              X                  Y                   Z               Mass
    ------------   -----------------  -----------------  -----------------  -----------------
         C           -0.323555294073    -0.000002049703    -0.000000047290    12.000000000000
         C            0.060889621027    -1.399567987703    -2.427314085190    12.000000000000
         C            0.060769857127     2.801913056297     0.001600832810    12.000000000000
         C            0.060889824827    -1.402340833303     2.425713334810    12.000000000000
         H            2.091058694427    -1.644847712203    -2.847488311590     1.007825032230
         H           -0.765744062673    -0.390420694403    -4.023991477690     1.007825032230
         H           -0.765517296873    -3.290066209403    -2.349736071190     1.007825032230
         H            2.090919977227     3.288519115497    -0.000625450390     1.007825032230
         H           -0.765984787773     3.680063032097     1.673849887810     1.007825032230
         H           -0.765595522573     3.679935382797    -1.674451747190     1.007825032230
         H            2.091058728527    -1.643764426203     2.848113622510     1.007825032230
         H           -0.765906647373    -3.289608806903     2.350147441510     1.007825032230
         H           -0.765354903873    -0.389835704703     4.024181687810     1.007825032230

  Charge       = 0
  Multiplicity = 2
  Basis Set: ANONYMOUS53C1B48E
    Blend: 6-31G_2DFP_
  Basis Set: (ANONYMOUS53C1B48E AUX)
    Blend: DEF2-UNIVERSAL-JKFIT

    Orbital Energies [Eh]
    ---------------------

    Alpha Occupied:

       1A    -10.180401     2A    -10.167033     3A    -10.167033
       4A    -10.166988     5A     -0.797729     6A     -0.686183
       7A     -0.686182     8A     -0.530769     9A     -0.441025
      10A     -0.434717    11A     -0.434716    12A     -0.382462
      13A     -0.382460    14A     -0.363789    15A     -0.338053
      16A     -0.338053    17A     -0.168998

    Alpha Virtual:

      18A      0.076157    19A      0.134147    20A      0.134148
      21A      0.142703    22A      0.142703    23A      0.154711
      24A      0.178605    25A      0.178605    26A      0.203503
      27A      0.215078    28A      0.275960    29A      0.275961
      30A      0.399107    31A      0.399111    32A      0.403255
      33A      0.424285    34A      0.424286    35A      0.456517
      36A      0.495569    37A      0.495570    38A      0.512035
      39A      0.513833    40A      0.578640    41A      0.578649
      42A      0.591368    43A      0.591370    44A      0.601818
      45A      0.625263    46A      0.632177    47A      0.636616
      48A      0.636620    49A      0.662925    50A      0.662926
      51A      0.684104    52A      0.684105    53A      0.735056
      54A      0.825372    55A      0.825375    56A      0.853637
      57A      0.914800    58A      0.914806    59A      0.944412
      60A      0.944755    61A      0.961187    62A      0.961204
      63A      1.003266    64A      1.128353    65A      1.128366
      66A      1.141499    67A      1.163529    68A      1.163542
      69A      1.223736    70A      1.274249    71A      1.274252
      72A      1.279189    73A      1.324138    74A      1.324140
      75A      1.356502    76A      1.365975    77A      1.365979
      78A      1.392409    79A      1.403025    80A      1.403027
      81A      1.418085    82A      1.418091    83A      1.427690
      84A      1.491440    85A      1.498202    86A      1.542460
      87A      1.542463    88A      1.574815    89A      1.574818
      90A      1.671086    91A      1.738572    92A      1.738584
      93A      1.766466    94A      1.832791    95A      1.832792
      96A      1.972745    97A      2.018217    98A      2.019023
      99A      2.019025   100A      2.051404   101A      2.051406
     102A      2.738804   103A      2.738805   104A      2.790526
     105A      2.811889   106A      2.889575   107A      2.889581
     108A      2.894596   109A      2.929701   110A      2.929709
     111A      2.958866   112A      2.963954   113A      2.963968
     114A      3.033320   115A      3.071248   116A      3.071262
     117A      3.085755   118A      3.168656   119A      3.168663
     120A      3.180540   121A      3.285219   122A      3.285219
     123A      3.327791   124A      3.327797   125A      3.375784
     126A      3.489928   127A      3.489948   128A      3.512777
     129A      3.526552   130A      3.567974   131A      3.567994
     132A      3.574324   133A      3.665999   134A      3.666008
     135A      3.680259   136A      3.694315   137A      3.694332
     138A      3.777216   139A      3.777242   140A      3.788331
     141A      3.912782   142A      3.912788   143A      4.034877
     144A      4.111320   145A      4.111324   146A      4.147508
     147A      4.147516   148A      4.171464   149A      4.202679
     150A      4.203911   151A      4.203914   152A      4.209656
     153A      4.315516   154A      4.315535   155A      4.360212
     156A      4.423725   157A      4.423727   158A      4.443674
     159A      4.516191   160A      4.516191   161A      4.578964
     162A      4.578977   163A      4.617393   164A      4.708941
     165A      4.774723   166A      4.774731   167A      4.838263
     168A      4.963173   169A      5.001632   170A      5.001644
     171A      5.225328   172A      5.249815   173A      5.249815
     174A      5.353547   175A      5.353560   176A      5.481312

    Beta Occupied:

       1A    -10.167788     2A    -10.167787     3A    -10.167763
       4A    -10.166584     5A     -0.781061     6A     -0.683998
       7A     -0.683997     8A     -0.511789     9A     -0.431112
      10A     -0.431112    11A     -0.421665    12A     -0.376522
      13A     -0.376520    14A     -0.362782    15A     -0.333172
      16A     -0.333172

    Beta Virtual:

      17A     -0.025872    18A      0.077183    19A      0.135108
      20A      0.135109    21A      0.144547    22A      0.144547
      23A      0.163191    24A      0.182247    25A      0.182248
      26A      0.215293    27A      0.218891    28A      0.282312
      29A      0.282314    30A      0.400278    31A      0.400282
      32A      0.419799    33A      0.427096    34A      0.427097
      35A      0.468326    36A      0.497839    37A      0.497840
      38A      0.513784    39A      0.556134    40A      0.584218
      41A      0.584226    42A      0.597540    43A      0.597541
      44A      0.609364    45A      0.628508    46A      0.632338
      47A      0.639864    48A      0.639868    49A      0.666520
      50A      0.666520    51A      0.686727    52A      0.686728
      53A      0.757576    54A      0.830562    55A      0.830564
      56A      0.854999    57A      0.922789    58A      0.922796
      59A      0.946242    60A      0.953732    61A      0.966459
      62A      0.966475    63A      1.008466    64A      1.132418
      65A      1.132429    66A      1.154959    67A      1.168578
      68A      1.168590    69A      1.232693    70A      1.279823
      71A      1.279827    72A      1.284886    73A      1.329174
      74A      1.329176    75A      1.365897    76A      1.371290
      77A      1.371294    78A      1.393486    79A      1.406433
      80A      1.406436    81A      1.423102    82A      1.423109
      83A      1.427965    84A      1.492484    85A      1.508631
      86A      1.546900    87A      1.546900    88A      1.582671
      89A      1.582672    90A      1.675984    91A      1.744328
      92A      1.744339    93A      1.777235    94A      1.836647
      95A      1.836649    96A      1.973592    97A      2.025280
      98A      2.025282    99A      2.039584   100A      2.058245
     101A      2.058246   102A      2.747149   103A      2.747150
     104A      2.812253   105A      2.815675   106A      2.902237
     107A      2.902242   108A      2.924107   109A      2.932183
     110A      2.932192   111A      2.959925   112A      2.968463
     113A      2.968476   114A      3.041470   115A      3.081147
     116A      3.081159   117A      3.087571   118A      3.184427
     119A      3.184431   120A      3.188198   121A      3.290048
     122A      3.290048   123A      3.331560   124A      3.331566
     125A      3.383577   126A      3.492619   127A      3.492639
     128A      3.511145   129A      3.529577   130A      3.574179
     131A      3.581485   132A      3.581507   133A      3.670656
     134A      3.670668   135A      3.693528   136A      3.725941
     137A      3.725957   138A      3.781678   139A      3.781704
     140A      3.816904   141A      3.922655   142A      3.922662
     143A      4.045827   144A      4.118139   145A      4.118141
     146A      4.154707   147A      4.154715   148A      4.185550
     149A      4.209970   150A      4.209973   151A      4.210584
     152A      4.214252   153A      4.322892   154A      4.322912
     155A      4.363529   156A      4.431940   157A      4.431942
     158A      4.446504   159A      4.524015   160A      4.524016
     161A      4.589525   162A      4.589537   163A      4.624493
     164A      4.719401   165A      4.781627   166A      4.781635
     167A      4.841168   168A      4.967981   169A      5.005698
     170A      5.005710   171A      5.231008   172A      5.251586
     173A      5.251586   174A      5.359999   175A      5.360013
     176A      5.483621

    Final Occupation by Irrep:
              A
    DOCC [    16 ]
    SOCC [     1 ]

  @DF-UKS Final Energy:  -157.81305834379080

   => Energetics <=

    Nuclear Repulsion Energy =            125.3892846054405936
    One-Electron Energy =                -458.7381731414694741
    Two-Electron Energy =                 195.8428667702999633
    DFT Exchange-Correlation Energy =     -20.3070365780618900
    Empirical Dispersion Energy =           0.0000000000000000
    VV10 Nonlocal Energy =                  0.0000000000000000
    Total Energy =                       -157.8130583437908001

  UHF NO Occupations:
  HONO-2 :   15  A 1.9995985
  HONO-1 :   16  A 1.9989796
  HONO-0 :   17  A 1.0000000
  LUNO+0 :   18  A 0.0010204
  LUNO+1 :   19  A 0.0004015
  LUNO+2 :   20  A 0.0001975
  LUNO+3 :   21  A 0.0001975

Computation Completed

Properties will be evaluated at   0.000000,   0.000000,   0.000000 [a0]

Properties computed using the SCF density matrix

  Nuclear Dipole Moment: [e a0]
     X:     0.8329      Y:    -0.0000      Z:    -0.0000

  Electronic Dipole Moment: [e a0]
     X:    -0.7582      Y:     0.0000      Z:     0.0000

  Dipole Moment: [e a0]
     X:     0.0747      Y:    -0.0000      Z:    -0.0000     Total:     0.0747

  Dipole Moment: [D]
     X:     0.1899      Y:    -0.0000      Z:    -0.0000     Total:     0.1899

*** tstop() called on n022 at Fri Nov  5 12:47:05 2021
Module time:
	user time   =     594.25 seconds =       9.90 minutes
	system time =      11.50 seconds =       0.19 minutes
	total time  =        152 seconds =       2.53 minutes
Total time:
	user time   =     594.25 seconds =       9.90 minutes
	system time =      11.50 seconds =       0.19 minutes
	total time  =        152 seconds =       2.53 minutes
Grab this energy -157.8130583437908
    Psi4 stopped on: Friday, 05 November 2021 12:47PM
    Psi4 wall time for execution: 0:02:32.35

*** Psi4 exiting successfully. Buy a developer a beer!
