                               Psi4 1.4a2.dev629

  ==> Input File <==

--------------------------------------------------------------------------
import os
memory 14 GB

molecule {
 C   -0.3233178723   -0.0000020754    0.0000000179
 C    0.0612333062   -1.4025917795   -2.4261514634
 C    0.0611133703    2.8024178629   -0.0015991691
 C    0.0612331022   -1.3998218665    2.4277504617
 H    2.0837836774   -1.6437402714   -2.8480595803
 H   -0.7636835010   -0.3902400104   -4.0240084841
 H   -0.7642376362   -3.2892547183   -2.3504141621
 H    2.0836450127    3.2884598555    0.0006187188
 H   -0.7639244376    3.6799876812    1.6740157537
 H   -0.7643155966    3.6801169436   -1.6734099887
 H    2.0837836442   -1.6448119488    2.8474409128
 H   -0.7638463927   -3.2897147473    2.3499993537
 H   -0.7640745535   -0.3908292392    4.0238176292
units bohr
0 2
}

basis {

assign 6-31g_2dfp_

[ 6-31g_2dfp_ ]

spherical

!----------------------------------------------------------------------
! Basis Set Exchange
! Version v0.8.13
! https://www.basissetexchange.org
!----------------------------------------------------------------------
!   Basis set: 6-31G(2df,p)
! Description: 6-31G(2df,p)
!        Role: orbital
!     Version: 0  (Data from the original Basis Set Exchange)
!----------------------------------------------------------------------

****
H     0
S    3   1.00
     18.7311370              0.03349460
      2.8253937              0.23472695
      0.6401217              0.81375733
S    1   1.00
      0.1612778              1.00000000
P    1   1.00
      1.5000000              1.0000000
P    1   1.00
      0.3750000              1.0000000
****
B     0
S    6   1.00
   2068.8823000              0.0018663
    310.6495700              0.0142515
     70.6830330              0.0695516
     19.8610800              0.2325729
      6.2993048              0.4670787
      2.1270270              0.3634314
SP   3   1.00
      4.7279710             -0.1303938              0.0745976
      1.1903377             -0.1307889              0.3078467
      0.3594117              1.1309444              0.7434568
SP   1   1.00
      0.1267512              1.0000000              1.0000000
D    1   1.00
      0.8020000              1.0000000
D    1   1.00
      0.2005000              1.0000000
F    1   1.00
      0.5000000              1.0000000
****
C     0
S    6   1.00
   3047.5249000              0.0018347
    457.3695100              0.0140373
    103.9486900              0.0688426
     29.2101550              0.2321844
      9.2866630              0.4679413
      3.1639270              0.3623120
SP   3   1.00
      7.8682724             -0.1193324              0.0689991
      1.8812885             -0.1608542              0.3164240
      0.5442493              1.1434564              0.7443083
SP   1   1.00
      0.1687144              1.0000000              1.0000000
D    1   1.00
      1.2520000              1.0000000
D    1   1.00
      0.3130000              1.0000000
F    1   1.00
      0.8000000              1.0000000
****
N     0
S    6   1.00
   4173.5110000              0.0018348
    627.4579000              0.0139950
    142.9021000              0.0685870
     40.2343300              0.2322410
     12.8202100              0.4690700
      4.3904370              0.3604550
SP   3   1.00
     11.6263580             -0.1149610              0.0675800
      2.7162800             -0.1691180              0.3239070
      0.7722180              1.1458520              0.7408950
SP   1   1.00
      0.2120313              1.0000000              1.0000000
D    1   1.00
      1.8260000              1.0000000
D    1   1.00
      0.4565000              1.0000000
F    1   1.00
      1.0000000              1.0000000
****
O     0
S    6   1.00
   5484.6717000              0.0018311
    825.2349500              0.0139501
    188.0469600              0.0684451
     52.9645000              0.2327143
     16.8975700              0.4701930
      5.7996353              0.3585209
SP   3   1.00
     15.5396160             -0.1107775              0.0708743
      3.5999336             -0.1480263              0.3397528
      1.0137618              1.1307670              0.7271586
SP   1   1.00
      0.2700058              1.0000000              1.0000000
D    1   1.00
      2.5840000              1.0000000
D    1   1.00
      0.6460000              1.0000000
F    1   1.00
      1.4000000              1.0000000
****
F     0
S    6   1.00
   7001.7130900              0.0018196169
   1051.3660900              0.0139160796
    239.2856900              0.0684053245
     67.3974453              0.233185760
     21.5199573              0.471267439
      7.40310130             0.356618546
SP   3   1.00
     20.8479528             -0.108506975            0.0716287243
      4.80830834            -0.146451658            0.3459121030
      1.34406986             1.128688580            0.7224699570
SP   1   1.00
      0.358151393            1.0000000              1.0000000
D    1   1.00
      3.5000000              1.0000000
D    1   1.00
      0.8750000              1.0000000
F    1   1.00
      1.8500000              1.0000000
****
Al     0
S    6   1.00
  13983.1000000              0.00194267
   2098.7500000              0.0148599
    477.7050000              0.0728494
    134.3600000              0.2468300
     42.8709000              0.4872580
     14.5189000              0.3234960
SP   6   1.00
    239.6680000             -0.00292619             0.00460285
     57.4419000             -0.0374080              0.0331990
     18.2859000             -0.1144870              0.1362820
      6.5991400              0.1156350              0.3304760
      2.4904900              0.6125950              0.4491460
      0.9445400              0.3937990              0.2657040
SP   3   1.00
      1.2779000             -0.2276060             -0.0175130
      0.3975900              0.00144583             0.2445330
      0.1600950              1.0927900              0.8049340
SP   1   1.00
      0.0556577              1.0000000              1.0000000
D    1   1.00
      0.6500000              1.0000000
D    1   1.00
      0.1625000              1.0000000
F    1   1.00
      0.2500000              1.0000000
****
Si     0
S    6   1.00
  16115.9000000              0.00195948
   2425.5800000              0.01492880
    553.8670000              0.07284780
    156.3400000              0.24613000
     50.0683000              0.48591400
     17.0178000              0.32500200
SP   6   1.00
    292.7180000             -0.00278094             0.00443826
     69.8731000             -0.03571460             0.03266790
     22.3363000             -0.11498500             0.13472100
      8.1503900              0.09356340             0.32867800
      3.1345800              0.60301700             0.44964000
      1.2254300              0.41895900             0.26137200
SP   3   1.00
      1.7273800             -0.24463000            -0.01779510
      0.5729220              0.00431572             0.25353900
      0.2221920              1.09818000             0.80066900
SP   1   1.00
      0.0778369              1.00000000             1.00000000
D    1   1.00
      0.9000000              1.0000000
D    1   1.00
      0.2250000              1.0000000
F    1   1.00
      0.3200000              1.0000000
****
P     0
S    6   1.00
  19413.3000000              0.0018516
   2909.4200000              0.0142062
    661.3640000              0.0699995
    185.7590000              0.2400790
     59.1943000              0.4847620
     20.0310000              0.3352000
SP   6   1.00
    339.4780000             -0.00278217             0.00456462
     81.0101000             -0.0360499              0.03369360
     25.8780000             -0.1166310              0.13975500
      9.4522100              0.0968328              0.33936200
      3.6656600              0.6144180              0.45092100
      1.4674600              0.4037980              0.23858600
SP   3   1.00
      2.1562300             -0.2529230             -0.01776530
      0.7489970              0.0328517              0.27405800
      0.2831450              1.0812500              0.78542100
SP   1   1.00
      0.0998317              1.0000000              1.00000000
D    1   1.00
      1.1000000              1.0000000
D    1   1.00
      0.2750000              1.0000000
F    1   1.00
      0.4500000              1.0000000
****
S     0
S    6   1.00
  21917.1000000              0.0018690
   3301.4900000              0.0142300
    754.1460000              0.0696960
    212.7110000              0.2384870
     67.9896000              0.4833070
     23.0515000              0.3380740
SP   6   1.00
    423.7350000             -0.0023767              0.0040610
    100.7100000             -0.0316930              0.0306810
     32.1599000             -0.1133170              0.1304520
     11.8079000              0.0560900              0.3272050
      4.6311000              0.5922550              0.4528510
      1.8702500              0.4550060              0.2560420
SP   3   1.00
      2.6158400             -0.2503740             -0.0145110
      0.9221670              0.0669570              0.3102630
      0.3412870              1.0545100              0.7544830
SP   1   1.00
      0.1171670              1.0000000              1.0000000
D    1   1.00
      1.3000000              1.0000000
D    1   1.00
      0.3250000              1.0000000
F    1   1.00
      0.5500000              1.0000000
****
Cl     0
S    6   1.00
  25180.1000000              0.0018330
   3780.3500000              0.0140340
    860.4740000              0.0690970
    242.1450000              0.2374520
     77.3349000              0.4830340
     26.2470000              0.3398560
SP   6   1.00
    491.7650000             -0.0022974              0.0039894
    116.9840000             -0.0307140              0.0303180
     37.4153000             -0.1125280              0.1298800
     13.7834000              0.0450160              0.3279510
      5.4521500              0.5893530              0.4535270
      2.2258800              0.4652060              0.2521540
SP   3   1.00
      3.1864900             -0.2518300             -0.0142990
      1.1442700              0.0615890              0.3235720
      0.4203770              1.0601800              0.7435070
SP   1   1.00
      0.1426570              1.0000000              1.0000000
D    1   1.00
      1.5000000              1.0000000
D    1   1.00
      0.3750000              1.0000000
F    1   1.00
      0.7000000              1.0000000
****
}

set {
reference uhf
freeze_core true
e_convergence 10
d_convergence 10
dft_spherical_points 1202
dft_radial_points 99
}

e = energy('b3lyp')

print_out('Grab this energy {0}'.format(e))
--------------------------------------------------------------------------

    Molecular point group: c1

    Geometry (in Bohr), charge = 0, multiplicity = 2:

       Center              X                  Y                   Z               Mass
    ------------   -----------------  -----------------  -----------------  -----------------
         C           -0.323376018725    -0.000002058507     0.000000047348    12.000000000000
         C            0.061175159775    -1.402591762607    -2.426151433952    12.000000000000
         C            0.061055223875     2.802417879793    -0.001599139652    12.000000000000
         C            0.061174955775    -1.399821849607     2.427750491148    12.000000000000
         H            2.083725530975    -1.643740254507    -2.848059550852     1.007825032230
         H           -0.763741647425    -0.390239993507    -4.024008454652     1.007825032230
         H           -0.764295782625    -3.289254701407    -2.350414132652     1.007825032230
         H            2.083586866275     3.288459872393     0.000618748248     1.007825032230
         H           -0.763982584025     3.679987698093     1.674015783148     1.007825032230
         H           -0.764373743025     3.680116960493    -1.673409959252     1.007825032230
         H            2.083725497775    -1.644811931907     2.847440942248     1.007825032230
         H           -0.763904539125    -3.289714730407     2.349999383148     1.007825032230
         H           -0.764132699925    -0.390829222307     4.023817658648     1.007825032230

  Charge       = 0
  Multiplicity = 2
  Basis Set: ANONYMOUS8D1129C9
    Blend: 6-31G_2DFP_
  Basis Set: (ANONYMOUS8D1129C9 AUX)
    Blend: DEF2-UNIVERSAL-JKFIT

    Orbital Energies [Eh]
    ---------------------

    Alpha Occupied:

       1A    -10.180274     2A    -10.166494     3A    -10.166494
       4A    -10.166449     5A     -0.797727     6A     -0.686547
       7A     -0.686547     8A     -0.531087     9A     -0.441225
      10A     -0.434811    11A     -0.434810    12A     -0.382858
      13A     -0.382857    14A     -0.363926    15A     -0.338004
      16A     -0.338004    17A     -0.168899

    Alpha Virtual:

      18A      0.076403    19A      0.134520    20A      0.134521
      21A      0.143039    22A      0.143039    23A      0.155177
      24A      0.179285    25A      0.179286    26A      0.203435
      27A      0.215259    28A      0.276008    29A      0.276009
      30A      0.399172    31A      0.399176    32A      0.403550
      33A      0.424371    34A      0.424371    35A      0.456724
      36A      0.495614    37A      0.495615    38A      0.512424
      39A      0.514119    40A      0.579149    41A      0.579158
      42A      0.592234    43A      0.592235    44A      0.603224
      45A      0.625731    46A      0.632492    47A      0.636807
      48A      0.636811    49A      0.663748    50A      0.663749
      51A      0.684407    52A      0.684408    53A      0.735304
      54A      0.826223    55A      0.826226    56A      0.854431
      57A      0.915736    58A      0.915742    59A      0.944752
      60A      0.945406    61A      0.961939    62A      0.961956
      63A      1.003553    64A      1.128523    65A      1.128536
      66A      1.143090    67A      1.163518    68A      1.163531
      69A      1.223765    70A      1.275024    71A      1.275027
      72A      1.278896    73A      1.325062    74A      1.325064
      75A      1.356841    76A      1.366555    77A      1.366559
      78A      1.393044    79A      1.405081    80A      1.405083
      81A      1.418029    82A      1.418035    83A      1.428655
      84A      1.492351    85A      1.500476    86A      1.543314
      87A      1.543315    88A      1.574647    89A      1.574649
      90A      1.671982    91A      1.740846    92A      1.740858
      93A      1.769856    94A      1.833889    95A      1.833890
      96A      1.973356    97A      2.019383    98A      2.020246
      99A      2.020249   100A      2.053719   101A      2.053720
     102A      2.739465   103A      2.739465   104A      2.791130
     105A      2.811948   106A      2.890507   107A      2.890513
     108A      2.895015   109A      2.929883   110A      2.929892
     111A      2.959624   112A      2.965034   113A      2.965048
     114A      3.034923   115A      3.072233   116A      3.072247
     117A      3.085278   118A      3.168126   119A      3.168133
     120A      3.180884   121A      3.285278   122A      3.285278
     123A      3.326658   124A      3.326664   125A      3.374915
     126A      3.489156   127A      3.489176   128A      3.513696
     129A      3.524742   130A      3.568564   131A      3.568584
     132A      3.573483   133A      3.667072   134A      3.667080
     135A      3.681461   136A      3.694977   137A      3.694992
     138A      3.777339   139A      3.777365   140A      3.789676
     141A      3.913158   142A      3.913164   143A      4.036789
     144A      4.113839   145A      4.113844   146A      4.151445
     147A      4.151453   148A      4.176229   149A      4.204069
     150A      4.204519   151A      4.204522   152A      4.214555
     153A      4.318201   154A      4.318221   155A      4.361392
     156A      4.427029   157A      4.427031   158A      4.445435
     159A      4.519269   160A      4.519271   161A      4.579746
     162A      4.579759   163A      4.618203   164A      4.711492
     165A      4.776363   166A      4.776371   167A      4.839226
     168A      4.963678   169A      5.004050   170A      5.004062
     171A      5.233333   172A      5.252111   173A      5.252111
     174A      5.360096   175A      5.360109   176A      5.482596

    Beta Occupied:

       1A    -10.167244     2A    -10.167243     3A    -10.167229
       4A    -10.166431     5A     -0.781079     6A     -0.684348
       7A     -0.684348     8A     -0.512000     9A     -0.431190
      10A     -0.431190    11A     -0.421958    12A     -0.376952
      13A     -0.376951    14A     -0.362913    15A     -0.333118
      16A     -0.333118

    Beta Virtual:

      17A     -0.025510    18A      0.077409    19A      0.135418
      20A      0.135419    21A      0.144881    22A      0.144882
      23A      0.163574    24A      0.182947    25A      0.182947
      26A      0.215479    27A      0.218845    28A      0.282365
      29A      0.282367    30A      0.400336    31A      0.400340
      32A      0.420013    33A      0.427184    34A      0.427184
      35A      0.468614    36A      0.497873    37A      0.497874
      38A      0.514160    39A      0.556516    40A      0.584716
      41A      0.584724    42A      0.598435    43A      0.598435
      44A      0.610634    45A      0.629088    46A      0.632649
      47A      0.640072    48A      0.640076    49A      0.667317
      50A      0.667317    51A      0.687006    52A      0.687008
      53A      0.757852    54A      0.831390    55A      0.831392
      56A      0.855760    57A      0.923693    58A      0.923700
      59A      0.946589    60A      0.954357    61A      0.967237
      62A      0.967253    63A      1.008805    64A      1.132538
      65A      1.132550    66A      1.156460    67A      1.168620
      68A      1.168633    69A      1.232721    70A      1.280609
      71A      1.280613    72A      1.284636    73A      1.330078
      74A      1.330080    75A      1.366279    76A      1.371796
      77A      1.371800    78A      1.394099    79A      1.408543
      80A      1.408545    81A      1.423080    82A      1.423086
      83A      1.428913    84A      1.493423    85A      1.510902
      86A      1.547592    87A      1.547593    88A      1.582626
      89A      1.582627    90A      1.676905    91A      1.746614
      92A      1.746625    93A      1.780578    94A      1.837714
      95A      1.837715    96A      1.974212    97A      2.026632
      98A      2.026635    99A      2.040736   100A      2.060431
     101A      2.060432   102A      2.747812   103A      2.747814
     104A      2.812318   105A      2.816336   106A      2.903238
     107A      2.903244   108A      2.924764   109A      2.932313
     110A      2.932322   111A      2.960692   112A      2.969620
     113A      2.969634   114A      3.042777   115A      3.082205
     116A      3.082217   117A      3.087099   118A      3.183834
     119A      3.183838   120A      3.188613   121A      3.290022
     122A      3.290022   123A      3.330470   124A      3.330475
     125A      3.382758   126A      3.491932   127A      3.491952
     128A      3.512074   129A      3.527794   130A      3.573340
     131A      3.581920   132A      3.581942   133A      3.672107
     134A      3.672119   135A      3.694818   136A      3.726440
     137A      3.726455   138A      3.781848   139A      3.781874
     140A      3.818251   141A      3.922960   142A      3.922968
     143A      4.047801   144A      4.120732   145A      4.120734
     146A      4.158620   147A      4.158629   148A      4.190145
     149A      4.210452   150A      4.210455   151A      4.211965
     152A      4.219001   153A      4.325559   154A      4.325579
     155A      4.364745   156A      4.435218   157A      4.435220
     158A      4.448297   159A      4.527048   160A      4.527050
     161A      4.590316   162A      4.590328   163A      4.625387
     164A      4.721831   165A      4.783313   166A      4.783320
     167A      4.842148   168A      4.968446   169A      5.008069
     170A      5.008081   171A      5.239025   172A      5.253889
     173A      5.253890   174A      5.366548   175A      5.366562
     176A      5.484906

    Final Occupation by Irrep:
              A
    DOCC [    16 ]
    SOCC [     1 ]

  @DF-UKS Final Energy:  -157.81302071492837

   => Energetics <=

    Nuclear Repulsion Energy =            125.4320374350255349
    One-Electron Energy =                -458.8198036778604774
    Two-Electron Energy =                 195.8859181091723940
    DFT Exchange-Correlation Energy =     -20.3111725812658435
    Empirical Dispersion Energy =           0.0000000000000000
    VV10 Nonlocal Energy =                  0.0000000000000000
    Total Energy =                       -157.8130207149283706

  UHF NO Occupations:
  HONO-2 :   15  A 1.9996034
  HONO-1 :   16  A 1.9989798
  HONO-0 :   17  A 1.0000000
  LUNO+0 :   18  A 0.0010202
  LUNO+1 :   19  A 0.0003966
  LUNO+2 :   20  A 0.0001979
  LUNO+3 :   21  A 0.0001979

Computation Completed

Properties will be evaluated at   0.000000,   0.000000,   0.000000 [a0]

Properties computed using the SCF density matrix

  Nuclear Dipole Moment: [e a0]
     X:     0.8268      Y:    -0.0000      Z:     0.0000

  Electronic Dipole Moment: [e a0]
     X:    -0.7482      Y:     0.0000      Z:    -0.0000

  Dipole Moment: [e a0]
     X:     0.0785      Y:    -0.0000      Z:     0.0000     Total:     0.0785

  Dipole Moment: [D]
     X:     0.1996      Y:    -0.0000      Z:     0.0000     Total:     0.1996

*** tstop() called on n079 at Fri Nov  5 12:46:53 2021
Module time:
	user time   =     554.50 seconds =       9.24 minutes
	system time =       5.32 seconds =       0.09 minutes
	total time  =        141 seconds =       2.35 minutes
Total time:
	user time   =     554.50 seconds =       9.24 minutes
	system time =       5.32 seconds =       0.09 minutes
	total time  =        141 seconds =       2.35 minutes
Grab this energy -157.81302071492837
    Psi4 stopped on: Friday, 05 November 2021 12:46PM
    Psi4 wall time for execution: 0:02:20.75

*** Psi4 exiting successfully. Buy a developer a beer!
