                               Psi4 1.4a2.dev629

  ==> Input File <==

--------------------------------------------------------------------------
import os
memory 14 GB

molecule {
 C   -0.3233388986   -0.0000018702   -0.0051195432
 C    0.0611568884   -1.4016119249   -2.4282819329
 C    0.0610196606    2.8017565120   -0.0006239059
 C    0.0611227759   -1.4001382164    2.4244810690
 H    2.0872107948   -1.6438932938   -2.8462767344
 H   -0.7658541956   -0.3872287297   -4.0240649877
 H   -0.7652458120   -3.2922529526   -2.3478544627
 H    2.0867976024    3.2881011277    0.0008151204
 H   -0.7648715869    3.6811192781    1.6771412063
 H   -0.7664218007    3.6793809427   -1.6758605391
 H    2.0866579413   -1.6443004964    2.8486124728
 H   -0.7658915527   -3.2917379487    2.3501298364
 H   -0.7649496936   -0.3892167414    4.0269024010
units bohr
0 2
}

basis {

assign 6-31g_2dfp_

[ 6-31g_2dfp_ ]

spherical

!----------------------------------------------------------------------
! Basis Set Exchange
! Version v0.8.13
! https://www.basissetexchange.org
!----------------------------------------------------------------------
!   Basis set: 6-31G(2df,p)
! Description: 6-31G(2df,p)
!        Role: orbital
!     Version: 0  (Data from the original Basis Set Exchange)
!----------------------------------------------------------------------

****
H     0
S    3   1.00
     18.7311370              0.03349460
      2.8253937              0.23472695
      0.6401217              0.81375733
S    1   1.00
      0.1612778              1.00000000
P    1   1.00
      1.5000000              1.0000000
P    1   1.00
      0.3750000              1.0000000
****
B     0
S    6   1.00
   2068.8823000              0.0018663
    310.6495700              0.0142515
     70.6830330              0.0695516
     19.8610800              0.2325729
      6.2993048              0.4670787
      2.1270270              0.3634314
SP   3   1.00
      4.7279710             -0.1303938              0.0745976
      1.1903377             -0.1307889              0.3078467
      0.3594117              1.1309444              0.7434568
SP   1   1.00
      0.1267512              1.0000000              1.0000000
D    1   1.00
      0.8020000              1.0000000
D    1   1.00
      0.2005000              1.0000000
F    1   1.00
      0.5000000              1.0000000
****
C     0
S    6   1.00
   3047.5249000              0.0018347
    457.3695100              0.0140373
    103.9486900              0.0688426
     29.2101550              0.2321844
      9.2866630              0.4679413
      3.1639270              0.3623120
SP   3   1.00
      7.8682724             -0.1193324              0.0689991
      1.8812885             -0.1608542              0.3164240
      0.5442493              1.1434564              0.7443083
SP   1   1.00
      0.1687144              1.0000000              1.0000000
D    1   1.00
      1.2520000              1.0000000
D    1   1.00
      0.3130000              1.0000000
F    1   1.00
      0.8000000              1.0000000
****
N     0
S    6   1.00
   4173.5110000              0.0018348
    627.4579000              0.0139950
    142.9021000              0.0685870
     40.2343300              0.2322410
     12.8202100              0.4690700
      4.3904370              0.3604550
SP   3   1.00
     11.6263580             -0.1149610              0.0675800
      2.7162800             -0.1691180              0.3239070
      0.7722180              1.1458520              0.7408950
SP   1   1.00
      0.2120313              1.0000000              1.0000000
D    1   1.00
      1.8260000              1.0000000
D    1   1.00
      0.4565000              1.0000000
F    1   1.00
      1.0000000              1.0000000
****
O     0
S    6   1.00
   5484.6717000              0.0018311
    825.2349500              0.0139501
    188.0469600              0.0684451
     52.9645000              0.2327143
     16.8975700              0.4701930
      5.7996353              0.3585209
SP   3   1.00
     15.5396160             -0.1107775              0.0708743
      3.5999336             -0.1480263              0.3397528
      1.0137618              1.1307670              0.7271586
SP   1   1.00
      0.2700058              1.0000000              1.0000000
D    1   1.00
      2.5840000              1.0000000
D    1   1.00
      0.6460000              1.0000000
F    1   1.00
      1.4000000              1.0000000
****
F     0
S    6   1.00
   7001.7130900              0.0018196169
   1051.3660900              0.0139160796
    239.2856900              0.0684053245
     67.3974453              0.233185760
     21.5199573              0.471267439
      7.40310130             0.356618546
SP   3   1.00
     20.8479528             -0.108506975            0.0716287243
      4.80830834            -0.146451658            0.3459121030
      1.34406986             1.128688580            0.7224699570
SP   1   1.00
      0.358151393            1.0000000              1.0000000
D    1   1.00
      3.5000000              1.0000000
D    1   1.00
      0.8750000              1.0000000
F    1   1.00
      1.8500000              1.0000000
****
Al     0
S    6   1.00
  13983.1000000              0.00194267
   2098.7500000              0.0148599
    477.7050000              0.0728494
    134.3600000              0.2468300
     42.8709000              0.4872580
     14.5189000              0.3234960
SP   6   1.00
    239.6680000             -0.00292619             0.00460285
     57.4419000             -0.0374080              0.0331990
     18.2859000             -0.1144870              0.1362820
      6.5991400              0.1156350              0.3304760
      2.4904900              0.6125950              0.4491460
      0.9445400              0.3937990              0.2657040
SP   3   1.00
      1.2779000             -0.2276060             -0.0175130
      0.3975900              0.00144583             0.2445330
      0.1600950              1.0927900              0.8049340
SP   1   1.00
      0.0556577              1.0000000              1.0000000
D    1   1.00
      0.6500000              1.0000000
D    1   1.00
      0.1625000              1.0000000
F    1   1.00
      0.2500000              1.0000000
****
Si     0
S    6   1.00
  16115.9000000              0.00195948
   2425.5800000              0.01492880
    553.8670000              0.07284780
    156.3400000              0.24613000
     50.0683000              0.48591400
     17.0178000              0.32500200
SP   6   1.00
    292.7180000             -0.00278094             0.00443826
     69.8731000             -0.03571460             0.03266790
     22.3363000             -0.11498500             0.13472100
      8.1503900              0.09356340             0.32867800
      3.1345800              0.60301700             0.44964000
      1.2254300              0.41895900             0.26137200
SP   3   1.00
      1.7273800             -0.24463000            -0.01779510
      0.5729220              0.00431572             0.25353900
      0.2221920              1.09818000             0.80066900
SP   1   1.00
      0.0778369              1.00000000             1.00000000
D    1   1.00
      0.9000000              1.0000000
D    1   1.00
      0.2250000              1.0000000
F    1   1.00
      0.3200000              1.0000000
****
P     0
S    6   1.00
  19413.3000000              0.0018516
   2909.4200000              0.0142062
    661.3640000              0.0699995
    185.7590000              0.2400790
     59.1943000              0.4847620
     20.0310000              0.3352000
SP   6   1.00
    339.4780000             -0.00278217             0.00456462
     81.0101000             -0.0360499              0.03369360
     25.8780000             -0.1166310              0.13975500
      9.4522100              0.0968328              0.33936200
      3.6656600              0.6144180              0.45092100
      1.4674600              0.4037980              0.23858600
SP   3   1.00
      2.1562300             -0.2529230             -0.01776530
      0.7489970              0.0328517              0.27405800
      0.2831450              1.0812500              0.78542100
SP   1   1.00
      0.0998317              1.0000000              1.00000000
D    1   1.00
      1.1000000              1.0000000
D    1   1.00
      0.2750000              1.0000000
F    1   1.00
      0.4500000              1.0000000
****
S     0
S    6   1.00
  21917.1000000              0.0018690
   3301.4900000              0.0142300
    754.1460000              0.0696960
    212.7110000              0.2384870
     67.9896000              0.4833070
     23.0515000              0.3380740
SP   6   1.00
    423.7350000             -0.0023767              0.0040610
    100.7100000             -0.0316930              0.0306810
     32.1599000             -0.1133170              0.1304520
     11.8079000              0.0560900              0.3272050
      4.6311000              0.5922550              0.4528510
      1.8702500              0.4550060              0.2560420
SP   3   1.00
      2.6158400             -0.2503740             -0.0145110
      0.9221670              0.0669570              0.3102630
      0.3412870              1.0545100              0.7544830
SP   1   1.00
      0.1171670              1.0000000              1.0000000
D    1   1.00
      1.3000000              1.0000000
D    1   1.00
      0.3250000              1.0000000
F    1   1.00
      0.5500000              1.0000000
****
Cl     0
S    6   1.00
  25180.1000000              0.0018330
   3780.3500000              0.0140340
    860.4740000              0.0690970
    242.1450000              0.2374520
     77.3349000              0.4830340
     26.2470000              0.3398560
SP   6   1.00
    491.7650000             -0.0022974              0.0039894
    116.9840000             -0.0307140              0.0303180
     37.4153000             -0.1125280              0.1298800
     13.7834000              0.0450160              0.3279510
      5.4521500              0.5893530              0.4535270
      2.2258800              0.4652060              0.2521540
SP   3   1.00
      3.1864900             -0.2518300             -0.0142990
      1.1442700              0.0615890              0.3235720
      0.4203770              1.0601800              0.7435070
SP   1   1.00
      0.1426570              1.0000000              1.0000000
D    1   1.00
      1.5000000              1.0000000
D    1   1.00
      0.3750000              1.0000000
F    1   1.00
      0.7000000              1.0000000
****
}

set {
reference uhf
freeze_core true
e_convergence 10
d_convergence 10
dft_spherical_points 1202
dft_radial_points 99
}

e = energy('b3lyp')

print_out('Grab this energy {0}'.format(e))
--------------------------------------------------------------------------

    Molecular point group: c1

    Geometry (in Bohr), charge = 0, multiplicity = 2:

       Center              X                  Y                   Z               Mass
    ------------   -----------------  -----------------  -----------------  -----------------
         C           -0.323338977789    -0.000002307667    -0.003281239772    12.000000000000
         C            0.061156809211    -1.401612362367    -2.426443629472    12.000000000000
         C            0.061019581411     2.801756074533     0.001214397528    12.000000000000
         C            0.061122696711    -1.400138653867     2.426319372428    12.000000000000
         H            2.087210715611    -1.643893731267    -2.844438430972     1.007825032230
         H           -0.765854274789    -0.387229167167    -4.022226684272     1.007825032230
         H           -0.765245891189    -3.292253390067    -2.346016159272     1.007825032230
         H            2.086797523211     3.288100690233     0.002653423828     1.007825032230
         H           -0.764871666089     3.681118840633     1.678979509728     1.007825032230
         H           -0.766421879889     3.679380505233    -1.674022235672     1.007825032230
         H            2.086657862111    -1.644300933867     2.850450776228     1.007825032230
         H           -0.765891631889    -3.291738386167     2.351968139828     1.007825032230
         H           -0.764949772789    -0.389217178867     4.028740704428     1.007825032230

  Charge       = 0
  Multiplicity = 2
  Basis Set: ANONYMOUS5B7E0FEE
    Blend: 6-31G_2DFP_
  Basis Set: (ANONYMOUS5B7E0FEE AUX)
    Blend: DEF2-UNIVERSAL-JKFIT

    Orbital Energies [Eh]
    ---------------------

    Alpha Occupied:

       1A    -10.180342     2A    -10.167084     3A    -10.167017
       4A    -10.166944     5A     -0.797767     6A     -0.686399
       7A     -0.685974     8A     -0.530775     9A     -0.441129
      10A     -0.434965    11A     -0.434374    12A     -0.382806
      13A     -0.382393    14A     -0.363611    15A     -0.338309
      16A     -0.337686    17A     -0.168961

    Alpha Virtual:

      18A      0.076072    19A      0.134153    20A      0.134160
      21A      0.142516    22A      0.142739    23A      0.154879
      24A      0.178689    25A      0.178867    26A      0.203546
      27A      0.214803    28A      0.275921    29A      0.276047
      30A      0.399115    31A      0.399344    32A      0.403344
      33A      0.424054    34A      0.424142    35A      0.456593
      36A      0.495363    37A      0.495416    38A      0.512161
      39A      0.513978    40A      0.578660    41A      0.578975
      42A      0.591579    43A      0.591694    44A      0.602572
      45A      0.624758    46A      0.631768    47A      0.636239
      48A      0.636267    49A      0.663284    50A      0.663540
      51A      0.683823    52A      0.683881    53A      0.734993
      54A      0.825245    55A      0.825570    56A      0.853917
      57A      0.914893    58A      0.915149    59A      0.944126
      60A      0.944620    61A      0.961085    62A      0.961501
      63A      1.003451    64A      1.127892    65A      1.128242
      66A      1.142322    67A      1.163162    68A      1.163363
      69A      1.223333    70A      1.273711    71A      1.275245
      72A      1.279390    73A      1.324328    74A      1.324388
      75A      1.355989    76A      1.365940    77A      1.366175
      78A      1.392458    79A      1.403820    80A      1.404276
      81A      1.416633    82A      1.417576    83A      1.427915
      84A      1.491492    85A      1.499081    86A      1.542760
      87A      1.542894    88A      1.574233    89A      1.574663
      90A      1.669824    91A      1.739084    92A      1.739760
      93A      1.768304    94A      1.830630    95A      1.832160
      96A      1.971739    97A      2.017925    98A      2.018321
      99A      2.020163   100A      2.052493   101A      2.052791
     102A      2.738128   103A      2.738847   104A      2.790923
     105A      2.811423   106A      2.889467   107A      2.890433
     108A      2.894944   109A      2.929166   110A      2.929824
     111A      2.958994   112A      2.964145   113A      2.964610
     114A      3.034003   115A      3.070646   116A      3.071928
     117A      3.084354   118A      3.168523   119A      3.169036
     120A      3.180593   121A      3.285028   122A      3.285604
     123A      3.326586   124A      3.327727   125A      3.375612
     126A      3.489954   127A      3.490350   128A      3.513997
     129A      3.525343   130A      3.568078   131A      3.568708
     132A      3.575156   133A      3.665988   134A      3.666741
     135A      3.679658   136A      3.694032   137A      3.694231
     138A      3.776235   139A      3.777346   140A      3.789155
     141A      3.911945   142A      3.912519   143A      4.034437
     144A      4.111200   145A      4.111524   146A      4.147454
     147A      4.148815   148A      4.173242   149A      4.202591
     150A      4.203073   151A      4.203150   152A      4.210859
     153A      4.315803   154A      4.316126   155A      4.358960
     156A      4.423494   157A      4.425237   158A      4.443614
     159A      4.516324   160A      4.517372   161A      4.577968
     162A      4.578363   163A      4.617731   164A      4.709451
     165A      4.773712   166A      4.775464   167A      4.836921
     168A      4.962721   169A      5.002568   170A      5.003483
     171A      5.228038   172A      5.246642   173A      5.246982
     174A      5.355006   175A      5.355997   176A      5.479341

    Beta Occupied:

       1A    -10.167841     2A    -10.167775     3A    -10.167708
       4A    -10.166520     5A     -0.781093     6A     -0.684195
       7A     -0.683783     8A     -0.511747     9A     -0.431338
      10A     -0.430749    11A     -0.421820    12A     -0.376870
      13A     -0.376499    14A     -0.362594    15A     -0.333442
      16A     -0.332800

    Beta Virtual:

      17A     -0.025742    18A      0.077081    19A      0.135045
      20A      0.135047    21A      0.144380    22A      0.144615
      23A      0.163338    24A      0.182361    25A      0.182538
      26A      0.215033    27A      0.218928    28A      0.282294
      29A      0.282370    30A      0.400284    31A      0.400513
      32A      0.419791    33A      0.426875    34A      0.426943
      35A      0.468501    36A      0.497627    37A      0.497672
      38A      0.513896    39A      0.556323    40A      0.584193
      41A      0.584543    42A      0.597748    43A      0.597882
      44A      0.609997    45A      0.628132    46A      0.631927
      47A      0.639533    48A      0.639543    49A      0.666848
      50A      0.667103    51A      0.686444    52A      0.686530
      53A      0.757517    54A      0.830413    55A      0.830740
      56A      0.855270    57A      0.922835    58A      0.923149
      59A      0.945963    60A      0.953547    61A      0.966388
      62A      0.966812    63A      1.008691    64A      1.131965
      65A      1.132269    66A      1.155656    67A      1.168259
      68A      1.168412    69A      1.232305    70A      1.279361
      71A      1.280798    72A      1.285135    73A      1.329315
      74A      1.329380    75A      1.365405    76A      1.371204
      77A      1.371397    78A      1.393515    79A      1.407282
      80A      1.407744    81A      1.421708    82A      1.422600
      83A      1.428185    84A      1.492540    85A      1.509524
      86A      1.547166    87A      1.547304    88A      1.582126
      89A      1.582514    90A      1.674671    91A      1.744838
      92A      1.745529    93A      1.779084    94A      1.834481
      95A      1.836020    96A      1.972598    97A      2.024349
      98A      2.026557    99A      2.039684   100A      2.059195
     101A      2.059519   102A      2.746455   103A      2.747191
     104A      2.811835   105A      2.816059   106A      2.902222
     107A      2.903057   108A      2.924649   109A      2.931577
     110A      2.932376   111A      2.960056   112A      2.968677
     113A      2.969167   114A      3.041938   115A      3.080637
     116A      3.081753   117A      3.086172   118A      3.184347
     119A      3.184706   120A      3.188282   121A      3.289840
     122A      3.290389   123A      3.330397   124A      3.331525
     125A      3.383430   126A      3.492698   127A      3.493066
     128A      3.512365   129A      3.528388   130A      3.574988
     131A      3.581458   132A      3.582035   133A      3.670631
     134A      3.671596   135A      3.692961   136A      3.725739
     137A      3.725774   138A      3.780825   139A      3.781832
     140A      3.817670   141A      3.921813   142A      3.922291
     143A      4.045322   144A      4.118163   145A      4.118196
     146A      4.154589   147A      4.156092   148A      4.187305
     149A      4.208998   150A      4.209015   151A      4.210645
     152A      4.215331   153A      4.323277   154A      4.323530
     155A      4.362323   156A      4.431700   157A      4.433392
     158A      4.446568   159A      4.524167   160A      4.525110
     161A      4.588547   162A      4.588971   163A      4.624937
     164A      4.719797   165A      4.780648   166A      4.782434
     167A      4.839838   168A      4.967512   169A      5.006609
     170A      5.007524   171A      5.233754   172A      5.248428
     173A      5.248764   174A      5.361481   175A      5.362482
     176A      5.481662

    Final Occupation by Irrep:
              A
    DOCC [    16 ]
    SOCC [     1 ]

  @DF-UKS Final Energy:  -157.81306725882754

   => Energetics <=

    Nuclear Repulsion Energy =            125.3946205255577127
    One-Electron Energy =                -458.7489009697447955
    Two-Electron Energy =                 195.8483555096706539
    DFT Exchange-Correlation Energy =     -20.3071423243110978
    Empirical Dispersion Energy =           0.0000000000000000
    VV10 Nonlocal Energy =                  0.0000000000000000
    Total Energy =                       -157.8130672588275445

  UHF NO Occupations:
  HONO-2 :   15  A 1.9996009
  HONO-1 :   16  A 1.9989805
  HONO-0 :   17  A 1.0000000
  LUNO+0 :   18  A 0.0010195
  LUNO+1 :   19  A 0.0003991
  LUNO+2 :   20  A 0.0001982
  LUNO+3 :   21  A 0.0001969

Computation Completed

Properties will be evaluated at   0.000000,   0.000000,   0.000000 [a0]

Properties computed using the SCF density matrix

  Nuclear Dipole Moment: [e a0]
     X:     0.8272      Y:    -0.0000      Z:     0.0129

  Electronic Dipole Moment: [e a0]
     X:    -0.7493      Y:     0.0000      Z:    -0.0142

  Dipole Moment: [e a0]
     X:     0.0779      Y:     0.0000      Z:    -0.0013     Total:     0.0779

  Dipole Moment: [D]
     X:     0.1980      Y:     0.0000      Z:    -0.0033     Total:     0.1981

*** tstop() called on n065 at Fri Nov  5 13:08:52 2021
Module time:
	user time   =     545.75 seconds =       9.10 minutes
	system time =      11.94 seconds =       0.20 minutes
	total time  =        140 seconds =       2.33 minutes
Total time:
	user time   =     545.75 seconds =       9.10 minutes
	system time =      11.94 seconds =       0.20 minutes
	total time  =        140 seconds =       2.33 minutes
Grab this energy -157.81306725882754
    Psi4 stopped on: Friday, 05 November 2021 01:08PM
    Psi4 wall time for execution: 0:02:20.24

*** Psi4 exiting successfully. Buy a developer a beer!
