                               Psi4 1.4a2.dev629

  ==> Input File <==

--------------------------------------------------------------------------
import os
memory 14 GB

molecule {
 C   -0.3233405623    0.0002656342   -0.0000000000
 C    0.0610077403   -1.4004294994   -2.4248362182
 C    0.0612842890    2.8048853136   -0.0000000000
 C    0.0610077403   -1.4004294994    2.4248362182
 H    2.0889871220   -1.6440279867   -2.8475910147
 H   -0.7664535705   -0.3867924263   -4.0264843716
 H   -0.7665654565   -3.2943756852   -2.3488072816
 H    2.0826954861    3.2879212822    0.0000000000
 H   -0.7635993800    3.6790773258    1.6726093992
 H   -0.7635993800    3.6790773258   -1.6726093992
 H    2.0889871220   -1.6440279867    2.8475910147
 H   -0.7665654565   -3.2943756852    2.3488072816
 H   -0.7664535705   -0.3867924263    4.0264843716
units bohr
0 2
}

basis {

assign 6-31g_2dfp_

[ 6-31g_2dfp_ ]

spherical

!----------------------------------------------------------------------
! Basis Set Exchange
! Version v0.8.13
! https://www.basissetexchange.org
!----------------------------------------------------------------------
!   Basis set: 6-31G(2df,p)
! Description: 6-31G(2df,p)
!        Role: orbital
!     Version: 0  (Data from the original Basis Set Exchange)
!----------------------------------------------------------------------

****
H     0
S    3   1.00
     18.7311370              0.03349460
      2.8253937              0.23472695
      0.6401217              0.81375733
S    1   1.00
      0.1612778              1.00000000
P    1   1.00
      1.5000000              1.0000000
P    1   1.00
      0.3750000              1.0000000
****
B     0
S    6   1.00
   2068.8823000              0.0018663
    310.6495700              0.0142515
     70.6830330              0.0695516
     19.8610800              0.2325729
      6.2993048              0.4670787
      2.1270270              0.3634314
SP   3   1.00
      4.7279710             -0.1303938              0.0745976
      1.1903377             -0.1307889              0.3078467
      0.3594117              1.1309444              0.7434568
SP   1   1.00
      0.1267512              1.0000000              1.0000000
D    1   1.00
      0.8020000              1.0000000
D    1   1.00
      0.2005000              1.0000000
F    1   1.00
      0.5000000              1.0000000
****
C     0
S    6   1.00
   3047.5249000              0.0018347
    457.3695100              0.0140373
    103.9486900              0.0688426
     29.2101550              0.2321844
      9.2866630              0.4679413
      3.1639270              0.3623120
SP   3   1.00
      7.8682724             -0.1193324              0.0689991
      1.8812885             -0.1608542              0.3164240
      0.5442493              1.1434564              0.7443083
SP   1   1.00
      0.1687144              1.0000000              1.0000000
D    1   1.00
      1.2520000              1.0000000
D    1   1.00
      0.3130000              1.0000000
F    1   1.00
      0.8000000              1.0000000
****
N     0
S    6   1.00
   4173.5110000              0.0018348
    627.4579000              0.0139950
    142.9021000              0.0685870
     40.2343300              0.2322410
     12.8202100              0.4690700
      4.3904370              0.3604550
SP   3   1.00
     11.6263580             -0.1149610              0.0675800
      2.7162800             -0.1691180              0.3239070
      0.7722180              1.1458520              0.7408950
SP   1   1.00
      0.2120313              1.0000000              1.0000000
D    1   1.00
      1.8260000              1.0000000
D    1   1.00
      0.4565000              1.0000000
F    1   1.00
      1.0000000              1.0000000
****
O     0
S    6   1.00
   5484.6717000              0.0018311
    825.2349500              0.0139501
    188.0469600              0.0684451
     52.9645000              0.2327143
     16.8975700              0.4701930
      5.7996353              0.3585209
SP   3   1.00
     15.5396160             -0.1107775              0.0708743
      3.5999336             -0.1480263              0.3397528
      1.0137618              1.1307670              0.7271586
SP   1   1.00
      0.2700058              1.0000000              1.0000000
D    1   1.00
      2.5840000              1.0000000
D    1   1.00
      0.6460000              1.0000000
F    1   1.00
      1.4000000              1.0000000
****
F     0
S    6   1.00
   7001.7130900              0.0018196169
   1051.3660900              0.0139160796
    239.2856900              0.0684053245
     67.3974453              0.233185760
     21.5199573              0.471267439
      7.40310130             0.356618546
SP   3   1.00
     20.8479528             -0.108506975            0.0716287243
      4.80830834            -0.146451658            0.3459121030
      1.34406986             1.128688580            0.7224699570
SP   1   1.00
      0.358151393            1.0000000              1.0000000
D    1   1.00
      3.5000000              1.0000000
D    1   1.00
      0.8750000              1.0000000
F    1   1.00
      1.8500000              1.0000000
****
Al     0
S    6   1.00
  13983.1000000              0.00194267
   2098.7500000              0.0148599
    477.7050000              0.0728494
    134.3600000              0.2468300
     42.8709000              0.4872580
     14.5189000              0.3234960
SP   6   1.00
    239.6680000             -0.00292619             0.00460285
     57.4419000             -0.0374080              0.0331990
     18.2859000             -0.1144870              0.1362820
      6.5991400              0.1156350              0.3304760
      2.4904900              0.6125950              0.4491460
      0.9445400              0.3937990              0.2657040
SP   3   1.00
      1.2779000             -0.2276060             -0.0175130
      0.3975900              0.00144583             0.2445330
      0.1600950              1.0927900              0.8049340
SP   1   1.00
      0.0556577              1.0000000              1.0000000
D    1   1.00
      0.6500000              1.0000000
D    1   1.00
      0.1625000              1.0000000
F    1   1.00
      0.2500000              1.0000000
****
Si     0
S    6   1.00
  16115.9000000              0.00195948
   2425.5800000              0.01492880
    553.8670000              0.07284780
    156.3400000              0.24613000
     50.0683000              0.48591400
     17.0178000              0.32500200
SP   6   1.00
    292.7180000             -0.00278094             0.00443826
     69.8731000             -0.03571460             0.03266790
     22.3363000             -0.11498500             0.13472100
      8.1503900              0.09356340             0.32867800
      3.1345800              0.60301700             0.44964000
      1.2254300              0.41895900             0.26137200
SP   3   1.00
      1.7273800             -0.24463000            -0.01779510
      0.5729220              0.00431572             0.25353900
      0.2221920              1.09818000             0.80066900
SP   1   1.00
      0.0778369              1.00000000             1.00000000
D    1   1.00
      0.9000000              1.0000000
D    1   1.00
      0.2250000              1.0000000
F    1   1.00
      0.3200000              1.0000000
****
P     0
S    6   1.00
  19413.3000000              0.0018516
   2909.4200000              0.0142062
    661.3640000              0.0699995
    185.7590000              0.2400790
     59.1943000              0.4847620
     20.0310000              0.3352000
SP   6   1.00
    339.4780000             -0.00278217             0.00456462
     81.0101000             -0.0360499              0.03369360
     25.8780000             -0.1166310              0.13975500
      9.4522100              0.0968328              0.33936200
      3.6656600              0.6144180              0.45092100
      1.4674600              0.4037980              0.23858600
SP   3   1.00
      2.1562300             -0.2529230             -0.01776530
      0.7489970              0.0328517              0.27405800
      0.2831450              1.0812500              0.78542100
SP   1   1.00
      0.0998317              1.0000000              1.00000000
D    1   1.00
      1.1000000              1.0000000
D    1   1.00
      0.2750000              1.0000000
F    1   1.00
      0.4500000              1.0000000
****
S     0
S    6   1.00
  21917.1000000              0.0018690
   3301.4900000              0.0142300
    754.1460000              0.0696960
    212.7110000              0.2384870
     67.9896000              0.4833070
     23.0515000              0.3380740
SP   6   1.00
    423.7350000             -0.0023767              0.0040610
    100.7100000             -0.0316930              0.0306810
     32.1599000             -0.1133170              0.1304520
     11.8079000              0.0560900              0.3272050
      4.6311000              0.5922550              0.4528510
      1.8702500              0.4550060              0.2560420
SP   3   1.00
      2.6158400             -0.2503740             -0.0145110
      0.9221670              0.0669570              0.3102630
      0.3412870              1.0545100              0.7544830
SP   1   1.00
      0.1171670              1.0000000              1.0000000
D    1   1.00
      1.3000000              1.0000000
D    1   1.00
      0.3250000              1.0000000
F    1   1.00
      0.5500000              1.0000000
****
Cl     0
S    6   1.00
  25180.1000000              0.0018330
   3780.3500000              0.0140340
    860.4740000              0.0690970
    242.1450000              0.2374520
     77.3349000              0.4830340
     26.2470000              0.3398560
SP   6   1.00
    491.7650000             -0.0022974              0.0039894
    116.9840000             -0.0307140              0.0303180
     37.4153000             -0.1125280              0.1298800
     13.7834000              0.0450160              0.3279510
      5.4521500              0.5893530              0.4535270
      2.2258800              0.4652060              0.2521540
SP   3   1.00
      3.1864900             -0.2518300             -0.0142990
      1.1442700              0.0615890              0.3235720
      0.4203770              1.0601800              0.7435070
SP   1   1.00
      0.1426570              1.0000000              1.0000000
D    1   1.00
      1.5000000              1.0000000
D    1   1.00
      0.3750000              1.0000000
F    1   1.00
      0.7000000              1.0000000
****
}

set {
reference uhf
freeze_core true
e_convergence 10
d_convergence 10
dft_spherical_points 1202
dft_radial_points 99
}

e = energy('b3lyp')

print_out('Grab this energy {0}'.format(e))
--------------------------------------------------------------------------

    Molecular point group: cs

    Geometry (in Bohr), charge = 0, multiplicity = 2:

       Center              X                  Y                   Z               Mass
    ------------   -----------------  -----------------  -----------------  -----------------
         C           -0.323340406703    -0.000560596729     0.000000000000    12.000000000000
         C            0.061007895897    -1.401255730329    -2.424836218200    12.000000000000
         C            0.061284444597     2.804059082671     0.000000000000    12.000000000000
         C            0.061007895897    -1.401255730329     2.424836218200    12.000000000000
         H            2.088987277597    -1.644854217629    -2.847591014700     1.007825032230
         H           -0.766453414903    -0.387618657229    -4.026484371600     1.007825032230
         H           -0.766565300903    -3.295201916129    -2.348807281600     1.007825032230
         H            2.082695641697     3.287095051271     0.000000000000     1.007825032230
         H           -0.763599224403     3.678251094871     1.672609399200     1.007825032230
         H           -0.763599224403     3.678251094871    -1.672609399200     1.007825032230
         H            2.088987277597    -1.644854217629     2.847591014700     1.007825032230
         H           -0.766565300903    -3.295201916129     2.348807281600     1.007825032230
         H           -0.766453414903    -0.387618657229     4.026484371600     1.007825032230

  Charge       = 0
  Multiplicity = 2
  Basis Set: ANONYMOUS17E026C6
    Blend: 6-31G_2DFP_
  Basis Set: (ANONYMOUS17E026C6 AUX)
    Blend: DEF2-UNIVERSAL-JKFIT

    Orbital Energies [Eh]
    ---------------------

    Alpha Occupied:

       1Ap   -10.180343     1App  -10.167386     2Ap   -10.167356
       3Ap   -10.166302     4Ap    -0.797767     5Ap    -0.686536
       2App   -0.685842     6Ap    -0.530774     7Ap    -0.441126
       3App   -0.434843     8Ap    -0.434502     9Ap    -0.382912
       4App   -0.382286     5App   -0.363616     6App   -0.338233
      10Ap    -0.337760    11Ap    -0.168962

    Alpha Virtual:

      12Ap     0.076071     7App    0.134126    13Ap     0.134158
      14Ap     0.142474     8App    0.142804    15Ap     0.154875
       9App    0.178372    16Ap     0.179188    17Ap     0.203544
      10App    0.214807    18Ap     0.275718    11App    0.276255
      12App    0.399161    19Ap     0.399289    20Ap     0.403349
      21Ap     0.423957    13App    0.424237    22Ap     0.456591
      14App    0.495341    23Ap     0.495436    15App    0.512161
      24Ap     0.513980    16App    0.578734    25Ap     0.578881
      17App    0.591273    26Ap     0.591976    27Ap     0.602603
      28Ap     0.624766    18App    0.631670    29Ap     0.635702
      19App    0.636905    20App    0.663290    30Ap     0.663538
      21App    0.683523    31Ap     0.684201    32Ap     0.734994
      33Ap     0.825065    22App    0.825743    23App    0.853916
      34Ap     0.915003    24App    0.915050    25App    0.944129
      35Ap     0.944610    36Ap     0.961090    26App    0.961505
      37Ap     1.003452    27App    1.127865    38Ap     1.128358
      39Ap     1.142222    40Ap     1.162885    28App    1.163644
      41Ap     1.223328    42Ap     1.274354    29App    1.274613
      43Ap     1.279359    44Ap     1.323938    30App    1.324768
      45Ap     1.355986    31App    1.365937    46Ap     1.366173
      32App    1.392437    33App    1.403491    47Ap     1.404592
      34App    1.416942    48Ap     1.417264    35App    1.427933
      36App    1.491488    49Ap     1.499089    50Ap     1.542699
      37App    1.542951    51Ap     1.573972    38App    1.574925
      52Ap     1.669775    39App    1.739371    53Ap     1.739471
      54Ap     1.768311    40App    1.829307    55Ap     1.833605
      41App    1.971712    56Ap     2.018097    57Ap     2.018551
      42App    2.019680    58Ap     2.051968    43App    2.053410
      59Ap     2.738162    44App    2.738809    60Ap     2.790926
      45App    2.811429    46App    2.889756    61Ap     2.890062
      62Ap     2.895024    63Ap     2.929332    47App    2.929665
      48App    2.959013    49App    2.963944    64Ap     2.964822
      65Ap     3.034019    50App    3.070914    66Ap     3.071666
      51App    3.084368    67Ap     3.168461    52App    3.169114
      68Ap     3.180587    69Ap     3.285241    53App    3.285404
      70Ap     3.326931    54App    3.327386    71Ap     3.375608
      72Ap     3.489010    55App    3.491310    56App    3.514012
      73Ap     3.525324    57App    3.568367    74Ap     3.568369
      58App    3.575211    59App    3.664975    75Ap     3.667552
      76Ap     3.679717    60App    3.693522    77Ap     3.694834
      61App    3.776420    78Ap     3.777220    79Ap     3.789124
      80Ap     3.911892    62App    3.912525    81Ap     4.034441
      63App    4.110728    82Ap     4.111881    83Ap     4.145862
      64App    4.150339    84Ap     4.173331    85Ap     4.200541
      65App    4.202791    86Ap     4.205433    66App    4.211101
      87Ap     4.315914    67App    4.315920    68App    4.358954
      88Ap     4.423333    69App    4.425182    70App    4.443912
      89Ap     4.516405    71App    4.517302    90Ap     4.577809
      72App    4.578766    91Ap     4.617522    92Ap     4.709478
      73App    4.774168    93Ap     4.774991    74App    4.836859
      94Ap     4.962800    75App    5.001677    95Ap     5.004386
      96Ap     5.227842    97Ap     5.242954    76App    5.250656
      77App    5.352563    98Ap     5.358653    78App    5.479425

    Beta Occupied:

       1App  -10.168143     1Ap   -10.168124     2Ap   -10.167062
       3Ap   -10.166515     4Ap    -0.781092     5Ap    -0.684343
       2App   -0.683639     6Ap    -0.511745     3App   -0.431226
       7Ap    -0.430861     8Ap    -0.421825     9Ap    -0.377024
       4App   -0.376342     5App   -0.362599     6App   -0.333351
      10Ap    -0.332889

    Beta Virtual:

      11Ap    -0.025744    12Ap     0.077080    13Ap     0.134971
       7App    0.135094    14Ap     0.144408     8App    0.144610
      15Ap     0.163335     9App    0.182065    16Ap     0.182838
      10App    0.215036    17Ap     0.218926    18Ap     0.282073
      11App    0.282596    12App    0.400323    19Ap     0.400470
      20Ap     0.419791    21Ap     0.426765    13App    0.427052
      22Ap     0.468499    14App    0.497608    23Ap     0.497692
      15App    0.513896    24Ap     0.556324    16App    0.584282
      25Ap     0.584433    17App    0.597475    26Ap     0.598139
      27Ap     0.610022    28Ap     0.628141    18App    0.631873
      29Ap     0.639015    19App    0.640118    20App    0.666845
      30Ap     0.667110    21App    0.686206    31Ap     0.686789
      32Ap     0.757517    33Ap     0.830212    22App    0.830933
      23App    0.855270    34Ap     0.922975    24App    0.923021
      25App    0.945965    35Ap     0.953537    36Ap     0.966423
      26App    0.966785    37Ap     1.008693    27App    1.131872
      38Ap     1.132409    39Ap     1.155601    40Ap     1.167925
      28App    1.168749    41Ap     1.232300    42Ap     1.279949
      29App    1.280212    43Ap     1.285113    44Ap     1.328894
      30App    1.329790    45Ap     1.365399    31App    1.371164
      46Ap     1.371436    32App    1.393501    33App    1.406983
      47Ap     1.408026    34App    1.421925    48Ap     1.422376
      35App    1.428206    36App    1.492536    49Ap     1.509530
      50Ap     1.547053    37App    1.547413    51Ap     1.581848
      38App    1.582793    52Ap     1.674620    39App    1.745111
      53Ap     1.745259    54Ap     1.779088    40App    1.833202
      55Ap     1.837421    41App    1.972574    56Ap     2.024848
      42App    2.026026    57Ap     2.039603    58Ap     2.058652
      43App    2.060184    59Ap     2.746462    44App    2.747181
      45App    2.811841    60Ap     2.816062    46App    2.902501
      61Ap     2.902754    62Ap     2.924658    63Ap     2.931889
      47App    2.932082    48App    2.960076    49App    2.968463
      64Ap     2.969393    65Ap     3.041952    50App    3.080761
      66Ap     3.081626    51App    3.086199    67Ap     3.184159
      52App    3.184918    68Ap     3.188266    69Ap     3.290041
      53App    3.290202    70Ap     3.330763    54App    3.331161
      71Ap     3.383427    72Ap     3.491750    55App    3.494030
      56App    3.512380    73Ap     3.528369    57App    3.574923
      74Ap     3.581659    58App    3.581901    59App    3.669634
      75Ap     3.672446    76Ap     3.693039    60App    3.725152
      77Ap     3.726383    61App    3.781019    78Ap     3.781673
      79Ap     3.817671    80Ap     3.921747    62App    3.922305
      81Ap     4.045322    63App    4.117837    82Ap     4.118377
      83Ap     4.153398    64App    4.157265    84Ap     4.187373
      85Ap     4.207460    65App    4.208686    86Ap     4.212474
      66App    4.215571    87Ap     4.323199    67App    4.323507
      68App    4.362323    88Ap     4.431637    69App    4.433141
      70App    4.446967    89Ap     4.524143    71App    4.525145
      90Ap     4.588439    72App    4.589334    91Ap     4.624714
      92Ap     4.719822    73App    4.781107    93Ap     4.781957
      74App    4.839776    94Ap     4.967599    75App    5.005748
      95Ap     5.008391    96Ap     5.233553    97Ap     5.244757
      76App    5.252434    77App    5.359079    98Ap     5.365092
      78App    5.481746

    Final Occupation by Irrep:
             Ap   App
    DOCC [    10,    6 ]
    SOCC [     1,    0 ]

  @DF-UKS Final Energy:  -157.81305078861794

   => Energetics <=

    Nuclear Repulsion Energy =            125.3946629372488673
    One-Electron Energy =                -458.7489300199933950
    Two-Electron Energy =                 195.8483667753286852
    DFT Exchange-Correlation Energy =     -20.3071504812021146
    Empirical Dispersion Energy =           0.0000000000000000
    VV10 Nonlocal Energy =                  0.0000000000000000
    Total Energy =                       -157.8130507886179430

  UHF NO Occupations:
  HONO-2 :    9 Ap 1.9996008
  HONO-1 :   10 Ap 1.9989804
  HONO-0 :   11 Ap 1.0000000
  LUNO+0 :   12 Ap 0.0010196
  LUNO+1 :   13 Ap 0.0003992
  LUNO+2 :   14 Ap 0.0001979
  LUNO+3 :    7App 0.0001972

Computation Completed

Properties will be evaluated at   0.000000,   0.000000,   0.000000 [a0]

Properties computed using the SCF density matrix

  Nuclear Dipole Moment: [e a0]
     X:     0.8272      Y:    -0.0058      Z:     0.0000

  Electronic Dipole Moment: [e a0]
     X:    -0.7493      Y:     0.0083      Z:     0.0000

  Dipole Moment: [e a0]
     X:     0.0779      Y:     0.0025      Z:     0.0000     Total:     0.0780

  Dipole Moment: [D]
     X:     0.1980      Y:     0.0064      Z:     0.0000     Total:     0.1981

*** tstop() called on n033 at Fri Nov  5 13:01:00 2021
Module time:
	user time   =     632.05 seconds =      10.53 minutes
	system time =      12.07 seconds =       0.20 minutes
	total time  =        162 seconds =       2.70 minutes
Total time:
	user time   =     632.05 seconds =      10.53 minutes
	system time =      12.07 seconds =       0.20 minutes
	total time  =        162 seconds =       2.70 minutes
Grab this energy -157.81305078861794
    Psi4 stopped on: Friday, 05 November 2021 01:01PM
    Psi4 wall time for execution: 0:02:41.99

*** Psi4 exiting successfully. Buy a developer a beer!
