                               Psi4 1.4a2.dev629

  ==> Input File <==

--------------------------------------------------------------------------
import os
memory 14 GB

molecule {
 C   -0.3215599461    0.0010199191    0.0000000000
 C    0.0613239913   -1.4021980887   -2.4255466762
 C    0.0623273710    2.8011086575   -0.0000000000
 C    0.0613239913   -1.4021980887    2.4255466762
 H    2.0866430830   -1.6465668599   -2.8529230121
 H   -0.7655758772   -0.3858115133   -4.0230099869
 H   -0.7659997176   -3.2907186317   -2.3460418143
 H    2.0863802231    3.2942311583    0.0000000000
 H   -0.7662692417    3.6771030693    1.6769657842
 H   -0.7662692417    3.6771030693   -1.6769657842
 H    2.0866430830   -1.6465668599    2.8529230121
 H   -0.7659997176   -3.2907186317    2.3460418143
 H   -0.7655758772   -0.3858115133    4.0230099869
units bohr
0 2
}

basis {

assign 6-31g_2dfp_

[ 6-31g_2dfp_ ]

spherical

!----------------------------------------------------------------------
! Basis Set Exchange
! Version v0.8.13
! https://www.basissetexchange.org
!----------------------------------------------------------------------
!   Basis set: 6-31G(2df,p)
! Description: 6-31G(2df,p)
!        Role: orbital
!     Version: 0  (Data from the original Basis Set Exchange)
!----------------------------------------------------------------------

****
H     0
S    3   1.00
     18.7311370              0.03349460
      2.8253937              0.23472695
      0.6401217              0.81375733
S    1   1.00
      0.1612778              1.00000000
P    1   1.00
      1.5000000              1.0000000
P    1   1.00
      0.3750000              1.0000000
****
B     0
S    6   1.00
   2068.8823000              0.0018663
    310.6495700              0.0142515
     70.6830330              0.0695516
     19.8610800              0.2325729
      6.2993048              0.4670787
      2.1270270              0.3634314
SP   3   1.00
      4.7279710             -0.1303938              0.0745976
      1.1903377             -0.1307889              0.3078467
      0.3594117              1.1309444              0.7434568
SP   1   1.00
      0.1267512              1.0000000              1.0000000
D    1   1.00
      0.8020000              1.0000000
D    1   1.00
      0.2005000              1.0000000
F    1   1.00
      0.5000000              1.0000000
****
C     0
S    6   1.00
   3047.5249000              0.0018347
    457.3695100              0.0140373
    103.9486900              0.0688426
     29.2101550              0.2321844
      9.2866630              0.4679413
      3.1639270              0.3623120
SP   3   1.00
      7.8682724             -0.1193324              0.0689991
      1.8812885             -0.1608542              0.3164240
      0.5442493              1.1434564              0.7443083
SP   1   1.00
      0.1687144              1.0000000              1.0000000
D    1   1.00
      1.2520000              1.0000000
D    1   1.00
      0.3130000              1.0000000
F    1   1.00
      0.8000000              1.0000000
****
N     0
S    6   1.00
   4173.5110000              0.0018348
    627.4579000              0.0139950
    142.9021000              0.0685870
     40.2343300              0.2322410
     12.8202100              0.4690700
      4.3904370              0.3604550
SP   3   1.00
     11.6263580             -0.1149610              0.0675800
      2.7162800             -0.1691180              0.3239070
      0.7722180              1.1458520              0.7408950
SP   1   1.00
      0.2120313              1.0000000              1.0000000
D    1   1.00
      1.8260000              1.0000000
D    1   1.00
      0.4565000              1.0000000
F    1   1.00
      1.0000000              1.0000000
****
O     0
S    6   1.00
   5484.6717000              0.0018311
    825.2349500              0.0139501
    188.0469600              0.0684451
     52.9645000              0.2327143
     16.8975700              0.4701930
      5.7996353              0.3585209
SP   3   1.00
     15.5396160             -0.1107775              0.0708743
      3.5999336             -0.1480263              0.3397528
      1.0137618              1.1307670              0.7271586
SP   1   1.00
      0.2700058              1.0000000              1.0000000
D    1   1.00
      2.5840000              1.0000000
D    1   1.00
      0.6460000              1.0000000
F    1   1.00
      1.4000000              1.0000000
****
F     0
S    6   1.00
   7001.7130900              0.0018196169
   1051.3660900              0.0139160796
    239.2856900              0.0684053245
     67.3974453              0.233185760
     21.5199573              0.471267439
      7.40310130             0.356618546
SP   3   1.00
     20.8479528             -0.108506975            0.0716287243
      4.80830834            -0.146451658            0.3459121030
      1.34406986             1.128688580            0.7224699570
SP   1   1.00
      0.358151393            1.0000000              1.0000000
D    1   1.00
      3.5000000              1.0000000
D    1   1.00
      0.8750000              1.0000000
F    1   1.00
      1.8500000              1.0000000
****
Al     0
S    6   1.00
  13983.1000000              0.00194267
   2098.7500000              0.0148599
    477.7050000              0.0728494
    134.3600000              0.2468300
     42.8709000              0.4872580
     14.5189000              0.3234960
SP   6   1.00
    239.6680000             -0.00292619             0.00460285
     57.4419000             -0.0374080              0.0331990
     18.2859000             -0.1144870              0.1362820
      6.5991400              0.1156350              0.3304760
      2.4904900              0.6125950              0.4491460
      0.9445400              0.3937990              0.2657040
SP   3   1.00
      1.2779000             -0.2276060             -0.0175130
      0.3975900              0.00144583             0.2445330
      0.1600950              1.0927900              0.8049340
SP   1   1.00
      0.0556577              1.0000000              1.0000000
D    1   1.00
      0.6500000              1.0000000
D    1   1.00
      0.1625000              1.0000000
F    1   1.00
      0.2500000              1.0000000
****
Si     0
S    6   1.00
  16115.9000000              0.00195948
   2425.5800000              0.01492880
    553.8670000              0.07284780
    156.3400000              0.24613000
     50.0683000              0.48591400
     17.0178000              0.32500200
SP   6   1.00
    292.7180000             -0.00278094             0.00443826
     69.8731000             -0.03571460             0.03266790
     22.3363000             -0.11498500             0.13472100
      8.1503900              0.09356340             0.32867800
      3.1345800              0.60301700             0.44964000
      1.2254300              0.41895900             0.26137200
SP   3   1.00
      1.7273800             -0.24463000            -0.01779510
      0.5729220              0.00431572             0.25353900
      0.2221920              1.09818000             0.80066900
SP   1   1.00
      0.0778369              1.00000000             1.00000000
D    1   1.00
      0.9000000              1.0000000
D    1   1.00
      0.2250000              1.0000000
F    1   1.00
      0.3200000              1.0000000
****
P     0
S    6   1.00
  19413.3000000              0.0018516
   2909.4200000              0.0142062
    661.3640000              0.0699995
    185.7590000              0.2400790
     59.1943000              0.4847620
     20.0310000              0.3352000
SP   6   1.00
    339.4780000             -0.00278217             0.00456462
     81.0101000             -0.0360499              0.03369360
     25.8780000             -0.1166310              0.13975500
      9.4522100              0.0968328              0.33936200
      3.6656600              0.6144180              0.45092100
      1.4674600              0.4037980              0.23858600
SP   3   1.00
      2.1562300             -0.2529230             -0.01776530
      0.7489970              0.0328517              0.27405800
      0.2831450              1.0812500              0.78542100
SP   1   1.00
      0.0998317              1.0000000              1.00000000
D    1   1.00
      1.1000000              1.0000000
D    1   1.00
      0.2750000              1.0000000
F    1   1.00
      0.4500000              1.0000000
****
S     0
S    6   1.00
  21917.1000000              0.0018690
   3301.4900000              0.0142300
    754.1460000              0.0696960
    212.7110000              0.2384870
     67.9896000              0.4833070
     23.0515000              0.3380740
SP   6   1.00
    423.7350000             -0.0023767              0.0040610
    100.7100000             -0.0316930              0.0306810
     32.1599000             -0.1133170              0.1304520
     11.8079000              0.0560900              0.3272050
      4.6311000              0.5922550              0.4528510
      1.8702500              0.4550060              0.2560420
SP   3   1.00
      2.6158400             -0.2503740             -0.0145110
      0.9221670              0.0669570              0.3102630
      0.3412870              1.0545100              0.7544830
SP   1   1.00
      0.1171670              1.0000000              1.0000000
D    1   1.00
      1.3000000              1.0000000
D    1   1.00
      0.3250000              1.0000000
F    1   1.00
      0.5500000              1.0000000
****
Cl     0
S    6   1.00
  25180.1000000              0.0018330
   3780.3500000              0.0140340
    860.4740000              0.0690970
    242.1450000              0.2374520
     77.3349000              0.4830340
     26.2470000              0.3398560
SP   6   1.00
    491.7650000             -0.0022974              0.0039894
    116.9840000             -0.0307140              0.0303180
     37.4153000             -0.1125280              0.1298800
     13.7834000              0.0450160              0.3279510
      5.4521500              0.5893530              0.4535270
      2.2258800              0.4652060              0.2521540
SP   3   1.00
      3.1864900             -0.2518300             -0.0142990
      1.1442700              0.0615890              0.3235720
      0.4203770              1.0601800              0.7435070
SP   1   1.00
      0.1426570              1.0000000              1.0000000
D    1   1.00
      1.5000000              1.0000000
D    1   1.00
      0.3750000              1.0000000
F    1   1.00
      0.7000000              1.0000000
****
}

set {
reference uhf
freeze_core true
e_convergence 10
d_convergence 10
dft_spherical_points 1202
dft_radial_points 99
}

e = energy('b3lyp')

print_out('Grab this energy {0}'.format(e))
--------------------------------------------------------------------------

    Molecular point group: cs

    Geometry (in Bohr), charge = 0, multiplicity = 2:

       Center              X                  Y                   Z               Mass
    ------------   -----------------  -----------------  -----------------  -----------------
         C           -0.322225479559     0.001457104710     0.000000000000    12.000000000000
         C            0.060658457841    -1.401760903090    -2.425546676200    12.000000000000
         C            0.061661837541     2.801545843110     0.000000000000    12.000000000000
         C            0.060658457841    -1.401760903090     2.425546676200    12.000000000000
         H            2.085977549541    -1.646129674290    -2.852923012100     1.007825032230
         H           -0.766241410659    -0.385374327690    -4.023009986900     1.007825032230
         H           -0.766665251059    -3.290281446090    -2.346041814300     1.007825032230
         H            2.085714689641     3.294668343910     0.000000000000     1.007825032230
         H           -0.766934775159     3.677540254910     1.676965784200     1.007825032230
         H           -0.766934775159     3.677540254910    -1.676965784200     1.007825032230
         H            2.085977549541    -1.646129674290     2.852923012100     1.007825032230
         H           -0.766665251059    -3.290281446090     2.346041814300     1.007825032230
         H           -0.766241410659    -0.385374327690     4.023009986900     1.007825032230

  Charge       = 0
  Multiplicity = 2
  Basis Set: ANONYMOUSEFE987CC
    Blend: 6-31G_2DFP_
  Basis Set: (ANONYMOUSEFE987CC AUX)
    Blend: DEF2-UNIVERSAL-JKFIT

    Orbital Energies [Eh]
    ---------------------

    Alpha Occupied:

       1Ap   -10.180329     2Ap   -10.167006     1App  -10.166968
       3Ap   -10.166931     4Ap    -0.797831     5Ap    -0.686304
       2App   -0.686144     6Ap    -0.530788     7Ap    -0.440955
       3App   -0.434891     8Ap    -0.434873     9Ap    -0.382485
       4App   -0.382411     5App   -0.363747    10Ap    -0.338315
       6App   -0.337727    11Ap    -0.169050

    Alpha Virtual:

      12Ap     0.076108     7App    0.134070    13Ap     0.134143
       8App    0.142631    14Ap     0.142760    15Ap     0.155084
      16Ap     0.178692     9App    0.178793    17Ap     0.203679
      10App    0.215024    11App    0.275898    18Ap     0.276152
      12App    0.399349    19Ap     0.399562    20Ap     0.403268
      21Ap     0.423941    13App    0.423950    22Ap     0.456829
      23Ap     0.495330    14App    0.495401    15App    0.511972
      24Ap     0.514037    16App    0.578925    25Ap     0.579003
      17App    0.591434    26Ap     0.591469    27Ap     0.602340
      28Ap     0.624823    18App    0.632021    19App    0.636341
      29Ap     0.636344    20App    0.663600    30Ap     0.663778
      31Ap     0.683758    21App    0.683780    32Ap     0.735077
      33Ap     0.825304    22App    0.825308    23App    0.854261
      34Ap     0.915072    24App    0.915277    35Ap     0.943814
      25App    0.944350    26App    0.960939    36Ap     0.961079
      37Ap     1.004178    38Ap     1.128545    27App    1.128592
      39Ap     1.141607    40Ap     1.163793    28App    1.163845
      41Ap     1.223255    29App    1.274286    42Ap     1.274641
      43Ap     1.279585    30App    1.324563    44Ap     1.324692
      45Ap     1.355577    46Ap     1.366151    31App    1.366616
      32App    1.392242    33App    1.403545    47Ap     1.403998
      34App    1.416699    48Ap     1.417245    35App    1.428531
      36App    1.492093    49Ap     1.498763    37App    1.542722
      50Ap     1.543064    51Ap     1.573513    38App    1.574156
      52Ap     1.669884    39App    1.739181    53Ap     1.739378
      54Ap     1.768191    55Ap     1.831608    40App    1.831744
      41App    1.971828    56Ap     2.018013    57Ap     2.019541
      42App    2.020329    58Ap     2.052511    43App    2.053711
      44App    2.738026    59Ap     2.738118    60Ap     2.791151
      45App    2.811943    46App    2.889445    61Ap     2.890781
      62Ap     2.895189    47App    2.929785    63Ap     2.930117
      48App    2.959055    64Ap     2.964132    49App    2.964737
      65Ap     3.034477    50App    3.070670    66Ap     3.070939
      51App    3.084000    67Ap     3.168573    52App    3.168837
      68Ap     3.180767    53App    3.284695    69Ap     3.285132
      70Ap     3.328211    54App    3.328315    71Ap     3.375327
      55App    3.489624    72Ap     3.489717    56App    3.514232
      73Ap     3.525493    74Ap     3.568849    57App    3.569001
      58App    3.576016    59App    3.666137    75Ap     3.666514
      76Ap     3.680768    60App    3.693594    77Ap     3.693612
      78Ap     3.777950    61App    3.777977    79Ap     3.787804
      62App    3.911981    80Ap     3.912686    81Ap     4.033353
      82Ap     4.111261    63App    4.111710    64App    4.147722
      83Ap     4.148077    84Ap     4.173182    85Ap     4.202264
      65App    4.203823    86Ap     4.203902    66App    4.211342
      67App    4.315507    87Ap     4.317069    68App    4.360112
      88Ap     4.423381    69App    4.424481    70App    4.444473
      71App    4.517461    89Ap     4.517854    72App    4.578975
      90Ap     4.579543    91Ap     4.618002    92Ap     4.709779
      93Ap     4.774793    73App    4.775109    74App    4.835902
      94Ap     4.963381    95Ap     5.002564    75App    5.003109
      96Ap     5.228398    76App    5.246510    97Ap     5.247000
      77App    5.356064    98Ap     5.356095    78App    5.479610

    Beta Occupied:

       1Ap   -10.167763     1App  -10.167722     2Ap   -10.167703
       3Ap   -10.166512     4Ap    -0.781159     5Ap    -0.684102
       2App   -0.683948     6Ap    -0.511756     3App   -0.431260
       7Ap    -0.431231     8Ap    -0.421657     9Ap    -0.376566
       4App   -0.376479     5App   -0.362725    10Ap    -0.333441
       6App   -0.332854

    Beta Virtual:

      11Ap    -0.025908    12Ap     0.077113     7App    0.134962
      13Ap     0.135060     8App    0.144530    14Ap     0.144623
      15Ap     0.163593    16Ap     0.182368     9App    0.182446
      10App    0.215256    17Ap     0.219022    11App    0.282249
      18Ap     0.282475    12App    0.400523    19Ap     0.400737
      20Ap     0.419735    21Ap     0.426747    13App    0.426756
      22Ap     0.468816    23Ap     0.497608    14App    0.497673
      15App    0.513712    24Ap     0.556297    16App    0.584497
      25Ap     0.584576    17App    0.597576    26Ap     0.597629
      27Ap     0.609782    28Ap     0.628203    18App    0.632185
      29Ap     0.639620    19App    0.639621    20App    0.667183
      30Ap     0.667369    31Ap     0.686372    21App    0.686398
      32Ap     0.757564    22App    0.830489    33Ap     0.830491
      23App    0.855617    34Ap     0.923089    24App    0.923294
      25App    0.946186    35Ap     0.952824    26App    0.966228
      36Ap     0.966349    37Ap     1.009447    38Ap     1.132588
      27App    1.132610    39Ap     1.154765    40Ap     1.168854
      28App    1.168921    41Ap     1.232326    29App    1.279876
      42Ap     1.280281    43Ap     1.285408    30App    1.329582
      44Ap     1.329731    45Ap     1.364935    46Ap     1.371361
      31App    1.371877    32App    1.393316    33App    1.407013
      47Ap     1.407489    34App    1.421716    48Ap     1.422220
      35App    1.428805    36App    1.493130    49Ap     1.509185
      37App    1.547113    50Ap     1.547476    51Ap     1.581406
      38App    1.582028    52Ap     1.674735    39App    1.744945
      53Ap     1.745141    54Ap     1.778983    55Ap     1.835464
      40App    1.835595    41App    1.972696    56Ap     2.025912
      42App    2.026746    57Ap     2.039481    58Ap     2.059190
      43App    2.060431    44App    2.746378    59Ap     2.746459
      45App    2.812360    60Ap     2.816291    46App    2.902079
      61Ap     2.903387    62Ap     2.924885    47App    2.932246
      63Ap     2.932650    48App    2.960122    64Ap     2.968725
      49App    2.969305    65Ap     3.042403    50App    3.080561
      66Ap     3.080844    51App    3.085818    67Ap     3.184270
      52App    3.184601    68Ap     3.188489    53App    3.289501
      69Ap     3.289877    70Ap     3.331979    54App    3.332107
      71Ap     3.383119    55App    3.492405    72Ap     3.492529
      56App    3.512605    73Ap     3.528502    57App    3.575849
      74Ap     3.582176    58App    3.582246    59App    3.670711
      75Ap     3.671270    76Ap     3.693998    77Ap     3.725214
      60App    3.725569    61App    3.782506    78Ap     3.782603
      79Ap     3.816374    62App    3.921730    80Ap     3.922476
      81Ap     4.044293    82Ap     4.118168    63App    4.118617
      64App    4.154885    83Ap     4.155170    84Ap     4.187209
      65App    4.209714    85Ap     4.209733    86Ap     4.210358
      66App    4.215846    67App    4.322932    87Ap     4.324559
      68App    4.363496    88Ap     4.431604    69App    4.432688
      70App    4.447342    71App    4.525253    89Ap     4.525617
      72App    4.589621    90Ap     4.590144    91Ap     4.625119
      92Ap     4.720230    93Ap     4.781753    73App    4.782029
      74App    4.838821    94Ap     4.968172    95Ap     5.006619
      75App    5.007165    96Ap     5.234098    76App    5.248306
      97Ap     5.248781    77App    5.362527    98Ap     5.362596
      78App    5.481936

    Final Occupation by Irrep:
             Ap   App
    DOCC [    10,    6 ]
    SOCC [     1,    0 ]

  @DF-UKS Final Energy:  -157.81307643338499

   => Energetics <=

    Nuclear Repulsion Energy =            125.4062251601551168
    One-Electron Energy =                -458.7715664731468337
    Two-Electron Energy =                 195.8597510633209140
    DFT Exchange-Correlation Energy =     -20.3074861837141754
    Empirical Dispersion Energy =           0.0000000000000000
    VV10 Nonlocal Energy =                  0.0000000000000000
    Total Energy =                       -157.8130764333849925

  UHF NO Occupations:
  HONO-2 :    9 Ap 1.9995995
  HONO-1 :   10 Ap 1.9989824
  HONO-0 :   11 Ap 1.0000000
  LUNO+0 :   12 Ap 0.0010176
  LUNO+1 :   13 Ap 0.0004005
  LUNO+2 :    7App 0.0001977
  LUNO+3 :   14 Ap 0.0001968

Computation Completed

Properties will be evaluated at   0.000000,   0.000000,   0.000000 [a0]

Properties computed using the SCF density matrix

  Nuclear Dipole Moment: [e a0]
     X:     0.8225      Y:     0.0031      Z:     0.0000

  Electronic Dipole Moment: [e a0]
     X:    -0.7450      Y:    -0.0030      Z:     0.0000

  Dipole Moment: [e a0]
     X:     0.0775      Y:     0.0001      Z:     0.0000     Total:     0.0775

  Dipole Moment: [D]
     X:     0.1970      Y:     0.0001      Z:     0.0000     Total:     0.1970

*** tstop() called on n040 at Fri Nov  5 11:55:30 2021
Module time:
	user time   =     635.54 seconds =      10.59 minutes
	system time =      12.29 seconds =       0.20 minutes
	total time  =        162 seconds =       2.70 minutes
Total time:
	user time   =     635.54 seconds =      10.59 minutes
	system time =      12.29 seconds =       0.20 minutes
	total time  =        162 seconds =       2.70 minutes
Grab this energy -157.813076433385
    Psi4 stopped on: Friday, 05 November 2021 11:55AM
    Psi4 wall time for execution: 0:02:42.90

*** Psi4 exiting successfully. Buy a developer a beer!
