                               Psi4 1.4a2.dev629

  ==> Input File <==

--------------------------------------------------------------------------
import os
memory 14 GB

molecule {
 C   -0.3233385677    0.0057760596   -0.0000000000
 C    0.0610590722   -1.3990194708   -2.4274805016
 C    0.0611815045    2.8017111048   -0.0000000000
 C    0.0610590722   -1.3990194708    2.4274805016
 H    2.0872750720   -1.6423756879   -2.8487766772
 H   -0.7635562515   -0.3906093476   -4.0228990947
 H   -0.7678226589   -3.2947848558   -2.3497026138
 H    2.0861247463    3.2875124230   -0.0000000000
 H   -0.7652430137    3.6792774116    1.6778070499
 H   -0.7652430137    3.6792774116   -1.6778070499
 H    2.0872750720   -1.6423756879    2.8487766772
 H   -0.7678226589   -3.2947848558    2.3497026138
 H   -0.7635562515   -0.3906093476    4.0228990947
units bohr
0 2
}

basis {

assign 6-31g_2dfp_

[ 6-31g_2dfp_ ]

spherical

!----------------------------------------------------------------------
! Basis Set Exchange
! Version v0.8.13
! https://www.basissetexchange.org
!----------------------------------------------------------------------
!   Basis set: 6-31G(2df,p)
! Description: 6-31G(2df,p)
!        Role: orbital
!     Version: 0  (Data from the original Basis Set Exchange)
!----------------------------------------------------------------------

****
H     0
S    3   1.00
     18.7311370              0.03349460
      2.8253937              0.23472695
      0.6401217              0.81375733
S    1   1.00
      0.1612778              1.00000000
P    1   1.00
      1.5000000              1.0000000
P    1   1.00
      0.3750000              1.0000000
****
B     0
S    6   1.00
   2068.8823000              0.0018663
    310.6495700              0.0142515
     70.6830330              0.0695516
     19.8610800              0.2325729
      6.2993048              0.4670787
      2.1270270              0.3634314
SP   3   1.00
      4.7279710             -0.1303938              0.0745976
      1.1903377             -0.1307889              0.3078467
      0.3594117              1.1309444              0.7434568
SP   1   1.00
      0.1267512              1.0000000              1.0000000
D    1   1.00
      0.8020000              1.0000000
D    1   1.00
      0.2005000              1.0000000
F    1   1.00
      0.5000000              1.0000000
****
C     0
S    6   1.00
   3047.5249000              0.0018347
    457.3695100              0.0140373
    103.9486900              0.0688426
     29.2101550              0.2321844
      9.2866630              0.4679413
      3.1639270              0.3623120
SP   3   1.00
      7.8682724             -0.1193324              0.0689991
      1.8812885             -0.1608542              0.3164240
      0.5442493              1.1434564              0.7443083
SP   1   1.00
      0.1687144              1.0000000              1.0000000
D    1   1.00
      1.2520000              1.0000000
D    1   1.00
      0.3130000              1.0000000
F    1   1.00
      0.8000000              1.0000000
****
N     0
S    6   1.00
   4173.5110000              0.0018348
    627.4579000              0.0139950
    142.9021000              0.0685870
     40.2343300              0.2322410
     12.8202100              0.4690700
      4.3904370              0.3604550
SP   3   1.00
     11.6263580             -0.1149610              0.0675800
      2.7162800             -0.1691180              0.3239070
      0.7722180              1.1458520              0.7408950
SP   1   1.00
      0.2120313              1.0000000              1.0000000
D    1   1.00
      1.8260000              1.0000000
D    1   1.00
      0.4565000              1.0000000
F    1   1.00
      1.0000000              1.0000000
****
O     0
S    6   1.00
   5484.6717000              0.0018311
    825.2349500              0.0139501
    188.0469600              0.0684451
     52.9645000              0.2327143
     16.8975700              0.4701930
      5.7996353              0.3585209
SP   3   1.00
     15.5396160             -0.1107775              0.0708743
      3.5999336             -0.1480263              0.3397528
      1.0137618              1.1307670              0.7271586
SP   1   1.00
      0.2700058              1.0000000              1.0000000
D    1   1.00
      2.5840000              1.0000000
D    1   1.00
      0.6460000              1.0000000
F    1   1.00
      1.4000000              1.0000000
****
F     0
S    6   1.00
   7001.7130900              0.0018196169
   1051.3660900              0.0139160796
    239.2856900              0.0684053245
     67.3974453              0.233185760
     21.5199573              0.471267439
      7.40310130             0.356618546
SP   3   1.00
     20.8479528             -0.108506975            0.0716287243
      4.80830834            -0.146451658            0.3459121030
      1.34406986             1.128688580            0.7224699570
SP   1   1.00
      0.358151393            1.0000000              1.0000000
D    1   1.00
      3.5000000              1.0000000
D    1   1.00
      0.8750000              1.0000000
F    1   1.00
      1.8500000              1.0000000
****
Al     0
S    6   1.00
  13983.1000000              0.00194267
   2098.7500000              0.0148599
    477.7050000              0.0728494
    134.3600000              0.2468300
     42.8709000              0.4872580
     14.5189000              0.3234960
SP   6   1.00
    239.6680000             -0.00292619             0.00460285
     57.4419000             -0.0374080              0.0331990
     18.2859000             -0.1144870              0.1362820
      6.5991400              0.1156350              0.3304760
      2.4904900              0.6125950              0.4491460
      0.9445400              0.3937990              0.2657040
SP   3   1.00
      1.2779000             -0.2276060             -0.0175130
      0.3975900              0.00144583             0.2445330
      0.1600950              1.0927900              0.8049340
SP   1   1.00
      0.0556577              1.0000000              1.0000000
D    1   1.00
      0.6500000              1.0000000
D    1   1.00
      0.1625000              1.0000000
F    1   1.00
      0.2500000              1.0000000
****
Si     0
S    6   1.00
  16115.9000000              0.00195948
   2425.5800000              0.01492880
    553.8670000              0.07284780
    156.3400000              0.24613000
     50.0683000              0.48591400
     17.0178000              0.32500200
SP   6   1.00
    292.7180000             -0.00278094             0.00443826
     69.8731000             -0.03571460             0.03266790
     22.3363000             -0.11498500             0.13472100
      8.1503900              0.09356340             0.32867800
      3.1345800              0.60301700             0.44964000
      1.2254300              0.41895900             0.26137200
SP   3   1.00
      1.7273800             -0.24463000            -0.01779510
      0.5729220              0.00431572             0.25353900
      0.2221920              1.09818000             0.80066900
SP   1   1.00
      0.0778369              1.00000000             1.00000000
D    1   1.00
      0.9000000              1.0000000
D    1   1.00
      0.2250000              1.0000000
F    1   1.00
      0.3200000              1.0000000
****
P     0
S    6   1.00
  19413.3000000              0.0018516
   2909.4200000              0.0142062
    661.3640000              0.0699995
    185.7590000              0.2400790
     59.1943000              0.4847620
     20.0310000              0.3352000
SP   6   1.00
    339.4780000             -0.00278217             0.00456462
     81.0101000             -0.0360499              0.03369360
     25.8780000             -0.1166310              0.13975500
      9.4522100              0.0968328              0.33936200
      3.6656600              0.6144180              0.45092100
      1.4674600              0.4037980              0.23858600
SP   3   1.00
      2.1562300             -0.2529230             -0.01776530
      0.7489970              0.0328517              0.27405800
      0.2831450              1.0812500              0.78542100
SP   1   1.00
      0.0998317              1.0000000              1.00000000
D    1   1.00
      1.1000000              1.0000000
D    1   1.00
      0.2750000              1.0000000
F    1   1.00
      0.4500000              1.0000000
****
S     0
S    6   1.00
  21917.1000000              0.0018690
   3301.4900000              0.0142300
    754.1460000              0.0696960
    212.7110000              0.2384870
     67.9896000              0.4833070
     23.0515000              0.3380740
SP   6   1.00
    423.7350000             -0.0023767              0.0040610
    100.7100000             -0.0316930              0.0306810
     32.1599000             -0.1133170              0.1304520
     11.8079000              0.0560900              0.3272050
      4.6311000              0.5922550              0.4528510
      1.8702500              0.4550060              0.2560420
SP   3   1.00
      2.6158400             -0.2503740             -0.0145110
      0.9221670              0.0669570              0.3102630
      0.3412870              1.0545100              0.7544830
SP   1   1.00
      0.1171670              1.0000000              1.0000000
D    1   1.00
      1.3000000              1.0000000
D    1   1.00
      0.3250000              1.0000000
F    1   1.00
      0.5500000              1.0000000
****
Cl     0
S    6   1.00
  25180.1000000              0.0018330
   3780.3500000              0.0140340
    860.4740000              0.0690970
    242.1450000              0.2374520
     77.3349000              0.4830340
     26.2470000              0.3398560
SP   6   1.00
    491.7650000             -0.0022974              0.0039894
    116.9840000             -0.0307140              0.0303180
     37.4153000             -0.1125280              0.1298800
     13.7834000              0.0450160              0.3279510
      5.4521500              0.5893530              0.4535270
      2.2258800              0.4652060              0.2521540
SP   3   1.00
      3.1864900             -0.2518300             -0.0142990
      1.1442700              0.0615890              0.3235720
      0.4203770              1.0601800              0.7435070
SP   1   1.00
      0.1426570              1.0000000              1.0000000
D    1   1.00
      1.5000000              1.0000000
D    1   1.00
      0.3750000              1.0000000
F    1   1.00
      0.7000000              1.0000000
****
}

set {
reference uhf
freeze_core true
e_convergence 10
d_convergence 10
dft_spherical_points 1202
dft_radial_points 99
}

e = energy('b3lyp')

print_out('Grab this energy {0}'.format(e))
--------------------------------------------------------------------------

    Molecular point group: cs

    Geometry (in Bohr), charge = 0, multiplicity = 2:

       Center              X                  Y                   Z               Mass
    ------------   -----------------  -----------------  -----------------  -----------------
         C           -0.323338773028     0.003956693198     0.000000000000    12.000000000000
         C            0.061058866872    -1.400838837202    -2.427480501600    12.000000000000
         C            0.061181299172     2.799891738398     0.000000000000    12.000000000000
         C            0.061058866872    -1.400838837202     2.427480501600    12.000000000000
         H            2.087274866672    -1.644195054302    -2.848776677200     1.007825032230
         H           -0.763556456828    -0.392428714002    -4.022899094700     1.007825032230
         H           -0.767822864228    -3.296604222202    -2.349702613800     1.007825032230
         H            2.086124540972     3.285693056598     0.000000000000     1.007825032230
         H           -0.765243219028     3.677458045198     1.677807049900     1.007825032230
         H           -0.765243219028     3.677458045198    -1.677807049900     1.007825032230
         H            2.087274866672    -1.644195054302     2.848776677200     1.007825032230
         H           -0.767822864228    -3.296604222202     2.349702613800     1.007825032230
         H           -0.763556456828    -0.392428714002     4.022899094700     1.007825032230

  Charge       = 0
  Multiplicity = 2
  Basis Set: ANONYMOUS1ECB4F3B
    Blend: 6-31G_2DFP_
  Basis Set: (ANONYMOUS1ECB4F3B AUX)
    Blend: DEF2-UNIVERSAL-JKFIT

    Orbital Energies [Eh]
    ---------------------

    Alpha Occupied:

       1Ap   -10.180342     1App  -10.167043     2Ap   -10.167025
       3Ap   -10.166976     4Ap    -0.797771     5Ap    -0.686315
       2App   -0.686061     6Ap    -0.530777     7Ap    -0.441140
       3App   -0.434701     8Ap    -0.434629     9Ap    -0.382739
       4App   -0.382466     5App   -0.363605    10Ap    -0.338354
       6App   -0.337640    11Ap    -0.168960

    Alpha Virtual:

      12Ap     0.076069    13Ap     0.134026     7App    0.134282
       8App    0.142245    14Ap     0.143001    15Ap     0.154885
       9App    0.178676    16Ap     0.178882    17Ap     0.203543
      10App    0.214806    11App    0.275587    18Ap     0.276384
      19Ap     0.399099    12App    0.399350    20Ap     0.403347
      21Ap     0.423935    13App    0.424259    22Ap     0.456593
      23Ap     0.495388    14App    0.495392    15App    0.512162
      24Ap     0.513978    16App    0.578568    25Ap     0.579065
      17App    0.591499    26Ap     0.591778    27Ap     0.602578
      28Ap     0.624664    18App    0.631761    19App    0.635820
      29Ap     0.636792    20App    0.663269    30Ap     0.663555
      31Ap     0.683607    21App    0.684121    32Ap     0.734993
      22App    0.825046    33Ap     0.825769    23App    0.853915
      34Ap     0.914686    24App    0.915349    25App    0.944126
      35Ap     0.944623    26App    0.961193    36Ap     0.961394
      37Ap     1.003454    38Ap     1.128043    27App    1.128158
      39Ap     1.142251    28App    1.162948    40Ap     1.163585
      41Ap     1.223325    42Ap     1.274270    29App    1.274713
      43Ap     1.279348    30App    1.324043    44Ap     1.324650
      45Ap     1.355992    31App    1.365480    46Ap     1.366639
      32App    1.392405    33App    1.403963    47Ap     1.404150
      48Ap     1.416084    34App    1.418144    35App    1.427915
      36App    1.491501    49Ap     1.499070    50Ap     1.542818
      37App    1.542850    38App    1.574268    51Ap     1.574616
      52Ap     1.669834    39App    1.738513    53Ap     1.740317
      54Ap     1.768318    55Ap     1.830885    40App    1.831864
      41App    1.971774    56Ap     2.017832    42App    2.019042
      57Ap     2.019548    43App    2.051586    58Ap     2.053723
      44App    2.738065    59Ap     2.738902    60Ap     2.790928
      45App    2.811425    46App    2.889247    61Ap     2.890663
      62Ap     2.894938    47App    2.929087    63Ap     2.929908
      48App    2.958987    64Ap     2.964277    49App    2.964484
      65Ap     3.034011    50App    3.071252    66Ap     3.071253
      51App    3.084437    52App    3.168448    67Ap     3.169043
      68Ap     3.180691    53App    3.285165    69Ap     3.285449
      70Ap     3.327157    54App    3.327165    71Ap     3.375612
      55App    3.489884    72Ap     3.490412    56App    3.514024
      73Ap     3.525331    74Ap     3.567727    57App    3.569051
      58App    3.575123    59App    3.666258    75Ap     3.666571
      76Ap     3.679645    77Ap     3.693865    60App    3.694381
      61App    3.775967    78Ap     3.777621    79Ap     3.789150
      80Ap     3.912112    62App    3.912334    81Ap     4.034436
      63App    4.110499    82Ap     4.112213    64App    4.147401
      83Ap     4.148725    84Ap     4.173293    85Ap     4.202032
      86Ap     4.203365    65App    4.203410    66App    4.210910
      87Ap     4.315884    67App    4.316051    68App    4.358981
      69App    4.423833    88Ap     4.425081    70App    4.443496
      71App    4.515687    89Ap     4.517986    90Ap     4.577725
      72App    4.578412    91Ap     4.618005    92Ap     4.709451
      73App    4.773058    93Ap     4.776184    74App    4.836877
      94Ap     4.962814    75App    5.002877    95Ap     5.003113
      96Ap     5.227558    76App    5.246853    97Ap     5.247255
      77App    5.353705    98Ap     5.357374    78App    5.479406

    Beta Occupied:

       1App  -10.167794     1Ap   -10.167781     2Ap   -10.167747
       3Ap   -10.166519     4Ap    -0.781096     5Ap    -0.684104
       2App   -0.683877     6Ap    -0.511749     3App   -0.431068
       7Ap    -0.431028     8Ap    -0.421813     9Ap    -0.376779
       4App   -0.376598     5App   -0.362587    10Ap    -0.333491
       6App   -0.332749

    Beta Virtual:

      11Ap    -0.025743    12Ap     0.077078    13Ap     0.134908
       7App    0.135179     8App    0.144098    14Ap     0.144892
      15Ap     0.163342     9App    0.182336    16Ap     0.182563
      10App    0.215036    17Ap     0.218926    11App    0.281970
      18Ap     0.282696    19Ap     0.400264    12App    0.400527
      20Ap     0.419792    21Ap     0.426757    13App    0.427058
      22Ap     0.468501    23Ap     0.497646    14App    0.497655
      15App    0.513897    24Ap     0.556322    16App    0.584097
      25Ap     0.584639    17App    0.597646    26Ap     0.597987
      27Ap     0.610004    28Ap     0.628039    18App    0.631921
      19App    0.639109    29Ap     0.640072    20App    0.666843
      30Ap     0.667110    31Ap     0.686263    21App    0.686733
      32Ap     0.757517    22App    0.830231    33Ap     0.830921
      23App    0.855268    34Ap     0.922650    24App    0.923327
      25App    0.945962    35Ap     0.953554    26App    0.966509
      36Ap     0.966689    37Ap     1.008695    38Ap     1.132063
      27App    1.132205    39Ap     1.155618    28App    1.168022
      40Ap     1.168656    41Ap     1.232296    42Ap     1.279937
      29App    1.280240    43Ap     1.285104    30App    1.329046
      44Ap     1.329625    45Ap     1.365404    31App    1.370833
      46Ap     1.371774    32App    1.393469    33App    1.407354
      47Ap     1.407688    48Ap     1.421194    34App    1.423130
      35App    1.428186    36App    1.492550    49Ap     1.509513
      50Ap     1.547202    37App    1.547283    38App    1.582109
      51Ap     1.582515    52Ap     1.674682    39App    1.744256
      53Ap     1.746102    54Ap     1.779091    55Ap     1.834752
      40App    1.835709    41App    1.972635    56Ap     2.025426
      42App    2.025456    57Ap     2.039716    43App    2.058300
      58Ap     2.060441    44App    2.746358    59Ap     2.747282
      45App    2.811837    60Ap     2.816063    46App    2.901980
      61Ap     2.903307    62Ap     2.924648    47App    2.931558
      63Ap     2.932398    48App    2.960054    64Ap     2.968830
      49App    2.969013    65Ap     3.041946    66Ap     3.081088
      50App    3.081113    51App    3.086380    52App    3.184143
      67Ap     3.184616    68Ap     3.188602    53App    3.290016
      69Ap     3.290196    54App    3.330937    70Ap     3.330992
      71Ap     3.383434    55App    3.492587    72Ap     3.493162
      56App    3.512394    73Ap     3.528377    57App    3.574972
      74Ap     3.581036    58App    3.582442    59App    3.671050
      75Ap     3.671253    76Ap     3.692962    77Ap     3.725542
      60App    3.725955    61App    3.780470    78Ap     3.782176
      79Ap     3.817685    80Ap     3.921865    62App    3.922218
      81Ap     4.045321    63App    4.117151    82Ap     4.119196
      64App    4.154862    83Ap     4.155691    84Ap     4.187335
      85Ap     4.208467    65App    4.209332    86Ap     4.210855
      66App    4.215384    67App    4.323389    87Ap     4.323433
      68App    4.362345    69App    4.432048    88Ap     4.433273
      70App    4.446401    71App    4.523423    89Ap     4.525827
      90Ap     4.588336    72App    4.588978    91Ap     4.625222
      92Ap     4.719798    73App    4.780001    93Ap     4.783149
      74App    4.839794    94Ap     4.967606    75App    5.006903
      95Ap     5.007167    96Ap     5.233163    76App    5.248633
      97Ap     5.249161    77App    5.360166    98Ap     5.363867
      78App    5.481729

    Final Occupation by Irrep:
             Ap   App
    DOCC [    10,    6 ]
    SOCC [     1,    0 ]

  @DF-UKS Final Energy:  -157.81304591343491

   => Energetics <=

    Nuclear Repulsion Energy =            125.3947549413510529
    One-Electron Energy =                -458.7491032434501221
    Two-Electron Energy =                 195.8484555117545085
    DFT Exchange-Correlation Energy =     -20.3071531230903268
    Empirical Dispersion Energy =           0.0000000000000000
    VV10 Nonlocal Energy =                  0.0000000000000000
    Total Energy =                       -157.8130459134349053

  UHF NO Occupations:
  HONO-2 :    9 Ap 1.9996009
  HONO-1 :   10 Ap 1.9989805
  HONO-0 :   11 Ap 1.0000000
  LUNO+0 :   12 Ap 0.0010195
  LUNO+1 :   13 Ap 0.0003991
  LUNO+2 :    7App 0.0001986
  LUNO+3 :   14 Ap 0.0001965

Computation Completed

Properties will be evaluated at   0.000000,   0.000000,   0.000000 [a0]

Properties computed using the SCF density matrix

  Nuclear Dipole Moment: [e a0]
     X:     0.8272      Y:    -0.0128      Z:     0.0000

  Electronic Dipole Moment: [e a0]
     X:    -0.7493      Y:     0.0158      Z:     0.0000

  Dipole Moment: [e a0]
     X:     0.0779      Y:     0.0030      Z:     0.0000     Total:     0.0780

  Dipole Moment: [D]
     X:     0.1980      Y:     0.0076      Z:     0.0000     Total:     0.1982

*** tstop() called on n091 at Fri Nov  5 13:43:42 2021
Module time:
	user time   =     631.49 seconds =      10.52 minutes
	system time =       5.83 seconds =       0.10 minutes
	total time  =        160 seconds =       2.67 minutes
Total time:
	user time   =     631.49 seconds =      10.52 minutes
	system time =       5.83 seconds =       0.10 minutes
	total time  =        160 seconds =       2.67 minutes
Grab this energy -157.8130459134349
    Psi4 stopped on: Friday, 05 November 2021 01:43PM
    Psi4 wall time for execution: 0:02:40.16

*** Psi4 exiting successfully. Buy a developer a beer!
