                               Psi4 1.4a2.dev629

  ==> Input File <==

--------------------------------------------------------------------------
import os
memory 14 GB

molecule {
 C   -0.3233410315    0.0019950502    0.0024277656
 C    0.0619062622   -1.4013083415   -2.4278752564
 C    0.0608654493    2.8009124308    0.0012528405
 C    0.0605268039   -1.3991385195    2.4266196478
 H    2.0890449208   -1.6403696204   -2.8514243925
 H   -0.7677921736   -0.3930210763   -4.0294178622
 H   -0.7612283498   -3.2936691680   -2.3468269545
 H    2.0870157388    3.2835132443   -0.0033512645
 H   -0.7607774052    3.6833692210    1.6790658746
 H   -0.7694939466    3.6775834513   -1.6723871239
 H    2.0845940194   -1.6439806939    2.8509774831
 H   -0.7680282140   -3.2871870552    2.3414595280
 H   -0.7658999506   -0.3887232363    4.0294797145
units bohr
0 2
}

basis {

assign 6-31g_2dfp_

[ 6-31g_2dfp_ ]

spherical

!----------------------------------------------------------------------
! Basis Set Exchange
! Version v0.8.13
! https://www.basissetexchange.org
!----------------------------------------------------------------------
!   Basis set: 6-31G(2df,p)
! Description: 6-31G(2df,p)
!        Role: orbital
!     Version: 0  (Data from the original Basis Set Exchange)
!----------------------------------------------------------------------

****
H     0
S    3   1.00
     18.7311370              0.03349460
      2.8253937              0.23472695
      0.6401217              0.81375733
S    1   1.00
      0.1612778              1.00000000
P    1   1.00
      1.5000000              1.0000000
P    1   1.00
      0.3750000              1.0000000
****
B     0
S    6   1.00
   2068.8823000              0.0018663
    310.6495700              0.0142515
     70.6830330              0.0695516
     19.8610800              0.2325729
      6.2993048              0.4670787
      2.1270270              0.3634314
SP   3   1.00
      4.7279710             -0.1303938              0.0745976
      1.1903377             -0.1307889              0.3078467
      0.3594117              1.1309444              0.7434568
SP   1   1.00
      0.1267512              1.0000000              1.0000000
D    1   1.00
      0.8020000              1.0000000
D    1   1.00
      0.2005000              1.0000000
F    1   1.00
      0.5000000              1.0000000
****
C     0
S    6   1.00
   3047.5249000              0.0018347
    457.3695100              0.0140373
    103.9486900              0.0688426
     29.2101550              0.2321844
      9.2866630              0.4679413
      3.1639270              0.3623120
SP   3   1.00
      7.8682724             -0.1193324              0.0689991
      1.8812885             -0.1608542              0.3164240
      0.5442493              1.1434564              0.7443083
SP   1   1.00
      0.1687144              1.0000000              1.0000000
D    1   1.00
      1.2520000              1.0000000
D    1   1.00
      0.3130000              1.0000000
F    1   1.00
      0.8000000              1.0000000
****
N     0
S    6   1.00
   4173.5110000              0.0018348
    627.4579000              0.0139950
    142.9021000              0.0685870
     40.2343300              0.2322410
     12.8202100              0.4690700
      4.3904370              0.3604550
SP   3   1.00
     11.6263580             -0.1149610              0.0675800
      2.7162800             -0.1691180              0.3239070
      0.7722180              1.1458520              0.7408950
SP   1   1.00
      0.2120313              1.0000000              1.0000000
D    1   1.00
      1.8260000              1.0000000
D    1   1.00
      0.4565000              1.0000000
F    1   1.00
      1.0000000              1.0000000
****
O     0
S    6   1.00
   5484.6717000              0.0018311
    825.2349500              0.0139501
    188.0469600              0.0684451
     52.9645000              0.2327143
     16.8975700              0.4701930
      5.7996353              0.3585209
SP   3   1.00
     15.5396160             -0.1107775              0.0708743
      3.5999336             -0.1480263              0.3397528
      1.0137618              1.1307670              0.7271586
SP   1   1.00
      0.2700058              1.0000000              1.0000000
D    1   1.00
      2.5840000              1.0000000
D    1   1.00
      0.6460000              1.0000000
F    1   1.00
      1.4000000              1.0000000
****
F     0
S    6   1.00
   7001.7130900              0.0018196169
   1051.3660900              0.0139160796
    239.2856900              0.0684053245
     67.3974453              0.233185760
     21.5199573              0.471267439
      7.40310130             0.356618546
SP   3   1.00
     20.8479528             -0.108506975            0.0716287243
      4.80830834            -0.146451658            0.3459121030
      1.34406986             1.128688580            0.7224699570
SP   1   1.00
      0.358151393            1.0000000              1.0000000
D    1   1.00
      3.5000000              1.0000000
D    1   1.00
      0.8750000              1.0000000
F    1   1.00
      1.8500000              1.0000000
****
Al     0
S    6   1.00
  13983.1000000              0.00194267
   2098.7500000              0.0148599
    477.7050000              0.0728494
    134.3600000              0.2468300
     42.8709000              0.4872580
     14.5189000              0.3234960
SP   6   1.00
    239.6680000             -0.00292619             0.00460285
     57.4419000             -0.0374080              0.0331990
     18.2859000             -0.1144870              0.1362820
      6.5991400              0.1156350              0.3304760
      2.4904900              0.6125950              0.4491460
      0.9445400              0.3937990              0.2657040
SP   3   1.00
      1.2779000             -0.2276060             -0.0175130
      0.3975900              0.00144583             0.2445330
      0.1600950              1.0927900              0.8049340
SP   1   1.00
      0.0556577              1.0000000              1.0000000
D    1   1.00
      0.6500000              1.0000000
D    1   1.00
      0.1625000              1.0000000
F    1   1.00
      0.2500000              1.0000000
****
Si     0
S    6   1.00
  16115.9000000              0.00195948
   2425.5800000              0.01492880
    553.8670000              0.07284780
    156.3400000              0.24613000
     50.0683000              0.48591400
     17.0178000              0.32500200
SP   6   1.00
    292.7180000             -0.00278094             0.00443826
     69.8731000             -0.03571460             0.03266790
     22.3363000             -0.11498500             0.13472100
      8.1503900              0.09356340             0.32867800
      3.1345800              0.60301700             0.44964000
      1.2254300              0.41895900             0.26137200
SP   3   1.00
      1.7273800             -0.24463000            -0.01779510
      0.5729220              0.00431572             0.25353900
      0.2221920              1.09818000             0.80066900
SP   1   1.00
      0.0778369              1.00000000             1.00000000
D    1   1.00
      0.9000000              1.0000000
D    1   1.00
      0.2250000              1.0000000
F    1   1.00
      0.3200000              1.0000000
****
P     0
S    6   1.00
  19413.3000000              0.0018516
   2909.4200000              0.0142062
    661.3640000              0.0699995
    185.7590000              0.2400790
     59.1943000              0.4847620
     20.0310000              0.3352000
SP   6   1.00
    339.4780000             -0.00278217             0.00456462
     81.0101000             -0.0360499              0.03369360
     25.8780000             -0.1166310              0.13975500
      9.4522100              0.0968328              0.33936200
      3.6656600              0.6144180              0.45092100
      1.4674600              0.4037980              0.23858600
SP   3   1.00
      2.1562300             -0.2529230             -0.01776530
      0.7489970              0.0328517              0.27405800
      0.2831450              1.0812500              0.78542100
SP   1   1.00
      0.0998317              1.0000000              1.00000000
D    1   1.00
      1.1000000              1.0000000
D    1   1.00
      0.2750000              1.0000000
F    1   1.00
      0.4500000              1.0000000
****
S     0
S    6   1.00
  21917.1000000              0.0018690
   3301.4900000              0.0142300
    754.1460000              0.0696960
    212.7110000              0.2384870
     67.9896000              0.4833070
     23.0515000              0.3380740
SP   6   1.00
    423.7350000             -0.0023767              0.0040610
    100.7100000             -0.0316930              0.0306810
     32.1599000             -0.1133170              0.1304520
     11.8079000              0.0560900              0.3272050
      4.6311000              0.5922550              0.4528510
      1.8702500              0.4550060              0.2560420
SP   3   1.00
      2.6158400             -0.2503740             -0.0145110
      0.9221670              0.0669570              0.3102630
      0.3412870              1.0545100              0.7544830
SP   1   1.00
      0.1171670              1.0000000              1.0000000
D    1   1.00
      1.3000000              1.0000000
D    1   1.00
      0.3250000              1.0000000
F    1   1.00
      0.5500000              1.0000000
****
Cl     0
S    6   1.00
  25180.1000000              0.0018330
   3780.3500000              0.0140340
    860.4740000              0.0690970
    242.1450000              0.2374520
     77.3349000              0.4830340
     26.2470000              0.3398560
SP   6   1.00
    491.7650000             -0.0022974              0.0039894
    116.9840000             -0.0307140              0.0303180
     37.4153000             -0.1125280              0.1298800
     13.7834000              0.0450160              0.3279510
      5.4521500              0.5893530              0.4535270
      2.2258800              0.4652060              0.2521540
SP   3   1.00
      3.1864900             -0.2518300             -0.0142990
      1.1442700              0.0615890              0.3235720
      0.4203770              1.0601800              0.7435070
SP   1   1.00
      0.1426570              1.0000000              1.0000000
D    1   1.00
      1.5000000              1.0000000
D    1   1.00
      0.3750000              1.0000000
F    1   1.00
      0.7000000              1.0000000
****
}

set {
reference uhf
freeze_core true
e_convergence 10
d_convergence 10
dft_spherical_points 1202
dft_radial_points 99
}

e = energy('b3lyp')

print_out('Grab this energy {0}'.format(e))
--------------------------------------------------------------------------

    Molecular point group: c1

    Geometry (in Bohr), charge = 0, multiplicity = 2:

       Center              X                  Y                   Z               Mass
    ------------   -----------------  -----------------  -----------------  -----------------
         C           -0.323340543958     0.001521546425     0.001960693613    12.000000000000
         C            0.061906749742    -1.401781845275    -2.428342328387    12.000000000000
         C            0.060865936842     2.800438927025     0.000785768513    12.000000000000
         C            0.060527291442    -1.399612023275     2.426152575813    12.000000000000
         H            2.089045408342    -1.640843124175    -2.851891464487     1.007825032230
         H           -0.767791686058    -0.393494580075    -4.029884934187     1.007825032230
         H           -0.761227862258    -3.294142671775    -2.347294026487     1.007825032230
         H            2.087016226342     3.283039740525    -0.003818336487     1.007825032230
         H           -0.760776917658     3.682895717225     1.678598802613     1.007825032230
         H           -0.769493459058     3.677109947525    -1.672854195887     1.007825032230
         H            2.084594506942    -1.644454197675     2.850510411113     1.007825032230
         H           -0.768027726458    -3.287660558975     2.340992456013     1.007825032230
         H           -0.765899463058    -0.389196740075     4.029012642513     1.007825032230

  Charge       = 0
  Multiplicity = 2
  Basis Set: ANONYMOUS996791DF
    Blend: 6-31G_2DFP_
  Basis Set: (ANONYMOUS996791DF AUX)
    Blend: DEF2-UNIVERSAL-JKFIT

    Orbital Energies [Eh]
    ---------------------

    Alpha Occupied:

       1A    -10.180342     2A    -10.167294     3A    -10.166920
       4A    -10.166830     5A     -0.797768     6A     -0.686375
       7A     -0.685998     8A     -0.530776     9A     -0.441130
      10A     -0.434768    11A     -0.434572    12A     -0.382658
      13A     -0.382541    14A     -0.363611    15A     -0.338159
      16A     -0.337835    17A     -0.168960

    Alpha Virtual:

      18A      0.076073    19A      0.134086    20A      0.134226
      21A      0.142563    22A      0.142688    23A      0.154879
      24A      0.178738    25A      0.178816    26A      0.203548
      27A      0.214804    28A      0.275554    29A      0.276417
      30A      0.399180    31A      0.399258    32A      0.403364
      33A      0.424035    34A      0.424163    35A      0.456594
      36A      0.495311    37A      0.495468    38A      0.512159
      39A      0.513979    40A      0.578475    41A      0.579152
      42A      0.591261    43A      0.592006    44A      0.602578
      45A      0.624758    46A      0.631771    47A      0.636155
      48A      0.636356    49A      0.663205    50A      0.663619
      51A      0.683819    52A      0.683887    53A      0.734994
      54A      0.825190    55A      0.825623    56A      0.853916
      57A      0.914832    58A      0.915209    59A      0.944120
      60A      0.944612    61A      0.960615    62A      0.961980
      63A      1.003464    64A      1.127870    65A      1.128313
      66A      1.142209    67A      1.163129    68A      1.163454
      69A      1.223328    70A      1.274254    71A      1.274721
      72A      1.279356    73A      1.324229    74A      1.324485
      75A      1.355999    76A      1.365716    77A      1.366379
      78A      1.392445    79A      1.403606    80A      1.404501
      81A      1.416629    82A      1.417599    83A      1.427918
      84A      1.491494    85A      1.499081    86A      1.542521
      87A      1.543137    88A      1.574220    89A      1.574669
      90A      1.669837    91A      1.738968    92A      1.739873
      93A      1.768309    94A      1.830756    95A      1.832037
      96A      1.971729    97A      2.017956    98A      2.019095
      99A      2.019330   100A      2.051393   101A      2.053906
     102A      2.738195   103A      2.738766   104A      2.790934
     105A      2.811411   106A      2.889372   107A      2.890457
     108A      2.895036   109A      2.929326   110A      2.929673
     111A      2.958992   112A      2.964068   113A      2.964684
     114A      3.034008   115A      3.070965   116A      3.071602
     117A      3.084348   118A      3.168554   119A      3.168991
     120A      3.180612   121A      3.285254   122A      3.285375
     123A      3.326601   124A      3.327713   125A      3.375620
     126A      3.489855   127A      3.490440   128A      3.514012
     129A      3.525293   130A      3.567442   131A      3.569285
     132A      3.575237   133A      3.666102   134A      3.666591
     135A      3.679649   136A      3.693587   137A      3.694709
     138A      3.774960   139A      3.778604   140A      3.789208
     141A      3.911680   142A      3.912793   143A      4.034446
     144A      4.109737   145A      4.112979   146A      4.147094
     147A      4.149114   148A      4.173286   149A      4.202389
     150A      4.202777   151A      4.203611   152A      4.210889
     153A      4.315000   154A      4.316878   155A      4.359031
     156A      4.423883   157A      4.425026   158A      4.443456
     159A      4.515956   160A      4.517699   161A      4.577473
     162A      4.579020   163A      4.617524   164A      4.709453
     165A      4.773361   166A      4.775866   167A      4.836964
     168A      4.962844   169A      5.002252   170A      5.003671
     171A      5.228024   172A      5.246331   173A      5.247300
     174A      5.354322   175A      5.356693   176A      5.479357

    Beta Occupied:

       1A    -10.168051     2A    -10.167680     3A    -10.167592
       4A    -10.166518     5A     -0.781093     6A     -0.684164
       7A     -0.683814     8A     -0.511747     9A     -0.431145
      10A     -0.430944    11A     -0.421819    12A     -0.376731
      13A     -0.376638    14A     -0.362595    15A     -0.333281
      16A     -0.332960

    Beta Virtual:

      17A     -0.025742    18A      0.077082    19A      0.134975
      20A      0.135116    21A      0.144430    22A      0.144563
      23A      0.163338    24A      0.182427    25A      0.182471
      26A      0.215033    27A      0.218929    28A      0.281917
      29A      0.282750    30A      0.400362    31A      0.400430
      32A      0.419791    33A      0.426841    34A      0.426982
      35A      0.468502    36A      0.497579    37A      0.497722
      38A      0.513895    39A      0.556322    40A      0.584018
      41A      0.584710    42A      0.597464    43A      0.598162
      44A      0.609999    45A      0.628136    46A      0.631930
      47A      0.639414    48A      0.639668    49A      0.666780
      50A      0.667172    51A      0.686438    52A      0.686539
      53A      0.757517    54A      0.830338    55A      0.830811
      56A      0.855269    57A      0.922823    58A      0.923159
      59A      0.945958    60A      0.953535    61A      0.965979
      62A      0.967235    63A      1.008704    64A      1.131814
      65A      1.132429    66A      1.155582    67A      1.168303
      68A      1.168426    69A      1.232300    70A      1.279846
      71A      1.280320    72A      1.285113    73A      1.329230
      74A      1.329463    75A      1.365415    76A      1.371007
      77A      1.371573    78A      1.393505    79A      1.407033
      80A      1.408001    81A      1.421688    82A      1.422639
      83A      1.428191    84A      1.492542    85A      1.509525
      86A      1.546939    87A      1.547535    88A      1.582135
      89A      1.582498    90A      1.674683    91A      1.744715
      92A      1.745650    93A      1.779089    94A      1.834610
      95A      1.835895    96A      1.972589    97A      2.025321
      98A      2.025546    99A      2.039688   100A      2.058121
     101A      2.060613   102A      2.746541   103A      2.747094
     104A      2.811825   105A      2.816066   106A      2.902208
     107A      2.903067   108A      2.924651   109A      2.931817
     110A      2.932164   111A      2.960055   112A      2.968635
     113A      2.969207   114A      3.041943   115A      3.080916
     116A      3.081470   117A      3.086165   118A      3.184194
     119A      3.184803   120A      3.188343   121A      3.290031
     122A      3.290195   123A      3.330421   124A      3.331501
     125A      3.383440   126A      3.492577   127A      3.493176
     128A      3.512384   129A      3.528348   130A      3.574885
     131A      3.580976   132A      3.582621   133A      3.671035
     134A      3.671210   135A      3.692927   136A      3.725529
     137A      3.725994   138A      3.779551   139A      3.783093
     140A      3.817724   141A      3.921545   142A      3.922563
     143A      4.045333   144A      4.116641   145A      4.119708
     146A      4.154314   147A      4.156320   148A      4.187336
     149A      4.208527   150A      4.209366   151A      4.210721
     152A      4.215370   153A      4.322399   154A      4.324352
     155A      4.362399   156A      4.432128   157A      4.433204
     158A      4.446349   159A      4.523760   160A      4.525473
     161A      4.588065   162A      4.589624   163A      4.624724
     164A      4.719797   165A      4.780373   166A      4.782762
     167A      4.839884   168A      4.967638   169A      5.006271
     170A      5.007731   171A      5.233739   172A      5.248105
     173A      5.249095   174A      5.360774   175A      5.363203
     176A      5.481679

    Final Occupation by Irrep:
              A
    DOCC [    16 ]
    SOCC [     1 ]

  @DF-UKS Final Energy:  -157.81306430981707

   => Energetics <=

    Nuclear Repulsion Energy =            125.3946560781880635
    One-Electron Energy =                -458.7489641555624758
    Two-Electron Energy =                 195.8483885037512948
    DFT Exchange-Correlation Energy =     -20.3071447361939477
    Empirical Dispersion Energy =           0.0000000000000000
    VV10 Nonlocal Energy =                  0.0000000000000000
    Total Energy =                       -157.8130643098170651

  UHF NO Occupations:
  HONO-2 :   15  A 1.9996009
  HONO-1 :   16  A 1.9989804
  HONO-0 :   17  A 1.0000000
  LUNO+0 :   18  A 0.0010196
  LUNO+1 :   19  A 0.0003991
  LUNO+2 :   20  A 0.0001982
  LUNO+3 :   21  A 0.0001969

Computation Completed

Properties will be evaluated at   0.000000,   0.000000,   0.000000 [a0]

Properties computed using the SCF density matrix

  Nuclear Dipole Moment: [e a0]
     X:     0.8272      Y:    -0.0033      Z:    -0.0033

  Electronic Dipole Moment: [e a0]
     X:    -0.7493      Y:     0.0034      Z:     0.0033

  Dipole Moment: [e a0]
     X:     0.0779      Y:     0.0000      Z:    -0.0000     Total:     0.0779

  Dipole Moment: [D]
     X:     0.1980      Y:     0.0001      Z:    -0.0001     Total:     0.1980

*** tstop() called on n082 at Fri Nov  5 15:33:23 2021
Module time:
	user time   =     494.29 seconds =       8.24 minutes
	system time =       4.40 seconds =       0.07 minutes
	total time  =        126 seconds =       2.10 minutes
Total time:
	user time   =     494.29 seconds =       8.24 minutes
	system time =       4.40 seconds =       0.07 minutes
	total time  =        126 seconds =       2.10 minutes
Grab this energy -157.81306430981707
    Psi4 stopped on: Friday, 05 November 2021 03:33PM
    Psi4 wall time for execution: 0:02:05.39

*** Psi4 exiting successfully. Buy a developer a beer!
