                               Psi4 1.4a2.dev629

  ==> Input File <==

--------------------------------------------------------------------------
import os
memory 14 GB

molecule {
 C   -0.3243649413   -0.0000017453    0.0002484185
 C    0.0610440943   -1.4008363959   -2.4264559225
 C    0.0599597708    2.8019138505   -0.0001460053
 C    0.0591168188   -1.4010720466    2.4265719196
 H    2.0930534625   -1.6461485145   -2.8528487522
 H   -0.7654182942   -0.3893769245   -4.0220111219
 H   -0.7646182573   -3.2882029381   -2.3467391304
 H    2.0901098651    3.2885221111   -0.0018544938
 H   -0.7656398183    3.6785844686    1.6747242705
 H   -0.7675622603    3.6814173788   -1.6735745960
 H    2.0874328096   -1.6424688101    2.8427661721
 H   -0.7684216045   -3.2914685332    2.3531532807
 H   -0.7672995218   -0.3908862143    4.0261659608
units bohr
0 2
}

basis {

assign 6-31g_2dfp_

[ 6-31g_2dfp_ ]

spherical

!----------------------------------------------------------------------
! Basis Set Exchange
! Version v0.8.13
! https://www.basissetexchange.org
!----------------------------------------------------------------------
!   Basis set: 6-31G(2df,p)
! Description: 6-31G(2df,p)
!        Role: orbital
!     Version: 0  (Data from the original Basis Set Exchange)
!----------------------------------------------------------------------

****
H     0
S    3   1.00
     18.7311370              0.03349460
      2.8253937              0.23472695
      0.6401217              0.81375733
S    1   1.00
      0.1612778              1.00000000
P    1   1.00
      1.5000000              1.0000000
P    1   1.00
      0.3750000              1.0000000
****
B     0
S    6   1.00
   2068.8823000              0.0018663
    310.6495700              0.0142515
     70.6830330              0.0695516
     19.8610800              0.2325729
      6.2993048              0.4670787
      2.1270270              0.3634314
SP   3   1.00
      4.7279710             -0.1303938              0.0745976
      1.1903377             -0.1307889              0.3078467
      0.3594117              1.1309444              0.7434568
SP   1   1.00
      0.1267512              1.0000000              1.0000000
D    1   1.00
      0.8020000              1.0000000
D    1   1.00
      0.2005000              1.0000000
F    1   1.00
      0.5000000              1.0000000
****
C     0
S    6   1.00
   3047.5249000              0.0018347
    457.3695100              0.0140373
    103.9486900              0.0688426
     29.2101550              0.2321844
      9.2866630              0.4679413
      3.1639270              0.3623120
SP   3   1.00
      7.8682724             -0.1193324              0.0689991
      1.8812885             -0.1608542              0.3164240
      0.5442493              1.1434564              0.7443083
SP   1   1.00
      0.1687144              1.0000000              1.0000000
D    1   1.00
      1.2520000              1.0000000
D    1   1.00
      0.3130000              1.0000000
F    1   1.00
      0.8000000              1.0000000
****
N     0
S    6   1.00
   4173.5110000              0.0018348
    627.4579000              0.0139950
    142.9021000              0.0685870
     40.2343300              0.2322410
     12.8202100              0.4690700
      4.3904370              0.3604550
SP   3   1.00
     11.6263580             -0.1149610              0.0675800
      2.7162800             -0.1691180              0.3239070
      0.7722180              1.1458520              0.7408950
SP   1   1.00
      0.2120313              1.0000000              1.0000000
D    1   1.00
      1.8260000              1.0000000
D    1   1.00
      0.4565000              1.0000000
F    1   1.00
      1.0000000              1.0000000
****
O     0
S    6   1.00
   5484.6717000              0.0018311
    825.2349500              0.0139501
    188.0469600              0.0684451
     52.9645000              0.2327143
     16.8975700              0.4701930
      5.7996353              0.3585209
SP   3   1.00
     15.5396160             -0.1107775              0.0708743
      3.5999336             -0.1480263              0.3397528
      1.0137618              1.1307670              0.7271586
SP   1   1.00
      0.2700058              1.0000000              1.0000000
D    1   1.00
      2.5840000              1.0000000
D    1   1.00
      0.6460000              1.0000000
F    1   1.00
      1.4000000              1.0000000
****
F     0
S    6   1.00
   7001.7130900              0.0018196169
   1051.3660900              0.0139160796
    239.2856900              0.0684053245
     67.3974453              0.233185760
     21.5199573              0.471267439
      7.40310130             0.356618546
SP   3   1.00
     20.8479528             -0.108506975            0.0716287243
      4.80830834            -0.146451658            0.3459121030
      1.34406986             1.128688580            0.7224699570
SP   1   1.00
      0.358151393            1.0000000              1.0000000
D    1   1.00
      3.5000000              1.0000000
D    1   1.00
      0.8750000              1.0000000
F    1   1.00
      1.8500000              1.0000000
****
Al     0
S    6   1.00
  13983.1000000              0.00194267
   2098.7500000              0.0148599
    477.7050000              0.0728494
    134.3600000              0.2468300
     42.8709000              0.4872580
     14.5189000              0.3234960
SP   6   1.00
    239.6680000             -0.00292619             0.00460285
     57.4419000             -0.0374080              0.0331990
     18.2859000             -0.1144870              0.1362820
      6.5991400              0.1156350              0.3304760
      2.4904900              0.6125950              0.4491460
      0.9445400              0.3937990              0.2657040
SP   3   1.00
      1.2779000             -0.2276060             -0.0175130
      0.3975900              0.00144583             0.2445330
      0.1600950              1.0927900              0.8049340
SP   1   1.00
      0.0556577              1.0000000              1.0000000
D    1   1.00
      0.6500000              1.0000000
D    1   1.00
      0.1625000              1.0000000
F    1   1.00
      0.2500000              1.0000000
****
Si     0
S    6   1.00
  16115.9000000              0.00195948
   2425.5800000              0.01492880
    553.8670000              0.07284780
    156.3400000              0.24613000
     50.0683000              0.48591400
     17.0178000              0.32500200
SP   6   1.00
    292.7180000             -0.00278094             0.00443826
     69.8731000             -0.03571460             0.03266790
     22.3363000             -0.11498500             0.13472100
      8.1503900              0.09356340             0.32867800
      3.1345800              0.60301700             0.44964000
      1.2254300              0.41895900             0.26137200
SP   3   1.00
      1.7273800             -0.24463000            -0.01779510
      0.5729220              0.00431572             0.25353900
      0.2221920              1.09818000             0.80066900
SP   1   1.00
      0.0778369              1.00000000             1.00000000
D    1   1.00
      0.9000000              1.0000000
D    1   1.00
      0.2250000              1.0000000
F    1   1.00
      0.3200000              1.0000000
****
P     0
S    6   1.00
  19413.3000000              0.0018516
   2909.4200000              0.0142062
    661.3640000              0.0699995
    185.7590000              0.2400790
     59.1943000              0.4847620
     20.0310000              0.3352000
SP   6   1.00
    339.4780000             -0.00278217             0.00456462
     81.0101000             -0.0360499              0.03369360
     25.8780000             -0.1166310              0.13975500
      9.4522100              0.0968328              0.33936200
      3.6656600              0.6144180              0.45092100
      1.4674600              0.4037980              0.23858600
SP   3   1.00
      2.1562300             -0.2529230             -0.01776530
      0.7489970              0.0328517              0.27405800
      0.2831450              1.0812500              0.78542100
SP   1   1.00
      0.0998317              1.0000000              1.00000000
D    1   1.00
      1.1000000              1.0000000
D    1   1.00
      0.2750000              1.0000000
F    1   1.00
      0.4500000              1.0000000
****
S     0
S    6   1.00
  21917.1000000              0.0018690
   3301.4900000              0.0142300
    754.1460000              0.0696960
    212.7110000              0.2384870
     67.9896000              0.4833070
     23.0515000              0.3380740
SP   6   1.00
    423.7350000             -0.0023767              0.0040610
    100.7100000             -0.0316930              0.0306810
     32.1599000             -0.1133170              0.1304520
     11.8079000              0.0560900              0.3272050
      4.6311000              0.5922550              0.4528510
      1.8702500              0.4550060              0.2560420
SP   3   1.00
      2.6158400             -0.2503740             -0.0145110
      0.9221670              0.0669570              0.3102630
      0.3412870              1.0545100              0.7544830
SP   1   1.00
      0.1171670              1.0000000              1.0000000
D    1   1.00
      1.3000000              1.0000000
D    1   1.00
      0.3250000              1.0000000
F    1   1.00
      0.5500000              1.0000000
****
Cl     0
S    6   1.00
  25180.1000000              0.0018330
   3780.3500000              0.0140340
    860.4740000              0.0690970
    242.1450000              0.2374520
     77.3349000              0.4830340
     26.2470000              0.3398560
SP   6   1.00
    491.7650000             -0.0022974              0.0039894
    116.9840000             -0.0307140              0.0303180
     37.4153000             -0.1125280              0.1298800
     13.7834000              0.0450160              0.3279510
      5.4521500              0.5893530              0.4535270
      2.2258800              0.4652060              0.2521540
SP   3   1.00
      3.1864900             -0.2518300             -0.0142990
      1.1442700              0.0615890              0.3235720
      0.4203770              1.0601800              0.7435070
SP   1   1.00
      0.1426570              1.0000000              1.0000000
D    1   1.00
      1.5000000              1.0000000
D    1   1.00
      0.3750000              1.0000000
F    1   1.00
      0.7000000              1.0000000
****
}

set {
reference uhf
freeze_core true
e_convergence 10
d_convergence 10
dft_spherical_points 1202
dft_radial_points 99
}

e = energy('b3lyp')

print_out('Grab this energy {0}'.format(e))
--------------------------------------------------------------------------

    Molecular point group: c1

    Geometry (in Bohr), charge = 0, multiplicity = 2:

       Center              X                  Y                   Z               Mass
    ------------   -----------------  -----------------  -----------------  -----------------
         C           -0.323555168126    -0.000002021402     0.000206351101    12.000000000000
         C            0.061853867474    -1.400836672002    -2.426497989899    12.000000000000
         C            0.060769543974     2.801913574398    -0.000188072699    12.000000000000
         C            0.059926591974    -1.401072322702     2.426529852201    12.000000000000
         H            2.093863235674    -1.646148790602    -2.852890819599     1.007825032230
         H           -0.764608521026    -0.389377200602    -4.022053189299     1.007825032230
         H           -0.763808484126    -3.288203214202    -2.346781197799     1.007825032230
         H            2.090919638274     3.288521834998    -0.001896561199     1.007825032230
         H           -0.764830045126     3.678584192498     1.674682203101     1.007825032230
         H           -0.766752487126     3.681417102698    -1.673616663399     1.007825032230
         H            2.088242582774    -1.642469086202     2.842724104701     1.007825032230
         H           -0.767611831326    -3.291468809302     2.353111213301     1.007825032230
         H           -0.766489748626    -0.390886490402     4.026123893401     1.007825032230

  Charge       = 0
  Multiplicity = 2
  Basis Set: ANONYMOUS192E9D4C
    Blend: 6-31G_2DFP_
  Basis Set: (ANONYMOUS192E9D4C AUX)
    Blend: DEF2-UNIVERSAL-JKFIT

    Orbital Energies [Eh]
    ---------------------

    Alpha Occupied:

       1A    -10.180401     2A    -10.167055     3A    -10.167023
       4A    -10.166976     5A     -0.797730     6A     -0.686211
       7A     -0.686154     8A     -0.530769     9A     -0.441027
      10A     -0.434804    11A     -0.434629    12A     -0.382685
      13A     -0.382236    14A     -0.363789    15A     -0.338206
      16A     -0.337900    17A     -0.168999

    Alpha Virtual:

      18A      0.076157    19A      0.134097    20A      0.134196
      21A      0.142494    22A      0.142910    23A      0.154713
      24A      0.178471    25A      0.178735    26A      0.203508
      27A      0.215076    28A      0.275939    29A      0.275982
      30A      0.398982    31A      0.399234    32A      0.403256
      33A      0.424184    34A      0.424388    35A      0.456519
      36A      0.495558    37A      0.495580    38A      0.512044
      39A      0.513828    40A      0.578518    41A      0.578758
      42A      0.591111    43A      0.591610    44A      0.601850
      45A      0.625275    46A      0.632136    47A      0.636413
      48A      0.636853    49A      0.662882    50A      0.662972
      51A      0.683988    52A      0.684218    53A      0.735055
      54A      0.825314    55A      0.825431    56A      0.853637
      57A      0.914484    58A      0.915119    59A      0.944397
      60A      0.944753    61A      0.961127    62A      0.961288
      63A      1.003264    64A      1.127952    65A      1.128768
      66A      1.141485    67A      1.163383    68A      1.163700
      69A      1.223739    70A      1.274146    71A      1.274342
      72A      1.279207    73A      1.324075    74A      1.324201
      75A      1.356492    76A      1.365969    77A      1.365991
      78A      1.392396    79A      1.402515    80A      1.403523
      81A      1.417760    82A      1.418409    83A      1.427714
      84A      1.491490    85A      1.498136    86A      1.542457
      87A      1.542485    88A      1.574332    89A      1.575305
      90A      1.671092    91A      1.738475    92A      1.738663
      93A      1.766472    94A      1.832368    95A      1.833226
      96A      1.972738    97A      2.018215    98A      2.018940
      99A      2.019114   100A      2.050957   101A      2.051857
     102A      2.738797   103A      2.738816   104A      2.790536
     105A      2.811884   106A      2.889404   107A      2.889727
     108A      2.894632   109A      2.929394   110A      2.930011
     111A      2.958859   112A      2.963782   113A      2.964145
     114A      3.033314   115A      3.070613   116A      3.071898
     117A      3.085759   118A      3.168432   119A      3.168886
     120A      3.180534   121A      3.285106   122A      3.285336
     123A      3.326916   124A      3.328676   125A      3.375784
     126A      3.488874   127A      3.490997   128A      3.512796
     129A      3.526539   130A      3.567801   131A      3.568017
     132A      3.574475   133A      3.665549   134A      3.666445
     135A      3.680265   136A      3.693660   137A      3.694965
     138A      3.777152   139A      3.777280   140A      3.788388
     141A      3.912661   142A      3.912924   143A      4.034870
     144A      4.111176   145A      4.111454   146A      4.147470
     147A      4.147530   148A      4.171470   149A      4.202440
     150A      4.203664   151A      4.204424   152A      4.209645
     153A      4.315317   154A      4.315748   155A      4.360216
     156A      4.423634   157A      4.423846   158A      4.443661
     159A      4.515561   160A      4.516784   161A      4.578967
     162A      4.578983   163A      4.617443   164A      4.708886
     165A      4.774154   166A      4.775316   167A      4.838268
     168A      4.963174   169A      5.001099   170A      5.002193
     171A      5.225352   172A      5.249255   173A      5.250368
     174A      5.353487   175A      5.353630   176A      5.481306

    Beta Occupied:

       1A    -10.167808     2A    -10.167781     3A    -10.167749
       4A    -10.166585     5A     -0.781062     6A     -0.684021
       7A     -0.683974     8A     -0.511789     9A     -0.431211
      10A     -0.431013    11A     -0.421666    12A     -0.376752
      13A     -0.376289    14A     -0.362783    15A     -0.333314
      16A     -0.333031

    Beta Virtual:

      17A     -0.025873    18A      0.077183    19A      0.135068
      20A      0.135149    21A      0.144359    22A      0.144734
      23A      0.163192    24A      0.182109    25A      0.182383
      26A      0.215298    27A      0.218888    28A      0.282287
      29A      0.282339    30A      0.400157    31A      0.400401
      32A      0.419799    33A      0.426993    34A      0.427201
      35A      0.468327    36A      0.497827    37A      0.497852
      38A      0.513786    39A      0.556134    40A      0.584090
      41A      0.584343    42A      0.597278    43A      0.597788
      44A      0.609390    45A      0.628527    46A      0.632302
      47A      0.639658    48A      0.640093    49A      0.666468
      50A      0.666575    51A      0.686627    52A      0.686824
      53A      0.757575    54A      0.830507    55A      0.830618
      56A      0.854999    57A      0.922499    58A      0.923083
      59A      0.946227    60A      0.953728    61A      0.966411
      62A      0.966546    63A      1.008464    64A      1.132061
      65A      1.132786    66A      1.154938    67A      1.168401
      68A      1.168785    69A      1.232695    70A      1.279735
      71A      1.279905    72A      1.284902    73A      1.329106
      74A      1.329242    75A      1.365873    76A      1.371286
      77A      1.371323    78A      1.393471    79A      1.405913
      80A      1.406939    81A      1.422773    82A      1.423409
      83A      1.428008    84A      1.492512    85A      1.508585
      86A      1.546806    87A      1.547021    88A      1.582095
      89A      1.583248    90A      1.675989    91A      1.744235
      92A      1.744417    93A      1.777239    94A      1.836229
      95A      1.837079    96A      1.973585    97A      2.025216
      98A      2.025351    99A      2.039580   100A      2.057788
     101A      2.058711   102A      2.747129   103A      2.747173
     104A      2.812299   105A      2.815634   106A      2.902055
     107A      2.902426   108A      2.924113   109A      2.931888
     110A      2.932482   111A      2.959923   112A      2.968289
     113A      2.968651   114A      3.041464   115A      3.080467
     116A      3.081839   117A      3.087574   118A      3.184201
     119A      3.184656   120A      3.188192   121A      3.289898
     122A      3.290203   123A      3.330695   124A      3.332435
     125A      3.383577   126A      3.491587   127A      3.493665
     128A      3.511159   129A      3.529570   130A      3.574068
     131A      3.581412   132A      3.581688   133A      3.670227
     134A      3.671088   135A      3.693528   136A      3.725530
     137A      3.726357   138A      3.781643   139A      3.781725
     140A      3.816942   141A      3.922528   142A      3.922802
     143A      4.045820   144A      4.118027   145A      4.118244
     146A      4.154584   147A      4.154815   148A      4.185552
     149A      4.209421   150A      4.210125   151A      4.211006
     152A      4.214239   153A      4.322722   154A      4.323096
     155A      4.363532   156A      4.431836   157A      4.432071
     158A      4.446493   159A      4.523392   160A      4.524602
     161A      4.589514   162A      4.589555   163A      4.624543
     164A      4.719345   165A      4.781029   166A      4.782250
     167A      4.841174   168A      4.967981   169A      5.005180
     170A      5.006243   171A      5.231032   172A      5.251027
     173A      5.252137   174A      5.359947   175A      5.360075
     176A      5.483615

    Final Occupation by Irrep:
              A
    DOCC [    16 ]
    SOCC [     1 ]

  @DF-UKS Final Energy:  -157.81305444813123

   => Energetics <=

    Nuclear Repulsion Energy =            125.3892918110669399
    One-Electron Energy =                -458.7381741836404672
    Two-Electron Energy =                 195.8428652191388153
    DFT Exchange-Correlation Energy =     -20.3070372946964994
    Empirical Dispersion Energy =           0.0000000000000000
    VV10 Nonlocal Energy =                  0.0000000000000000
    Total Energy =                       -157.8130544481312256

  UHF NO Occupations:
  HONO-2 :   15  A 1.9995985
  HONO-1 :   16  A 1.9989796
  HONO-0 :   17  A 1.0000000
  LUNO+0 :   18  A 0.0010204
  LUNO+1 :   19  A 0.0004015
  LUNO+2 :   20  A 0.0001977
  LUNO+3 :   21  A 0.0001974

Computation Completed

Properties will be evaluated at   0.000000,   0.000000,   0.000000 [a0]

Properties computed using the SCF density matrix

  Nuclear Dipole Moment: [e a0]
     X:     0.8329      Y:    -0.0000      Z:    -0.0003

  Electronic Dipole Moment: [e a0]
     X:    -0.7582      Y:     0.0000      Z:     0.0011

  Dipole Moment: [e a0]
     X:     0.0747      Y:     0.0000      Z:     0.0008     Total:     0.0747

  Dipole Moment: [D]
     X:     0.1899      Y:     0.0000      Z:     0.0020     Total:     0.1899

*** tstop() called on n070 at Fri Nov  5 14:50:03 2021
Module time:
	user time   =     627.81 seconds =      10.46 minutes
	system time =      15.96 seconds =       0.27 minutes
	total time  =        162 seconds =       2.70 minutes
Total time:
	user time   =     627.81 seconds =      10.46 minutes
	system time =      15.96 seconds =       0.27 minutes
	total time  =        162 seconds =       2.70 minutes
Grab this energy -157.81305444813123
    Psi4 stopped on: Friday, 05 November 2021 02:50PM
    Psi4 wall time for execution: 0:02:42.22

*** Psi4 exiting successfully. Buy a developer a beer!
