                               Psi4 1.4a2.dev629

  ==> Input File <==

--------------------------------------------------------------------------
import os
memory 14 GB

molecule {
 C   -0.3247897266   -0.0053447809    0.0000000000
 C    0.0619211031   -1.4016755644   -2.4258386338
 C    0.0620269637    2.8016087472    0.0000000000
 C    0.0619211031   -1.4016755644    2.4258386338
 H    2.0870050249   -1.6432154271   -2.8476478049
 H   -0.7648208703   -0.3877170426   -4.0261444997
 H   -0.7664238054   -3.2909928748   -2.3482234143
 H    2.0865137815    3.2887495989   -0.0000000000
 H   -0.7658608999    3.6810819694    1.6760534297
 H   -0.7658608999    3.6810819694   -1.6760534297
 H    2.0870050249   -1.6432154271    2.8476478049
 H   -0.7664238054   -3.2909928748    2.3482234143
 H   -0.7648208703   -0.3877170426    4.0261444997
units bohr
0 2
}

basis {

assign 6-31g_2dfp_

[ 6-31g_2dfp_ ]

spherical

!----------------------------------------------------------------------
! Basis Set Exchange
! Version v0.8.13
! https://www.basissetexchange.org
!----------------------------------------------------------------------
!   Basis set: 6-31G(2df,p)
! Description: 6-31G(2df,p)
!        Role: orbital
!     Version: 0  (Data from the original Basis Set Exchange)
!----------------------------------------------------------------------

****
H     0
S    3   1.00
     18.7311370              0.03349460
      2.8253937              0.23472695
      0.6401217              0.81375733
S    1   1.00
      0.1612778              1.00000000
P    1   1.00
      1.5000000              1.0000000
P    1   1.00
      0.3750000              1.0000000
****
B     0
S    6   1.00
   2068.8823000              0.0018663
    310.6495700              0.0142515
     70.6830330              0.0695516
     19.8610800              0.2325729
      6.2993048              0.4670787
      2.1270270              0.3634314
SP   3   1.00
      4.7279710             -0.1303938              0.0745976
      1.1903377             -0.1307889              0.3078467
      0.3594117              1.1309444              0.7434568
SP   1   1.00
      0.1267512              1.0000000              1.0000000
D    1   1.00
      0.8020000              1.0000000
D    1   1.00
      0.2005000              1.0000000
F    1   1.00
      0.5000000              1.0000000
****
C     0
S    6   1.00
   3047.5249000              0.0018347
    457.3695100              0.0140373
    103.9486900              0.0688426
     29.2101550              0.2321844
      9.2866630              0.4679413
      3.1639270              0.3623120
SP   3   1.00
      7.8682724             -0.1193324              0.0689991
      1.8812885             -0.1608542              0.3164240
      0.5442493              1.1434564              0.7443083
SP   1   1.00
      0.1687144              1.0000000              1.0000000
D    1   1.00
      1.2520000              1.0000000
D    1   1.00
      0.3130000              1.0000000
F    1   1.00
      0.8000000              1.0000000
****
N     0
S    6   1.00
   4173.5110000              0.0018348
    627.4579000              0.0139950
    142.9021000              0.0685870
     40.2343300              0.2322410
     12.8202100              0.4690700
      4.3904370              0.3604550
SP   3   1.00
     11.6263580             -0.1149610              0.0675800
      2.7162800             -0.1691180              0.3239070
      0.7722180              1.1458520              0.7408950
SP   1   1.00
      0.2120313              1.0000000              1.0000000
D    1   1.00
      1.8260000              1.0000000
D    1   1.00
      0.4565000              1.0000000
F    1   1.00
      1.0000000              1.0000000
****
O     0
S    6   1.00
   5484.6717000              0.0018311
    825.2349500              0.0139501
    188.0469600              0.0684451
     52.9645000              0.2327143
     16.8975700              0.4701930
      5.7996353              0.3585209
SP   3   1.00
     15.5396160             -0.1107775              0.0708743
      3.5999336             -0.1480263              0.3397528
      1.0137618              1.1307670              0.7271586
SP   1   1.00
      0.2700058              1.0000000              1.0000000
D    1   1.00
      2.5840000              1.0000000
D    1   1.00
      0.6460000              1.0000000
F    1   1.00
      1.4000000              1.0000000
****
F     0
S    6   1.00
   7001.7130900              0.0018196169
   1051.3660900              0.0139160796
    239.2856900              0.0684053245
     67.3974453              0.233185760
     21.5199573              0.471267439
      7.40310130             0.356618546
SP   3   1.00
     20.8479528             -0.108506975            0.0716287243
      4.80830834            -0.146451658            0.3459121030
      1.34406986             1.128688580            0.7224699570
SP   1   1.00
      0.358151393            1.0000000              1.0000000
D    1   1.00
      3.5000000              1.0000000
D    1   1.00
      0.8750000              1.0000000
F    1   1.00
      1.8500000              1.0000000
****
Al     0
S    6   1.00
  13983.1000000              0.00194267
   2098.7500000              0.0148599
    477.7050000              0.0728494
    134.3600000              0.2468300
     42.8709000              0.4872580
     14.5189000              0.3234960
SP   6   1.00
    239.6680000             -0.00292619             0.00460285
     57.4419000             -0.0374080              0.0331990
     18.2859000             -0.1144870              0.1362820
      6.5991400              0.1156350              0.3304760
      2.4904900              0.6125950              0.4491460
      0.9445400              0.3937990              0.2657040
SP   3   1.00
      1.2779000             -0.2276060             -0.0175130
      0.3975900              0.00144583             0.2445330
      0.1600950              1.0927900              0.8049340
SP   1   1.00
      0.0556577              1.0000000              1.0000000
D    1   1.00
      0.6500000              1.0000000
D    1   1.00
      0.1625000              1.0000000
F    1   1.00
      0.2500000              1.0000000
****
Si     0
S    6   1.00
  16115.9000000              0.00195948
   2425.5800000              0.01492880
    553.8670000              0.07284780
    156.3400000              0.24613000
     50.0683000              0.48591400
     17.0178000              0.32500200
SP   6   1.00
    292.7180000             -0.00278094             0.00443826
     69.8731000             -0.03571460             0.03266790
     22.3363000             -0.11498500             0.13472100
      8.1503900              0.09356340             0.32867800
      3.1345800              0.60301700             0.44964000
      1.2254300              0.41895900             0.26137200
SP   3   1.00
      1.7273800             -0.24463000            -0.01779510
      0.5729220              0.00431572             0.25353900
      0.2221920              1.09818000             0.80066900
SP   1   1.00
      0.0778369              1.00000000             1.00000000
D    1   1.00
      0.9000000              1.0000000
D    1   1.00
      0.2250000              1.0000000
F    1   1.00
      0.3200000              1.0000000
****
P     0
S    6   1.00
  19413.3000000              0.0018516
   2909.4200000              0.0142062
    661.3640000              0.0699995
    185.7590000              0.2400790
     59.1943000              0.4847620
     20.0310000              0.3352000
SP   6   1.00
    339.4780000             -0.00278217             0.00456462
     81.0101000             -0.0360499              0.03369360
     25.8780000             -0.1166310              0.13975500
      9.4522100              0.0968328              0.33936200
      3.6656600              0.6144180              0.45092100
      1.4674600              0.4037980              0.23858600
SP   3   1.00
      2.1562300             -0.2529230             -0.01776530
      0.7489970              0.0328517              0.27405800
      0.2831450              1.0812500              0.78542100
SP   1   1.00
      0.0998317              1.0000000              1.00000000
D    1   1.00
      1.1000000              1.0000000
D    1   1.00
      0.2750000              1.0000000
F    1   1.00
      0.4500000              1.0000000
****
S     0
S    6   1.00
  21917.1000000              0.0018690
   3301.4900000              0.0142300
    754.1460000              0.0696960
    212.7110000              0.2384870
     67.9896000              0.4833070
     23.0515000              0.3380740
SP   6   1.00
    423.7350000             -0.0023767              0.0040610
    100.7100000             -0.0316930              0.0306810
     32.1599000             -0.1133170              0.1304520
     11.8079000              0.0560900              0.3272050
      4.6311000              0.5922550              0.4528510
      1.8702500              0.4550060              0.2560420
SP   3   1.00
      2.6158400             -0.2503740             -0.0145110
      0.9221670              0.0669570              0.3102630
      0.3412870              1.0545100              0.7544830
SP   1   1.00
      0.1171670              1.0000000              1.0000000
D    1   1.00
      1.3000000              1.0000000
D    1   1.00
      0.3250000              1.0000000
F    1   1.00
      0.5500000              1.0000000
****
Cl     0
S    6   1.00
  25180.1000000              0.0018330
   3780.3500000              0.0140340
    860.4740000              0.0690970
    242.1450000              0.2374520
     77.3349000              0.4830340
     26.2470000              0.3398560
SP   6   1.00
    491.7650000             -0.0022974              0.0039894
    116.9840000             -0.0307140              0.0303180
     37.4153000             -0.1125280              0.1298800
     13.7834000              0.0450160              0.3279510
      5.4521500              0.5893530              0.4535270
      2.2258800              0.4652060              0.2521540
SP   3   1.00
      3.1864900             -0.2518300             -0.0142990
      1.1442700              0.0615890              0.3235720
      0.4203770              1.0601800              0.7435070
SP   1   1.00
      0.1426570              1.0000000              1.0000000
D    1   1.00
      1.5000000              1.0000000
D    1   1.00
      0.3750000              1.0000000
F    1   1.00
      0.7000000              1.0000000
****
}

set {
reference uhf
freeze_core true
e_convergence 10
d_convergence 10
dft_spherical_points 1202
dft_radial_points 99
}

e = energy('b3lyp')

print_out('Grab this energy {0}'.format(e))
--------------------------------------------------------------------------

    Molecular point group: cs

    Geometry (in Bohr), charge = 0, multiplicity = 2:

       Center              X                  Y                   Z               Mass
    ------------   -----------------  -----------------  -----------------  -----------------
         C           -0.325005336525    -0.003979312991     0.000000000000    12.000000000000
         C            0.061705493175    -1.400310096491    -2.425838633800    12.000000000000
         C            0.061811353775     2.802974215109     0.000000000000    12.000000000000
         C            0.061705493175    -1.400310096491     2.425838633800    12.000000000000
         H            2.086789414975    -1.641849959191    -2.847647804900     1.007825032230
         H           -0.765036480225    -0.386351574691    -4.026144499700     1.007825032230
         H           -0.766639415325    -3.289627406891    -2.348223414300     1.007825032230
         H            2.086298171575     3.290115066809     0.000000000000     1.007825032230
         H           -0.766076509825     3.682447437309     1.676053429700     1.007825032230
         H           -0.766076509825     3.682447437309    -1.676053429700     1.007825032230
         H            2.086789414975    -1.641849959191     2.847647804900     1.007825032230
         H           -0.766639415325    -3.289627406891     2.348223414300     1.007825032230
         H           -0.765036480225    -0.386351574691     4.026144499700     1.007825032230

  Charge       = 0
  Multiplicity = 2
  Basis Set: ANONYMOUSCCD2C7DD
    Blend: 6-31G_2DFP_
  Basis Set: (ANONYMOUSCCD2C7DD AUX)
    Blend: DEF2-UNIVERSAL-JKFIT

    Orbital Energies [Eh]
    ---------------------

    Alpha Occupied:

       1Ap   -10.180407     2Ap   -10.167046     1App  -10.167005
       3Ap   -10.166968     4Ap    -0.797754     2App   -0.686358
       5Ap    -0.685980     6Ap    -0.530781     7Ap    -0.441187
       8Ap    -0.434816     3App   -0.434395     4App   -0.382825
       9Ap    -0.382590     5App   -0.363483     6App   -0.338425
      10Ap    -0.337387    11Ap    -0.169144

    Alpha Virtual:

      12Ap     0.076076     7App    0.134139    13Ap     0.134165
      14Ap     0.142428     8App    0.142779    15Ap     0.154959
      16Ap     0.178841     9App    0.178853    17Ap     0.203569
      10App    0.214755    18Ap     0.275524    11App    0.276101
      19Ap     0.399083    12App    0.399336    20Ap     0.403264
      13App    0.424068    21Ap     0.424070    22Ap     0.456686
      23Ap     0.495314    14App    0.495414    15App    0.512206
      24Ap     0.513879    25Ap     0.578741    16App    0.579144
      17App    0.591662    26Ap     0.591677    27Ap     0.602792
      28Ap     0.624671    18App    0.631715    29Ap     0.635953
      19App    0.636239    20App    0.663504    30Ap     0.663638
      21App    0.683694    31Ap     0.683791    32Ap     0.734797
      33Ap     0.825245    22App    0.825459    23App    0.853918
      24App    0.914847    34Ap     0.915068    25App    0.944175
      35Ap     0.944668    36Ap     0.961143    26App    0.961475
      37Ap     1.003455    38Ap     1.127913    27App    1.128461
      39Ap     1.142280    40Ap     1.163304    28App    1.164094
      41Ap     1.223166    29App    1.273963    42Ap     1.274892
      43Ap     1.279591    44Ap     1.324011    30App    1.324204
      45Ap     1.356232    46Ap     1.365418    31App    1.365944
      32App    1.392450    47Ap     1.404046    33App    1.404137
      34App    1.417034    48Ap     1.417667    35App    1.427974
      36App    1.491308    49Ap     1.499472    50Ap     1.542875
      37App    1.542891    38App    1.574142    51Ap     1.574180
      52Ap     1.669553    53Ap     1.738979    39App    1.739381
      54Ap     1.768366    55Ap     1.830753    40App    1.831259
      41App    1.971467    56Ap     2.017292    42App    2.018777
      57Ap     2.019920    58Ap     2.052505    43App    2.053564
      59Ap     2.738054    44App    2.738526    60Ap     2.791123
      45App    2.811393    61Ap     2.889139    46App    2.890268
      62Ap     2.895255    63Ap     2.929124    47App    2.929907
      48App    2.958923    49App    2.964124    64Ap     2.964413
      65Ap     3.034349    66Ap     3.069952    50App    3.070942
      51App    3.084277    52App    3.168842    67Ap     3.168907
      68Ap     3.180625    69Ap     3.285810    53App    3.286402
      54App    3.327141    70Ap     3.327892    71Ap     3.375771
      72Ap     3.489409    55App    3.490431    56App    3.513846
      73Ap     3.525799    57App    3.567868    74Ap     3.568332
      58App    3.575762    59App    3.665504    75Ap     3.666110
      76Ap     3.679437    60App    3.694160    77Ap     3.694187
      78Ap     3.775748    61App    3.777287    79Ap     3.787903
      80Ap     3.911745    62App    3.912661    81Ap     4.034125
      82Ap     4.110815    63App    4.111453    83Ap     4.147117
      64App    4.149062    84Ap     4.173207    85Ap     4.201955
      86Ap     4.203284    65App    4.203733    66App    4.210932
      87Ap     4.315595    67App    4.316735    68App    4.359462
      88Ap     4.424237    69App    4.424339    70App    4.443180
      89Ap     4.517003    71App    4.517276    90Ap     4.578235
      72App    4.578254    91Ap     4.617342    92Ap     4.709788
      93Ap     4.773899    73App    4.775005    74App    4.835693
      94Ap     4.962922    75App    5.002849    95Ap     5.003394
      96Ap     5.227937    97Ap     5.246684    76App    5.246733
      98Ap     5.354665    77App    5.355791    78App    5.478981

    Beta Occupied:

       1Ap   -10.167796     1App  -10.167757     2Ap   -10.167739
       3Ap   -10.166580     4Ap    -0.781083     2App   -0.684147
       5Ap    -0.683792     6Ap    -0.511744     7Ap    -0.431183
       3App   -0.430758     8Ap    -0.421906     4App   -0.376880
       9Ap    -0.376726     5App   -0.362465     6App   -0.333562
      10Ap    -0.332503

    Beta Virtual:

      11Ap    -0.025844    12Ap     0.077080    13Ap     0.135028
       7App    0.135035    14Ap     0.144312     8App    0.144643
      15Ap     0.163408    16Ap     0.182501     9App    0.182537
      10App    0.214984    17Ap     0.218930    18Ap     0.281919
      11App    0.282426    19Ap     0.400254    12App    0.400501
      20Ap     0.419685    21Ap     0.426873    13App    0.426892
      22Ap     0.468608    23Ap     0.497577    14App    0.497681
      15App    0.513937    24Ap     0.556222    25Ap     0.584258
      16App    0.584704    26Ap     0.597851    17App    0.597856
      27Ap     0.610190    28Ap     0.628067    18App    0.631871
      29Ap     0.639232    19App    0.639544    20App    0.667077
      30Ap     0.667199    21App    0.686321    31Ap     0.686422
      32Ap     0.757340    33Ap     0.830421    22App    0.830628
      23App    0.855267    24App    0.922801    34Ap     0.923076
      25App    0.946008    35Ap     0.953590    36Ap     0.966409
      26App    0.966755    37Ap     1.008714    38Ap     1.131992
      27App    1.132471    39Ap     1.155610    40Ap     1.168379
      28App    1.169157    41Ap     1.232135    29App    1.279629
      42Ap     1.280453    43Ap     1.285352    44Ap     1.329020
      30App    1.329190    45Ap     1.365622    46Ap     1.370705
      31App    1.371136    32App    1.393502    47Ap     1.407458
      33App    1.407653    34App    1.422066    48Ap     1.422689
      35App    1.428251    36App    1.492354    49Ap     1.509923
      50Ap     1.547274    37App    1.547304    51Ap     1.582028
      38App    1.582040    52Ap     1.674416    53Ap     1.744734
      39App    1.745144    54Ap     1.779125    55Ap     1.834586
      40App    1.835119    41App    1.972325    42App    2.025187
      56Ap     2.026298    57Ap     2.038676    58Ap     2.059257
      43App    2.060287    59Ap     2.746359    44App    2.746892
      45App    2.811814    60Ap     2.816239    61Ap     2.901958
      46App    2.902912    62Ap     2.924947    63Ap     2.931541
      47App    2.932429    48App    2.959987    49App    2.968679
      64Ap     2.968967    65Ap     3.042243    66Ap     3.079975
      50App    3.080816    51App    3.086088    67Ap     3.184357
      52App    3.184586    68Ap     3.188467    69Ap     3.290610
      53App    3.291121    54App    3.330951    70Ap     3.331707
      71Ap     3.383600    72Ap     3.492148    55App    3.493183
      56App    3.512220    73Ap     3.528853    57App    3.575616
      58App    3.581307    74Ap     3.581673    59App    3.670305
      75Ap     3.670758    76Ap     3.692729    60App    3.725676
      77Ap     3.725947    78Ap     3.780351    61App    3.781845
      79Ap     3.816408    80Ap     3.921532    62App    3.922439
      81Ap     4.045041    82Ap     4.117664    63App    4.118209
      83Ap     4.154362    64App    4.156259    84Ap     4.187226
      85Ap     4.208664    65App    4.209650    86Ap     4.210507
      66App    4.215389    87Ap     4.322994    67App    4.324259
      68App    4.362825    88Ap     4.432417    69App    4.432500
      70App    4.446072    89Ap     4.524730    71App    4.525096
      90Ap     4.588841    72App    4.588894    91Ap     4.624550
      92Ap     4.720160    93Ap     4.780831    73App    4.782009
      74App    4.838621    94Ap     4.967711    75App    5.006888
      95Ap     5.007408    96Ap     5.233654    97Ap     5.248474
      76App    5.248512    98Ap     5.361128    77App    5.362306
      78App    5.481309

    Final Occupation by Irrep:
             Ap   App
    DOCC [    10,    6 ]
    SOCC [     1,    0 ]

  @DF-UKS Final Energy:  -157.81305628379502

   => Energetics <=

    Nuclear Repulsion Energy =            125.3922703635604421
    One-Electron Energy =                -458.7443583392129085
    Two-Electron Energy =                 195.8461083633016528
    DFT Exchange-Correlation Energy =     -20.3070766714442037
    Empirical Dispersion Energy =           0.0000000000000000
    VV10 Nonlocal Energy =                  0.0000000000000000
    Total Energy =                       -157.8130562837950208

  UHF NO Occupations:
  HONO-2 :    9 Ap 1.9996024
  HONO-1 :   10 Ap 1.9989820
  HONO-0 :   11 Ap 1.0000000
  LUNO+0 :   12 Ap 0.0010180
  LUNO+1 :   13 Ap 0.0003976
  LUNO+2 :   14 Ap 0.0001987
  LUNO+3 :    7App 0.0001966

Computation Completed

Properties will be evaluated at   0.000000,   0.000000,   0.000000 [a0]

Properties computed using the SCF density matrix

  Nuclear Dipole Moment: [e a0]
     X:     0.8257      Y:     0.0096      Z:    -0.0000

  Electronic Dipole Moment: [e a0]
     X:    -0.7470      Y:    -0.0108      Z:     0.0000

  Dipole Moment: [e a0]
     X:     0.0787      Y:    -0.0012      Z:    -0.0000     Total:     0.0787

  Dipole Moment: [D]
     X:     0.2000      Y:    -0.0031      Z:    -0.0000     Total:     0.2000

*** tstop() called on n083 at Fri Nov  5 11:33:51 2021
Module time:
	user time   =     607.37 seconds =      10.12 minutes
	system time =       5.44 seconds =       0.09 minutes
	total time  =        154 seconds =       2.57 minutes
Total time:
	user time   =     607.37 seconds =      10.12 minutes
	system time =       5.44 seconds =       0.09 minutes
	total time  =        154 seconds =       2.57 minutes
Grab this energy -157.81305628379502
    Psi4 stopped on: Friday, 05 November 2021 11:33AM
    Psi4 wall time for execution: 0:02:34.01

*** Psi4 exiting successfully. Buy a developer a beer!
