                               Psi4 1.4a2.dev629

  ==> Input File <==

--------------------------------------------------------------------------
import os
memory 14 GB

molecule {
 C   -0.3233422488    0.0029235683    0.0000000000
 C    0.0622262127   -1.3999402280   -2.4275890652
 C    0.0588471191    2.8006027292    0.0000000000
 C    0.0622262127   -1.3999402280    2.4275890652
 H    2.0861568723   -1.6463860439   -2.8459265380
 H   -0.7589264552   -0.3864628283   -4.0305622275
 H   -0.7687183450   -3.2906232302   -2.3489875164
 H    2.0883510131    3.2884354596   -0.0000000000
 H   -0.7689701648    3.6774192950    1.6736142008
 H   -0.7689701648    3.6774192950   -1.6736142008
 H    2.0861568723   -1.6463860439    2.8459265380
 H   -0.7687183450   -3.2906232302    2.3489875164
 H   -0.7589264552   -0.3864628283    4.0305622275
units bohr
0 2
}

basis {

assign 6-31g_2dfp_

[ 6-31g_2dfp_ ]

spherical

!----------------------------------------------------------------------
! Basis Set Exchange
! Version v0.8.13
! https://www.basissetexchange.org
!----------------------------------------------------------------------
!   Basis set: 6-31G(2df,p)
! Description: 6-31G(2df,p)
!        Role: orbital
!     Version: 0  (Data from the original Basis Set Exchange)
!----------------------------------------------------------------------

****
H     0
S    3   1.00
     18.7311370              0.03349460
      2.8253937              0.23472695
      0.6401217              0.81375733
S    1   1.00
      0.1612778              1.00000000
P    1   1.00
      1.5000000              1.0000000
P    1   1.00
      0.3750000              1.0000000
****
B     0
S    6   1.00
   2068.8823000              0.0018663
    310.6495700              0.0142515
     70.6830330              0.0695516
     19.8610800              0.2325729
      6.2993048              0.4670787
      2.1270270              0.3634314
SP   3   1.00
      4.7279710             -0.1303938              0.0745976
      1.1903377             -0.1307889              0.3078467
      0.3594117              1.1309444              0.7434568
SP   1   1.00
      0.1267512              1.0000000              1.0000000
D    1   1.00
      0.8020000              1.0000000
D    1   1.00
      0.2005000              1.0000000
F    1   1.00
      0.5000000              1.0000000
****
C     0
S    6   1.00
   3047.5249000              0.0018347
    457.3695100              0.0140373
    103.9486900              0.0688426
     29.2101550              0.2321844
      9.2866630              0.4679413
      3.1639270              0.3623120
SP   3   1.00
      7.8682724             -0.1193324              0.0689991
      1.8812885             -0.1608542              0.3164240
      0.5442493              1.1434564              0.7443083
SP   1   1.00
      0.1687144              1.0000000              1.0000000
D    1   1.00
      1.2520000              1.0000000
D    1   1.00
      0.3130000              1.0000000
F    1   1.00
      0.8000000              1.0000000
****
N     0
S    6   1.00
   4173.5110000              0.0018348
    627.4579000              0.0139950
    142.9021000              0.0685870
     40.2343300              0.2322410
     12.8202100              0.4690700
      4.3904370              0.3604550
SP   3   1.00
     11.6263580             -0.1149610              0.0675800
      2.7162800             -0.1691180              0.3239070
      0.7722180              1.1458520              0.7408950
SP   1   1.00
      0.2120313              1.0000000              1.0000000
D    1   1.00
      1.8260000              1.0000000
D    1   1.00
      0.4565000              1.0000000
F    1   1.00
      1.0000000              1.0000000
****
O     0
S    6   1.00
   5484.6717000              0.0018311
    825.2349500              0.0139501
    188.0469600              0.0684451
     52.9645000              0.2327143
     16.8975700              0.4701930
      5.7996353              0.3585209
SP   3   1.00
     15.5396160             -0.1107775              0.0708743
      3.5999336             -0.1480263              0.3397528
      1.0137618              1.1307670              0.7271586
SP   1   1.00
      0.2700058              1.0000000              1.0000000
D    1   1.00
      2.5840000              1.0000000
D    1   1.00
      0.6460000              1.0000000
F    1   1.00
      1.4000000              1.0000000
****
F     0
S    6   1.00
   7001.7130900              0.0018196169
   1051.3660900              0.0139160796
    239.2856900              0.0684053245
     67.3974453              0.233185760
     21.5199573              0.471267439
      7.40310130             0.356618546
SP   3   1.00
     20.8479528             -0.108506975            0.0716287243
      4.80830834            -0.146451658            0.3459121030
      1.34406986             1.128688580            0.7224699570
SP   1   1.00
      0.358151393            1.0000000              1.0000000
D    1   1.00
      3.5000000              1.0000000
D    1   1.00
      0.8750000              1.0000000
F    1   1.00
      1.8500000              1.0000000
****
Al     0
S    6   1.00
  13983.1000000              0.00194267
   2098.7500000              0.0148599
    477.7050000              0.0728494
    134.3600000              0.2468300
     42.8709000              0.4872580
     14.5189000              0.3234960
SP   6   1.00
    239.6680000             -0.00292619             0.00460285
     57.4419000             -0.0374080              0.0331990
     18.2859000             -0.1144870              0.1362820
      6.5991400              0.1156350              0.3304760
      2.4904900              0.6125950              0.4491460
      0.9445400              0.3937990              0.2657040
SP   3   1.00
      1.2779000             -0.2276060             -0.0175130
      0.3975900              0.00144583             0.2445330
      0.1600950              1.0927900              0.8049340
SP   1   1.00
      0.0556577              1.0000000              1.0000000
D    1   1.00
      0.6500000              1.0000000
D    1   1.00
      0.1625000              1.0000000
F    1   1.00
      0.2500000              1.0000000
****
Si     0
S    6   1.00
  16115.9000000              0.00195948
   2425.5800000              0.01492880
    553.8670000              0.07284780
    156.3400000              0.24613000
     50.0683000              0.48591400
     17.0178000              0.32500200
SP   6   1.00
    292.7180000             -0.00278094             0.00443826
     69.8731000             -0.03571460             0.03266790
     22.3363000             -0.11498500             0.13472100
      8.1503900              0.09356340             0.32867800
      3.1345800              0.60301700             0.44964000
      1.2254300              0.41895900             0.26137200
SP   3   1.00
      1.7273800             -0.24463000            -0.01779510
      0.5729220              0.00431572             0.25353900
      0.2221920              1.09818000             0.80066900
SP   1   1.00
      0.0778369              1.00000000             1.00000000
D    1   1.00
      0.9000000              1.0000000
D    1   1.00
      0.2250000              1.0000000
F    1   1.00
      0.3200000              1.0000000
****
P     0
S    6   1.00
  19413.3000000              0.0018516
   2909.4200000              0.0142062
    661.3640000              0.0699995
    185.7590000              0.2400790
     59.1943000              0.4847620
     20.0310000              0.3352000
SP   6   1.00
    339.4780000             -0.00278217             0.00456462
     81.0101000             -0.0360499              0.03369360
     25.8780000             -0.1166310              0.13975500
      9.4522100              0.0968328              0.33936200
      3.6656600              0.6144180              0.45092100
      1.4674600              0.4037980              0.23858600
SP   3   1.00
      2.1562300             -0.2529230             -0.01776530
      0.7489970              0.0328517              0.27405800
      0.2831450              1.0812500              0.78542100
SP   1   1.00
      0.0998317              1.0000000              1.00000000
D    1   1.00
      1.1000000              1.0000000
D    1   1.00
      0.2750000              1.0000000
F    1   1.00
      0.4500000              1.0000000
****
S     0
S    6   1.00
  21917.1000000              0.0018690
   3301.4900000              0.0142300
    754.1460000              0.0696960
    212.7110000              0.2384870
     67.9896000              0.4833070
     23.0515000              0.3380740
SP   6   1.00
    423.7350000             -0.0023767              0.0040610
    100.7100000             -0.0316930              0.0306810
     32.1599000             -0.1133170              0.1304520
     11.8079000              0.0560900              0.3272050
      4.6311000              0.5922550              0.4528510
      1.8702500              0.4550060              0.2560420
SP   3   1.00
      2.6158400             -0.2503740             -0.0145110
      0.9221670              0.0669570              0.3102630
      0.3412870              1.0545100              0.7544830
SP   1   1.00
      0.1171670              1.0000000              1.0000000
D    1   1.00
      1.3000000              1.0000000
D    1   1.00
      0.3250000              1.0000000
F    1   1.00
      0.5500000              1.0000000
****
Cl     0
S    6   1.00
  25180.1000000              0.0018330
   3780.3500000              0.0140340
    860.4740000              0.0690970
    242.1450000              0.2374520
     77.3349000              0.4830340
     26.2470000              0.3398560
SP   6   1.00
    491.7650000             -0.0022974              0.0039894
    116.9840000             -0.0307140              0.0303180
     37.4153000             -0.1125280              0.1298800
     13.7834000              0.0450160              0.3279510
      5.4521500              0.5893530              0.4535270
      2.2258800              0.4652060              0.2521540
SP   3   1.00
      3.1864900             -0.2518300             -0.0142990
      1.1442700              0.0615890              0.3235720
      0.4203770              1.0601800              0.7435070
SP   1   1.00
      0.1426570              1.0000000              1.0000000
D    1   1.00
      1.5000000              1.0000000
D    1   1.00
      0.3750000              1.0000000
F    1   1.00
      0.7000000              1.0000000
****
}

set {
reference uhf
freeze_core true
e_convergence 10
d_convergence 10
dft_spherical_points 1202
dft_radial_points 99
}

e = energy('b3lyp')

print_out('Grab this energy {0}'.format(e))
--------------------------------------------------------------------------

    Molecular point group: cs

    Geometry (in Bohr), charge = 0, multiplicity = 2:

       Center              X                  Y                   Z               Mass
    ------------   -----------------  -----------------  -----------------  -----------------
         C           -0.323341725015     0.002221782331     0.000000000000    12.000000000000
         C            0.062226736485    -1.400642013969    -2.427589065200    12.000000000000
         C            0.058847642885     2.799900943231     0.000000000000    12.000000000000
         C            0.062226736485    -1.400642013969     2.427589065200    12.000000000000
         H            2.086157396085    -1.647087829869    -2.845926538000     1.007825032230
         H           -0.758925931415    -0.387164614269    -4.030562227500     1.007825032230
         H           -0.768717821215    -3.291325016169    -2.348987516400     1.007825032230
         H            2.088351536885     3.287733673631     0.000000000000     1.007825032230
         H           -0.768969641015     3.676717509031     1.673614200800     1.007825032230
         H           -0.768969641015     3.676717509031    -1.673614200800     1.007825032230
         H            2.086157396085    -1.647087829869     2.845926538000     1.007825032230
         H           -0.768717821215    -3.291325016169     2.348987516400     1.007825032230
         H           -0.758925931415    -0.387164614269     4.030562227500     1.007825032230

  Charge       = 0
  Multiplicity = 2
  Basis Set: ANONYMOUS010A03D0
    Blend: 6-31G_2DFP_
  Basis Set: (ANONYMOUS010A03D0 AUX)
    Blend: DEF2-UNIVERSAL-JKFIT

    Orbital Energies [Eh]
    ---------------------

    Alpha Occupied:

       1Ap   -10.180342     1App  -10.167125     2Ap   -10.167096
       3Ap   -10.166822     4Ap    -0.797768     5Ap    -0.686329
       2App   -0.686045     6Ap    -0.530776     7Ap    -0.441128
       3App   -0.434766     8Ap    -0.434573     9Ap    -0.382621
       4App   -0.382577     5App   -0.363611    10Ap    -0.338180
       6App   -0.337817    11Ap    -0.168961

    Alpha Virtual:

      12Ap     0.076072    13Ap     0.134051     7App    0.134260
      14Ap     0.142549     8App    0.142701    15Ap     0.154882
      16Ap     0.178689     9App    0.178867    17Ap     0.203545
      10App    0.214801    11App    0.275574    18Ap     0.276398
      12App    0.399190    19Ap     0.399258    20Ap     0.403353
      21Ap     0.424047    13App    0.424149    22Ap     0.456594
      14App    0.495295    23Ap     0.495479    15App    0.512160
      24Ap     0.513982    16App    0.578797    25Ap     0.578815
      17App    0.591565    26Ap     0.591724    27Ap     0.602571
      28Ap     0.624764    18App    0.631728    29Ap     0.636235
      19App    0.636307    30Ap     0.663252    20App    0.663584
      21App    0.683698    31Ap     0.684006    32Ap     0.734995
      22App    0.825345    33Ap     0.825456    23App    0.853928
      34Ap     0.914947    24App    0.915106    25App    0.944124
      35Ap     0.944608    36Ap     0.961220    26App    0.961374
      37Ap     1.003456    38Ap     1.128002    27App    1.128210
      39Ap     1.142222    40Ap     1.163005    28App    1.163523
      41Ap     1.223343    29App    1.274457    42Ap     1.274523
      43Ap     1.279353    30App    1.324278    44Ap     1.324433
      45Ap     1.355974    31App    1.365768    46Ap     1.366329
      32App    1.392437    47Ap     1.403913    33App    1.404173
      34App    1.416339    48Ap     1.417920    35App    1.427917
      36App    1.491486    49Ap     1.499082    50Ap     1.542515
      37App    1.543166    51Ap     1.574374    38App    1.574509
      52Ap     1.669826    39App    1.739306    53Ap     1.739501
      54Ap     1.768340    40App    1.830181    55Ap     1.832609
      41App    1.971699    56Ap     2.018262    57Ap     2.018660
      42App    2.019473    43App    2.052621    58Ap     2.052702
      59Ap     2.738128    44App    2.738840    60Ap     2.790925
      45App    2.811415    46App    2.889538    61Ap     2.890190
      62Ap     2.895126    63Ap     2.929318    47App    2.929684
      48App    2.958996    64Ap     2.963776    49App    2.964973
      65Ap     3.034011    50App    3.070993    66Ap     3.071559
      51App    3.084353    52App    3.168521    67Ap     3.169058
      68Ap     3.180598    53App    3.284945    69Ap     3.285685
      54App    3.326525    70Ap     3.327805    71Ap     3.375609
      55App    3.489750    72Ap     3.490558    56App    3.514022
      73Ap     3.525321    57App    3.567424    74Ap     3.569349
      58App    3.575137    75Ap     3.665459    59App    3.667327
      76Ap     3.679650    60App    3.693618    77Ap     3.694609
      78Ap     3.775417    61App    3.778139    79Ap     3.789198
      62App    3.911637    80Ap     3.912823    81Ap     4.034425
      63App    4.110784    82Ap     4.111939    64App    4.146973
      83Ap     4.149231    84Ap     4.173234    65App    4.201842
      85Ap     4.202582    86Ap     4.204445    66App    4.210854
      87Ap     4.315624    67App    4.316319    68App    4.358985
      88Ap     4.424288    69App    4.424637    70App    4.443420
      71App    4.516780    89Ap     4.516905    72App    4.577492
      90Ap     4.578945    91Ap     4.617628    92Ap     4.709435
      93Ap     4.773581    73App    4.775650    74App    4.836923
      94Ap     4.962860    95Ap     5.002841    75App    5.003063
      96Ap     5.228045    97Ap     5.244622    76App    5.248962
      98Ap     5.355257    77App    5.355775    78App    5.479391

    Beta Occupied:

       1App  -10.167876     1Ap   -10.167859     2Ap   -10.167588
       3Ap   -10.166519     4Ap    -0.781093     5Ap    -0.684126
       2App   -0.683854     6Ap    -0.511748     3App   -0.431138
       7Ap    -0.430950     8Ap    -0.421818     4App   -0.376696
       9Ap    -0.376672     5App   -0.362595    10Ap    -0.333296
       6App   -0.332946

    Beta Virtual:

      11Ap    -0.025743    12Ap     0.077081    13Ap     0.134956
       7App    0.135136    14Ap     0.144436     8App    0.144556
      15Ap     0.163340    16Ap     0.182349     9App    0.182549
      10App    0.215030    17Ap     0.218928    11App    0.281930
      18Ap     0.282738    12App    0.400365    19Ap     0.400427
      20Ap     0.419794    21Ap     0.426872    13App    0.426947
      22Ap     0.468502    14App    0.497541    23Ap     0.497756
      15App    0.513896    24Ap     0.556325    16App    0.584320
      25Ap     0.584394    17App    0.597788    26Ap     0.597859
      27Ap     0.609993    28Ap     0.628140    18App    0.631903
      29Ap     0.639542    19App    0.639551    30Ap     0.666837
      20App    0.667128    21App    0.686339    31Ap     0.686635
      32Ap     0.757518    22App    0.830538    33Ap     0.830599
      23App    0.855282    34Ap     0.922936    24App    0.923059
      25App    0.945961    35Ap     0.953535    36Ap     0.966528
      26App    0.966679    37Ap     1.008696    38Ap     1.132039
      27App    1.132231    39Ap     1.155599    40Ap     1.168107
      28App    1.168568    41Ap     1.232315    29App    1.280061
      42Ap     1.280115    43Ap     1.285105    30App    1.329278
      44Ap     1.329413    45Ap     1.365383    31App    1.371002
      46Ap     1.371584    32App    1.393497    47Ap     1.407365
      33App    1.407650    34App    1.421377    48Ap     1.422984
      35App    1.428191    36App    1.492534    49Ap     1.509524
      50Ap     1.546906    37App    1.547589    51Ap     1.582276
      38App    1.582351    52Ap     1.674672    39App    1.745054
      53Ap     1.745284    54Ap     1.779114    40App    1.834021
      55Ap     1.836480    41App    1.972561    56Ap     2.025047
      42App    2.025865    57Ap     2.039637    43App    2.059326
      58Ap     2.059448    59Ap     2.746500    44App    2.747139
      45App    2.811828    60Ap     2.816060    46App    2.902232
      61Ap     2.903020    62Ap     2.924654    63Ap     2.931804
      47App    2.932191    48App    2.960059    64Ap     2.968324
      49App    2.969515    65Ap     3.041944    50App    3.081025
      66Ap     3.081333    51App    3.086183    52App    3.184094
      67Ap     3.184978    68Ap     3.188288    53App    3.289730
      69Ap     3.290496    54App    3.330312    70Ap     3.331627
      71Ap     3.383428    55App    3.492497    72Ap     3.493270
      56App    3.512388    73Ap     3.528370    57App    3.574997
      58App    3.580751    74Ap     3.582701    75Ap     3.670281
      59App    3.671994    76Ap     3.692942    60App    3.725401
      77Ap     3.726099    78Ap     3.779966    61App    3.782683
      79Ap     3.817700    62App    3.921476    80Ap     3.922619
      81Ap     4.045311    63App    4.117579    82Ap     4.118773
      64App    4.154301    83Ap     4.156324    84Ap     4.187295
      65App    4.207721    85Ap     4.210089    86Ap     4.210908
      66App    4.215323    87Ap     4.323095    67App    4.323730
      68App    4.362346    88Ap     4.432527    69App    4.432825
      70App    4.446306    71App    4.524584    89Ap     4.524682
      72App    4.588077    90Ap     4.589549    91Ap     4.624833
      92Ap     4.719779    93Ap     4.780576    73App    4.782563
      74App    4.839840    94Ap     4.967654    95Ap     5.006919
      75App    5.007065    96Ap     5.233761    97Ap     5.246406
      76App    5.250746    98Ap     5.361748    77App    5.362244
      78App    5.481712

    Final Occupation by Irrep:
             Ap   App
    DOCC [    10,    6 ]
    SOCC [     1,    0 ]

  @DF-UKS Final Energy:  -157.81306208450053

   => Energetics <=

    Nuclear Repulsion Energy =            125.3946508345648851
    One-Electron Energy =                -458.7489451220565684
    Two-Electron Energy =                 195.8483783985477942
    DFT Exchange-Correlation Energy =     -20.3071461955566264
    Empirical Dispersion Energy =           0.0000000000000000
    VV10 Nonlocal Energy =                  0.0000000000000000
    Total Energy =                       -157.8130620845005296

  UHF NO Occupations:
  HONO-2 :    9 Ap 1.9996008
  HONO-1 :   10 Ap 1.9989804
  HONO-0 :   11 Ap 1.0000000
  LUNO+0 :   12 Ap 0.0010196
  LUNO+1 :   13 Ap 0.0003992
  LUNO+2 :    7App 0.0001981
  LUNO+3 :   14 Ap 0.0001970

Computation Completed

Properties will be evaluated at   0.000000,   0.000000,   0.000000 [a0]

Properties computed using the SCF density matrix

  Nuclear Dipole Moment: [e a0]
     X:     0.8272      Y:    -0.0050      Z:     0.0000

  Electronic Dipole Moment: [e a0]
     X:    -0.7493      Y:     0.0056      Z:     0.0000

  Dipole Moment: [e a0]
     X:     0.0779      Y:     0.0006      Z:     0.0000     Total:     0.0779

  Dipole Moment: [D]
     X:     0.1980      Y:     0.0015      Z:     0.0000     Total:     0.1980

*** tstop() called on n082 at Fri Nov  5 14:19:52 2021
Module time:
	user time   =     492.84 seconds =       8.21 minutes
	system time =       4.56 seconds =       0.08 minutes
	total time  =        125 seconds =       2.08 minutes
Total time:
	user time   =     492.84 seconds =       8.21 minutes
	system time =       4.56 seconds =       0.08 minutes
	total time  =        125 seconds =       2.08 minutes
Grab this energy -157.81306208450053
    Psi4 stopped on: Friday, 05 November 2021 02:19PM
    Psi4 wall time for execution: 0:02:05.08

*** Psi4 exiting successfully. Buy a developer a beer!
