                               Psi4 1.4a2.dev629

  ==> Input File <==

--------------------------------------------------------------------------
import os
memory 14 GB

molecule {
 C   -0.3233407524   -0.0034484665   -0.0000000000
 C    0.0611118933   -1.4000525432   -2.4259024534
 C    0.0610687573    2.8034098269    0.0000000000
 C    0.0611118933   -1.4000525432    2.4259024534
 H    2.0856069469   -1.6423376906   -2.8489809492
 H   -0.7701154987   -0.3889648763   -4.0206269973
 H   -0.7624798918   -3.2952903340   -2.3482715522
 H    2.0894504965    3.2871849995    0.0000000000
 H   -0.7640166388    3.6830601073    1.6763540932
 H   -0.7640166388    3.6830601073   -1.6763540932
 H    2.0856069469   -1.6423376906    2.8489809492
 H   -0.7624798918   -3.2952903340    2.3482715522
 H   -0.7701154987   -0.3889648763    4.0206269973
units bohr
0 2
}

basis {

assign 6-31g_2dfp_

[ 6-31g_2dfp_ ]

spherical

!----------------------------------------------------------------------
! Basis Set Exchange
! Version v0.8.13
! https://www.basissetexchange.org
!----------------------------------------------------------------------
!   Basis set: 6-31G(2df,p)
! Description: 6-31G(2df,p)
!        Role: orbital
!     Version: 0  (Data from the original Basis Set Exchange)
!----------------------------------------------------------------------

****
H     0
S    3   1.00
     18.7311370              0.03349460
      2.8253937              0.23472695
      0.6401217              0.81375733
S    1   1.00
      0.1612778              1.00000000
P    1   1.00
      1.5000000              1.0000000
P    1   1.00
      0.3750000              1.0000000
****
B     0
S    6   1.00
   2068.8823000              0.0018663
    310.6495700              0.0142515
     70.6830330              0.0695516
     19.8610800              0.2325729
      6.2993048              0.4670787
      2.1270270              0.3634314
SP   3   1.00
      4.7279710             -0.1303938              0.0745976
      1.1903377             -0.1307889              0.3078467
      0.3594117              1.1309444              0.7434568
SP   1   1.00
      0.1267512              1.0000000              1.0000000
D    1   1.00
      0.8020000              1.0000000
D    1   1.00
      0.2005000              1.0000000
F    1   1.00
      0.5000000              1.0000000
****
C     0
S    6   1.00
   3047.5249000              0.0018347
    457.3695100              0.0140373
    103.9486900              0.0688426
     29.2101550              0.2321844
      9.2866630              0.4679413
      3.1639270              0.3623120
SP   3   1.00
      7.8682724             -0.1193324              0.0689991
      1.8812885             -0.1608542              0.3164240
      0.5442493              1.1434564              0.7443083
SP   1   1.00
      0.1687144              1.0000000              1.0000000
D    1   1.00
      1.2520000              1.0000000
D    1   1.00
      0.3130000              1.0000000
F    1   1.00
      0.8000000              1.0000000
****
N     0
S    6   1.00
   4173.5110000              0.0018348
    627.4579000              0.0139950
    142.9021000              0.0685870
     40.2343300              0.2322410
     12.8202100              0.4690700
      4.3904370              0.3604550
SP   3   1.00
     11.6263580             -0.1149610              0.0675800
      2.7162800             -0.1691180              0.3239070
      0.7722180              1.1458520              0.7408950
SP   1   1.00
      0.2120313              1.0000000              1.0000000
D    1   1.00
      1.8260000              1.0000000
D    1   1.00
      0.4565000              1.0000000
F    1   1.00
      1.0000000              1.0000000
****
O     0
S    6   1.00
   5484.6717000              0.0018311
    825.2349500              0.0139501
    188.0469600              0.0684451
     52.9645000              0.2327143
     16.8975700              0.4701930
      5.7996353              0.3585209
SP   3   1.00
     15.5396160             -0.1107775              0.0708743
      3.5999336             -0.1480263              0.3397528
      1.0137618              1.1307670              0.7271586
SP   1   1.00
      0.2700058              1.0000000              1.0000000
D    1   1.00
      2.5840000              1.0000000
D    1   1.00
      0.6460000              1.0000000
F    1   1.00
      1.4000000              1.0000000
****
F     0
S    6   1.00
   7001.7130900              0.0018196169
   1051.3660900              0.0139160796
    239.2856900              0.0684053245
     67.3974453              0.233185760
     21.5199573              0.471267439
      7.40310130             0.356618546
SP   3   1.00
     20.8479528             -0.108506975            0.0716287243
      4.80830834            -0.146451658            0.3459121030
      1.34406986             1.128688580            0.7224699570
SP   1   1.00
      0.358151393            1.0000000              1.0000000
D    1   1.00
      3.5000000              1.0000000
D    1   1.00
      0.8750000              1.0000000
F    1   1.00
      1.8500000              1.0000000
****
Al     0
S    6   1.00
  13983.1000000              0.00194267
   2098.7500000              0.0148599
    477.7050000              0.0728494
    134.3600000              0.2468300
     42.8709000              0.4872580
     14.5189000              0.3234960
SP   6   1.00
    239.6680000             -0.00292619             0.00460285
     57.4419000             -0.0374080              0.0331990
     18.2859000             -0.1144870              0.1362820
      6.5991400              0.1156350              0.3304760
      2.4904900              0.6125950              0.4491460
      0.9445400              0.3937990              0.2657040
SP   3   1.00
      1.2779000             -0.2276060             -0.0175130
      0.3975900              0.00144583             0.2445330
      0.1600950              1.0927900              0.8049340
SP   1   1.00
      0.0556577              1.0000000              1.0000000
D    1   1.00
      0.6500000              1.0000000
D    1   1.00
      0.1625000              1.0000000
F    1   1.00
      0.2500000              1.0000000
****
Si     0
S    6   1.00
  16115.9000000              0.00195948
   2425.5800000              0.01492880
    553.8670000              0.07284780
    156.3400000              0.24613000
     50.0683000              0.48591400
     17.0178000              0.32500200
SP   6   1.00
    292.7180000             -0.00278094             0.00443826
     69.8731000             -0.03571460             0.03266790
     22.3363000             -0.11498500             0.13472100
      8.1503900              0.09356340             0.32867800
      3.1345800              0.60301700             0.44964000
      1.2254300              0.41895900             0.26137200
SP   3   1.00
      1.7273800             -0.24463000            -0.01779510
      0.5729220              0.00431572             0.25353900
      0.2221920              1.09818000             0.80066900
SP   1   1.00
      0.0778369              1.00000000             1.00000000
D    1   1.00
      0.9000000              1.0000000
D    1   1.00
      0.2250000              1.0000000
F    1   1.00
      0.3200000              1.0000000
****
P     0
S    6   1.00
  19413.3000000              0.0018516
   2909.4200000              0.0142062
    661.3640000              0.0699995
    185.7590000              0.2400790
     59.1943000              0.4847620
     20.0310000              0.3352000
SP   6   1.00
    339.4780000             -0.00278217             0.00456462
     81.0101000             -0.0360499              0.03369360
     25.8780000             -0.1166310              0.13975500
      9.4522100              0.0968328              0.33936200
      3.6656600              0.6144180              0.45092100
      1.4674600              0.4037980              0.23858600
SP   3   1.00
      2.1562300             -0.2529230             -0.01776530
      0.7489970              0.0328517              0.27405800
      0.2831450              1.0812500              0.78542100
SP   1   1.00
      0.0998317              1.0000000              1.00000000
D    1   1.00
      1.1000000              1.0000000
D    1   1.00
      0.2750000              1.0000000
F    1   1.00
      0.4500000              1.0000000
****
S     0
S    6   1.00
  21917.1000000              0.0018690
   3301.4900000              0.0142300
    754.1460000              0.0696960
    212.7110000              0.2384870
     67.9896000              0.4833070
     23.0515000              0.3380740
SP   6   1.00
    423.7350000             -0.0023767              0.0040610
    100.7100000             -0.0316930              0.0306810
     32.1599000             -0.1133170              0.1304520
     11.8079000              0.0560900              0.3272050
      4.6311000              0.5922550              0.4528510
      1.8702500              0.4550060              0.2560420
SP   3   1.00
      2.6158400             -0.2503740             -0.0145110
      0.9221670              0.0669570              0.3102630
      0.3412870              1.0545100              0.7544830
SP   1   1.00
      0.1171670              1.0000000              1.0000000
D    1   1.00
      1.3000000              1.0000000
D    1   1.00
      0.3250000              1.0000000
F    1   1.00
      0.5500000              1.0000000
****
Cl     0
S    6   1.00
  25180.1000000              0.0018330
   3780.3500000              0.0140340
    860.4740000              0.0690970
    242.1450000              0.2374520
     77.3349000              0.4830340
     26.2470000              0.3398560
SP   6   1.00
    491.7650000             -0.0022974              0.0039894
    116.9840000             -0.0307140              0.0303180
     37.4153000             -0.1125280              0.1298800
     13.7834000              0.0450160              0.3279510
      5.4521500              0.5893530              0.4535270
      2.2258800              0.4652060              0.2521540
SP   3   1.00
      3.1864900             -0.2518300             -0.0142990
      1.1442700              0.0615890              0.3235720
      0.4203770              1.0601800              0.7435070
SP   1   1.00
      0.1426570              1.0000000              1.0000000
D    1   1.00
      1.5000000              1.0000000
D    1   1.00
      0.3750000              1.0000000
F    1   1.00
      0.7000000              1.0000000
****
}

set {
reference uhf
freeze_core true
e_convergence 10
d_convergence 10
dft_spherical_points 1202
dft_radial_points 99
}

e = energy('b3lyp')

print_out('Grab this energy {0}'.format(e))
--------------------------------------------------------------------------

    Molecular point group: cs

    Geometry (in Bohr), charge = 0, multiplicity = 2:

       Center              X                  Y                   Z               Mass
    ------------   -----------------  -----------------  -----------------  -----------------
         C           -0.323339168463    -0.003420354474     0.000000000000    12.000000000000
         C            0.061113477237    -1.400024431174    -2.425902453400    12.000000000000
         C            0.061070341237     2.803437938926     0.000000000000    12.000000000000
         C            0.061113477237    -1.400024431174     2.425902453400    12.000000000000
         H            2.085608530837    -1.642309578574    -2.848980949200     1.007825032230
         H           -0.770113914763    -0.388936764274    -4.020626997300     1.007825032230
         H           -0.762478307863    -3.295262221974    -2.348271552200     1.007825032230
         H            2.089452080437     3.287213111526     0.000000000000     1.007825032230
         H           -0.764015054863     3.683088219326     1.676354093200     1.007825032230
         H           -0.764015054863     3.683088219326    -1.676354093200     1.007825032230
         H            2.085608530837    -1.642309578574     2.848980949200     1.007825032230
         H           -0.762478307863    -3.295262221974     2.348271552200     1.007825032230
         H           -0.770113914763    -0.388936764274     4.020626997300     1.007825032230

  Charge       = 0
  Multiplicity = 2
  Basis Set: ANONYMOUS758AD26E
    Blend: 6-31G_2DFP_
  Basis Set: (ANONYMOUS758AD26E AUX)
    Blend: DEF2-UNIVERSAL-JKFIT

    Orbital Energies [Eh]
    ---------------------

    Alpha Occupied:

       1Ap   -10.180341     2Ap   -10.167202     1App  -10.166937
       3Ap   -10.166905     4Ap    -0.797768     2App   -0.686409
       5Ap    -0.685964     6Ap    -0.530776     7Ap    -0.441128
       8Ap    -0.434750     3App   -0.434593     4App   -0.382686
       9Ap    -0.382514     5App   -0.363605     6App   -0.338441
      10Ap    -0.337556    11Ap    -0.168960

    Alpha Virtual:

      12Ap     0.076072    13Ap     0.134053     7App    0.134258
      14Ap     0.142575     8App    0.142679    15Ap     0.154879
       9App    0.178723    16Ap     0.178832    17Ap     0.203545
      10App    0.214804    18Ap     0.275525    11App    0.276446
      19Ap     0.399100    12App    0.399346    20Ap     0.403355
      21Ap     0.424071    13App    0.424126    22Ap     0.456592
      14App    0.495304    23Ap     0.495475    15App    0.512160
      24Ap     0.513978    25Ap     0.578583    16App    0.579047
      26Ap     0.591385    17App    0.591881    27Ap     0.602577
      28Ap     0.624757    18App    0.631778    29Ap     0.636168
      19App    0.636337    30Ap     0.663119    20App    0.663706
      21App    0.683826    31Ap     0.683884    32Ap     0.734994
      33Ap     0.825381    22App    0.825433    23App    0.853916
      34Ap     0.915000    24App    0.915052    25App    0.944124
      35Ap     0.944614    36Ap     0.961197    26App    0.961389
      37Ap     1.003454    27App    1.128051    38Ap     1.128143
      39Ap     1.142234    28App    1.163145    40Ap     1.163394
      41Ap     1.223333    42Ap     1.274115    29App    1.274851
      43Ap     1.279369    44Ap     1.324180    30App    1.324536
      45Ap     1.355997    46Ap     1.366002    31App    1.366105
      32App    1.392407    47Ap     1.403484    33App    1.404634
      48Ap     1.416582    34App    1.417665    35App    1.427906
      36App    1.491496    49Ap     1.499089    50Ap     1.542519
      37App    1.543140    38App    1.573906    51Ap     1.574985
      52Ap     1.669818    53Ap     1.739039    39App    1.739800
      54Ap     1.768312    55Ap     1.831063    40App    1.831732
      41App    1.971739    56Ap     2.018019    42App    2.018644
      57Ap     2.019693    58Ap     2.052301    43App    2.053017
      59Ap     2.738383    44App    2.738583    60Ap     2.790928
      45App    2.811420    61Ap     2.888812    46App    2.891052
      62Ap     2.894990    47App    2.929495    63Ap     2.929501
      48App    2.958987    49App    2.963841    64Ap     2.964921
      65Ap     3.034008    66Ap     3.070872    50App    3.071704
      51App    3.084348    52App    3.168719    67Ap     3.168751
      68Ap     3.180682    69Ap     3.285055    53App    3.285576
      70Ap     3.326757    54App    3.327565    71Ap     3.375611
      72Ap     3.489897    55App    3.490413    56App    3.514013
      73Ap     3.525314    74Ap     3.567669    57App    3.569122
      58App    3.575139    75Ap     3.666383    59App    3.666389
      76Ap     3.679620    77Ap     3.693788    60App    3.694484
      61App    3.775473    78Ap     3.778118    79Ap     3.789159
      80Ap     3.911381    62App    3.913074    81Ap     4.034443
      82Ap     4.110560    63App    4.112177    83Ap     4.147374
      64App    4.148858    84Ap     4.173256    85Ap     4.202094
      86Ap     4.203158    65App    4.203532    66App    4.210870
      87Ap     4.314661    67App    4.317262    68App    4.358962
      69App    4.423398    88Ap     4.425509    70App    4.443430
      89Ap     4.515885    71App    4.517782    90Ap     4.577277
      72App    4.579255    91Ap     4.617513    92Ap     4.709475
      73App    4.773823    93Ap     4.775443    74App    4.836913
      94Ap     4.962832    95Ap     5.002637    75App    5.003284
      96Ap     5.228012    97Ap     5.246729    76App    5.246928
      98Ap     5.354536    77App    5.356489    78App    5.479366

    Beta Occupied:

       1Ap   -10.167958     1App  -10.167691     2Ap   -10.167675
       3Ap   -10.166518     4Ap    -0.781093     2App   -0.684198
       5Ap    -0.683781     6Ap    -0.511747     7Ap    -0.431138
       3App   -0.430949     8Ap    -0.421823     4App   -0.376769
       9Ap    -0.376604     5App   -0.362588     6App   -0.333564
      10Ap    -0.332679

    Beta Virtual:

      11Ap    -0.025742    12Ap     0.077081    13Ap     0.134927
       7App    0.135163    14Ap     0.144474     8App    0.144521
      15Ap     0.163337     9App    0.182414    16Ap     0.182484
      10App    0.215033    17Ap     0.218927    18Ap     0.281897
      11App    0.282769    19Ap     0.400283    12App    0.400510
      20Ap     0.419789    21Ap     0.426873    13App    0.426949
      22Ap     0.468500    14App    0.497574    23Ap     0.497726
      15App    0.513895    24Ap     0.556322    25Ap     0.584123
      16App    0.584608    26Ap     0.597576    17App    0.598049
      27Ap     0.609996    28Ap     0.628137    18App    0.631934
      29Ap     0.639436    19App    0.639642    30Ap     0.666690
      20App    0.667262    21App    0.686471    31Ap     0.686509
      32Ap     0.757517    33Ap     0.830574    22App    0.830577
      23App    0.855269    34Ap     0.922968    24App    0.923026
      25App    0.945960    35Ap     0.953543    36Ap     0.966483
      26App    0.966715    37Ap     1.008694    27App    1.132037
      38Ap     1.132219    39Ap     1.155609    28App    1.168271
      40Ap     1.168414    41Ap     1.232304    42Ap     1.279671
      29App    1.280480    43Ap     1.285133    44Ap     1.329172
      30App    1.329523    45Ap     1.365413    31App    1.371285
      46Ap     1.371309    32App    1.393468    47Ap     1.406913
      33App    1.408136    48Ap     1.421662    34App    1.422682
      35App    1.428175    36App    1.492544    49Ap     1.509533
      50Ap     1.546943    37App    1.547530    38App    1.581828
      51Ap     1.582808    52Ap     1.674666    53Ap     1.744790
      39App    1.745573    54Ap     1.779089    55Ap     1.834911
      40App    1.835596    41App    1.972598    42App    2.025106
      56Ap     2.025738    57Ap     2.039680    58Ap     2.059083
      43App    2.059678    59Ap     2.746699    44App    2.746938
      45App    2.811833    60Ap     2.816063    61Ap     2.901607
      46App    2.903665    62Ap     2.924657    63Ap     2.931953
      47App    2.932013    48App    2.960054    49App    2.968408
      64Ap     2.969439    65Ap     3.041941    66Ap     3.080816
      50App    3.081581    51App    3.086165    67Ap     3.184282
      52App    3.184523    68Ap     3.188530    69Ap     3.289880
      53App    3.290347    70Ap     3.330582    54App    3.331349
      71Ap     3.383430    72Ap     3.492590    55App    3.493178
      56App    3.512381    73Ap     3.528361    57App    3.575000
      74Ap     3.580993    58App    3.582469    75Ap     3.670916
      59App    3.671371    76Ap     3.692921    77Ap     3.725745
      60App    3.725763    61App    3.780104    78Ap     3.782566
      79Ap     3.817678    80Ap     3.921224    62App    3.922868
      81Ap     4.045331    82Ap     4.117379    63App    4.118987
      83Ap     4.154687    64App    4.155965    84Ap     4.187312
      85Ap     4.208387    65App    4.209485    86Ap     4.210755
      66App    4.215346    87Ap     4.322037    67App    4.324766
      68App    4.362325    69App    4.431638    88Ap     4.433703
      70App    4.446311    89Ap     4.523701    71App    4.525546
      90Ap     4.587890    72App    4.589839    91Ap     4.624712
      92Ap     4.719821    73App    4.780836    93Ap     4.782338
      74App    4.839831    94Ap     4.967626    95Ap     5.006659
      75App    5.007340    96Ap     5.233725    97Ap     5.248536
      76App    5.248692    98Ap     5.360977    77App    5.363010
      78App    5.481687

    Final Occupation by Irrep:
             Ap   App
    DOCC [    10,    6 ]
    SOCC [     1,    0 ]

  @DF-UKS Final Energy:  -157.81306313492394

   => Energetics <=

    Nuclear Repulsion Energy =            125.3946782455504945
    One-Electron Energy =                -458.7490011761718165
    Two-Electron Energy =                 195.8484060192500351
    DFT Exchange-Correlation Energy =     -20.3071462235526567
    Empirical Dispersion Energy =           0.0000000000000000
    VV10 Nonlocal Energy =                  0.0000000000000000
    Total Energy =                       -157.8130631349239366

  UHF NO Occupations:
  HONO-2 :    9 Ap 1.9996009
  HONO-1 :   10 Ap 1.9989805
  HONO-0 :   11 Ap 1.0000000
  LUNO+0 :   12 Ap 0.0010195
  LUNO+1 :   13 Ap 0.0003991
  LUNO+2 :   14 Ap 0.0001985
  LUNO+3 :    7App 0.0001966

Computation Completed

Properties will be evaluated at   0.000000,   0.000000,   0.000000 [a0]

Properties computed using the SCF density matrix

  Nuclear Dipole Moment: [e a0]
     X:     0.8272      Y:     0.0002      Z:    -0.0000

  Electronic Dipole Moment: [e a0]
     X:    -0.7493      Y:    -0.0002      Z:     0.0000

  Dipole Moment: [e a0]
     X:     0.0779      Y:    -0.0000      Z:    -0.0000     Total:     0.0779

  Dipole Moment: [D]
     X:     0.1980      Y:    -0.0000      Z:    -0.0000     Total:     0.1980

*** tstop() called on n058 at Fri Nov  5 11:56:36 2021
Module time:
	user time   =     540.41 seconds =       9.01 minutes
	system time =      11.87 seconds =       0.20 minutes
	total time  =        139 seconds =       2.32 minutes
Total time:
	user time   =     540.41 seconds =       9.01 minutes
	system time =      11.87 seconds =       0.20 minutes
	total time  =        139 seconds =       2.32 minutes
Grab this energy -157.81306313492394
    Psi4 stopped on: Friday, 05 November 2021 11:56AM
    Psi4 wall time for execution: 0:02:18.94

*** Psi4 exiting successfully. Buy a developer a beer!
