                               Psi4 1.4a2.dev629

  ==> Input File <==

--------------------------------------------------------------------------
import os
memory 14 GB

molecule {
 C   -0.3230381389   -0.0000020439    0.0000000140
 C    0.0610021274   -1.3973188393   -2.4221482349
 C    0.0608825652    2.7963145677    0.0009657450
 C    0.0610021396   -1.3989914620    2.4211825373
 H    2.0866459633   -1.6385483054   -2.8430315747
 H   -0.7628791221   -0.3868236749   -4.0187678642
 H   -0.7677667337   -3.2904449506   -2.3435413761
 H    2.0865069987    3.2815095659    0.0026013363
 H   -0.7631194939    3.6737409010    1.6743538259
 H   -0.7678442538    3.6747597482   -1.6778773039
 H    2.0866453213   -1.6430537571    2.8404303932
 H   -0.7630420009   -3.2868846131    2.3444203085
 H   -0.7676032490   -0.3842814501    4.0214121936
units bohr
0 2
}

basis {

assign 6-31g_2dfp_

[ 6-31g_2dfp_ ]

spherical

!----------------------------------------------------------------------
! Basis Set Exchange
! Version v0.8.13
! https://www.basissetexchange.org
!----------------------------------------------------------------------
!   Basis set: 6-31G(2df,p)
! Description: 6-31G(2df,p)
!        Role: orbital
!     Version: 0  (Data from the original Basis Set Exchange)
!----------------------------------------------------------------------

****
H     0
S    3   1.00
     18.7311370              0.03349460
      2.8253937              0.23472695
      0.6401217              0.81375733
S    1   1.00
      0.1612778              1.00000000
P    1   1.00
      1.5000000              1.0000000
P    1   1.00
      0.3750000              1.0000000
****
B     0
S    6   1.00
   2068.8823000              0.0018663
    310.6495700              0.0142515
     70.6830330              0.0695516
     19.8610800              0.2325729
      6.2993048              0.4670787
      2.1270270              0.3634314
SP   3   1.00
      4.7279710             -0.1303938              0.0745976
      1.1903377             -0.1307889              0.3078467
      0.3594117              1.1309444              0.7434568
SP   1   1.00
      0.1267512              1.0000000              1.0000000
D    1   1.00
      0.8020000              1.0000000
D    1   1.00
      0.2005000              1.0000000
F    1   1.00
      0.5000000              1.0000000
****
C     0
S    6   1.00
   3047.5249000              0.0018347
    457.3695100              0.0140373
    103.9486900              0.0688426
     29.2101550              0.2321844
      9.2866630              0.4679413
      3.1639270              0.3623120
SP   3   1.00
      7.8682724             -0.1193324              0.0689991
      1.8812885             -0.1608542              0.3164240
      0.5442493              1.1434564              0.7443083
SP   1   1.00
      0.1687144              1.0000000              1.0000000
D    1   1.00
      1.2520000              1.0000000
D    1   1.00
      0.3130000              1.0000000
F    1   1.00
      0.8000000              1.0000000
****
N     0
S    6   1.00
   4173.5110000              0.0018348
    627.4579000              0.0139950
    142.9021000              0.0685870
     40.2343300              0.2322410
     12.8202100              0.4690700
      4.3904370              0.3604550
SP   3   1.00
     11.6263580             -0.1149610              0.0675800
      2.7162800             -0.1691180              0.3239070
      0.7722180              1.1458520              0.7408950
SP   1   1.00
      0.2120313              1.0000000              1.0000000
D    1   1.00
      1.8260000              1.0000000
D    1   1.00
      0.4565000              1.0000000
F    1   1.00
      1.0000000              1.0000000
****
O     0
S    6   1.00
   5484.6717000              0.0018311
    825.2349500              0.0139501
    188.0469600              0.0684451
     52.9645000              0.2327143
     16.8975700              0.4701930
      5.7996353              0.3585209
SP   3   1.00
     15.5396160             -0.1107775              0.0708743
      3.5999336             -0.1480263              0.3397528
      1.0137618              1.1307670              0.7271586
SP   1   1.00
      0.2700058              1.0000000              1.0000000
D    1   1.00
      2.5840000              1.0000000
D    1   1.00
      0.6460000              1.0000000
F    1   1.00
      1.4000000              1.0000000
****
F     0
S    6   1.00
   7001.7130900              0.0018196169
   1051.3660900              0.0139160796
    239.2856900              0.0684053245
     67.3974453              0.233185760
     21.5199573              0.471267439
      7.40310130             0.356618546
SP   3   1.00
     20.8479528             -0.108506975            0.0716287243
      4.80830834            -0.146451658            0.3459121030
      1.34406986             1.128688580            0.7224699570
SP   1   1.00
      0.358151393            1.0000000              1.0000000
D    1   1.00
      3.5000000              1.0000000
D    1   1.00
      0.8750000              1.0000000
F    1   1.00
      1.8500000              1.0000000
****
Al     0
S    6   1.00
  13983.1000000              0.00194267
   2098.7500000              0.0148599
    477.7050000              0.0728494
    134.3600000              0.2468300
     42.8709000              0.4872580
     14.5189000              0.3234960
SP   6   1.00
    239.6680000             -0.00292619             0.00460285
     57.4419000             -0.0374080              0.0331990
     18.2859000             -0.1144870              0.1362820
      6.5991400              0.1156350              0.3304760
      2.4904900              0.6125950              0.4491460
      0.9445400              0.3937990              0.2657040
SP   3   1.00
      1.2779000             -0.2276060             -0.0175130
      0.3975900              0.00144583             0.2445330
      0.1600950              1.0927900              0.8049340
SP   1   1.00
      0.0556577              1.0000000              1.0000000
D    1   1.00
      0.6500000              1.0000000
D    1   1.00
      0.1625000              1.0000000
F    1   1.00
      0.2500000              1.0000000
****
Si     0
S    6   1.00
  16115.9000000              0.00195948
   2425.5800000              0.01492880
    553.8670000              0.07284780
    156.3400000              0.24613000
     50.0683000              0.48591400
     17.0178000              0.32500200
SP   6   1.00
    292.7180000             -0.00278094             0.00443826
     69.8731000             -0.03571460             0.03266790
     22.3363000             -0.11498500             0.13472100
      8.1503900              0.09356340             0.32867800
      3.1345800              0.60301700             0.44964000
      1.2254300              0.41895900             0.26137200
SP   3   1.00
      1.7273800             -0.24463000            -0.01779510
      0.5729220              0.00431572             0.25353900
      0.2221920              1.09818000             0.80066900
SP   1   1.00
      0.0778369              1.00000000             1.00000000
D    1   1.00
      0.9000000              1.0000000
D    1   1.00
      0.2250000              1.0000000
F    1   1.00
      0.3200000              1.0000000
****
P     0
S    6   1.00
  19413.3000000              0.0018516
   2909.4200000              0.0142062
    661.3640000              0.0699995
    185.7590000              0.2400790
     59.1943000              0.4847620
     20.0310000              0.3352000
SP   6   1.00
    339.4780000             -0.00278217             0.00456462
     81.0101000             -0.0360499              0.03369360
     25.8780000             -0.1166310              0.13975500
      9.4522100              0.0968328              0.33936200
      3.6656600              0.6144180              0.45092100
      1.4674600              0.4037980              0.23858600
SP   3   1.00
      2.1562300             -0.2529230             -0.01776530
      0.7489970              0.0328517              0.27405800
      0.2831450              1.0812500              0.78542100
SP   1   1.00
      0.0998317              1.0000000              1.00000000
D    1   1.00
      1.1000000              1.0000000
D    1   1.00
      0.2750000              1.0000000
F    1   1.00
      0.4500000              1.0000000
****
S     0
S    6   1.00
  21917.1000000              0.0018690
   3301.4900000              0.0142300
    754.1460000              0.0696960
    212.7110000              0.2384870
     67.9896000              0.4833070
     23.0515000              0.3380740
SP   6   1.00
    423.7350000             -0.0023767              0.0040610
    100.7100000             -0.0316930              0.0306810
     32.1599000             -0.1133170              0.1304520
     11.8079000              0.0560900              0.3272050
      4.6311000              0.5922550              0.4528510
      1.8702500              0.4550060              0.2560420
SP   3   1.00
      2.6158400             -0.2503740             -0.0145110
      0.9221670              0.0669570              0.3102630
      0.3412870              1.0545100              0.7544830
SP   1   1.00
      0.1171670              1.0000000              1.0000000
D    1   1.00
      1.3000000              1.0000000
D    1   1.00
      0.3250000              1.0000000
F    1   1.00
      0.5500000              1.0000000
****
Cl     0
S    6   1.00
  25180.1000000              0.0018330
   3780.3500000              0.0140340
    860.4740000              0.0690970
    242.1450000              0.2374520
     77.3349000              0.4830340
     26.2470000              0.3398560
SP   6   1.00
    491.7650000             -0.0022974              0.0039894
    116.9840000             -0.0307140              0.0303180
     37.4153000             -0.1125280              0.1298800
     13.7834000              0.0450160              0.3279510
      5.4521500              0.5893530              0.4535270
      2.2258800              0.4652060              0.2521540
SP   3   1.00
      3.1864900             -0.2518300             -0.0142990
      1.1442700              0.0615890              0.3235720
      0.4203770              1.0601800              0.7435070
SP   1   1.00
      0.1426570              1.0000000              1.0000000
D    1   1.00
      1.5000000              1.0000000
D    1   1.00
      0.3750000              1.0000000
F    1   1.00
      0.7000000              1.0000000
****
}

set {
reference uhf
freeze_core true
e_convergence 10
d_convergence 10
dft_spherical_points 1202
dft_radial_points 99
}

e = energy('b3lyp')

print_out('Grab this energy {0}'.format(e))
--------------------------------------------------------------------------

    Molecular point group: c1

    Geometry (in Bohr), charge = 0, multiplicity = 2:

       Center              X                  Y                   Z               Mass
    ------------   -----------------  -----------------  -----------------  -----------------
         C           -0.323016697507    -0.000002042608     0.000000002174    12.000000000000
         C            0.061023568793    -1.397318838008    -2.422148246726    12.000000000000
         C            0.060904006593     2.796314568992     0.000965733174    12.000000000000
         C            0.061023580993    -1.398991460708     2.421182525474    12.000000000000
         H            2.086667404693    -1.638548304108    -2.843031586526     1.007825032230
         H           -0.762857680707    -0.386823673608    -4.018767876026     1.007825032230
         H           -0.767745292307    -3.290444949308    -2.343541387926     1.007825032230
         H            2.086528440093     3.281509567192     0.002601324474     1.007825032230
         H           -0.763098052507     3.673740902292     1.674353814074     1.007825032230
         H           -0.767822812407     3.674759749492    -1.677877315726     1.007825032230
         H            2.086666762693    -1.643053755808     2.840430381374     1.007825032230
         H           -0.763020559507    -3.286884611808     2.344420296674     1.007825032230
         H           -0.767581807607    -0.384281448808     4.021412181774     1.007825032230

  Charge       = 0
  Multiplicity = 2
  Basis Set: ANONYMOUS9AAB886E
    Blend: 6-31G_2DFP_
  Basis Set: (ANONYMOUS9AAB886E AUX)
    Blend: DEF2-UNIVERSAL-JKFIT

    Orbital Energies [Eh]
    ---------------------

    Alpha Occupied:

       1A    -10.179568     2A    -10.166669     3A    -10.166668
       4A    -10.166623     5A     -0.798816     6A     -0.686490
       7A     -0.686489     8A     -0.530776     9A     -0.441721
      10A     -0.435153    11A     -0.435152    12A     -0.382674
      13A     -0.382673    14A     -0.363491    15A     -0.338186
      16A     -0.338186    17A     -0.168636

    Alpha Virtual:

      18A      0.076042    19A      0.134184    20A      0.134185
      21A      0.142838    22A      0.142839    23A      0.154941
      24A      0.178956    25A      0.178956    26A      0.204639
      27A      0.215150    28A      0.276505    29A      0.276507
      30A      0.399201    31A      0.399205    32A      0.403135
      33A      0.423824    34A      0.423824    35A      0.457174
      36A      0.495618    37A      0.495619    38A      0.512496
      39A      0.514382    40A      0.579492    41A      0.579501
      42A      0.592178    43A      0.592180    44A      0.603032
      45A      0.625123    46A      0.632183    47A      0.637058
      48A      0.637062    49A      0.663886    50A      0.663887
      51A      0.684318    52A      0.684319    53A      0.734788
      54A      0.825250    55A      0.825253    56A      0.854916
      57A      0.915753    58A      0.915759    59A      0.944017
      60A      0.945473    61A      0.962244    62A      0.962261
      63A      1.004587    64A      1.129001    65A      1.129013
      66A      1.142567    67A      1.164029    68A      1.164041
      69A      1.224229    70A      1.275397    71A      1.275400
      72A      1.279865    73A      1.324677    74A      1.324679
      75A      1.356157    76A      1.367883    77A      1.367887
      78A      1.393977    79A      1.403759    80A      1.403762
      81A      1.417491    82A      1.417498    83A      1.429319
      84A      1.492676    85A      1.499685    86A      1.543556
      87A      1.543558    88A      1.575606    89A      1.575608
      90A      1.669775    91A      1.740028    92A      1.740040
      93A      1.769833    94A      1.832595    95A      1.832596
      96A      1.973088    97A      2.020168    98A      2.020172
      99A      2.020654   100A      2.057151   101A      2.057151
     102A      2.739078   103A      2.739079   104A      2.792076
     105A      2.814159   106A      2.891083   107A      2.891089
     108A      2.896452   109A      2.929677   110A      2.929686
     111A      2.959232   112A      2.964070   113A      2.964084
     114A      3.033954   115A      3.072247   116A      3.072261
     117A      3.085955   118A      3.169628   119A      3.169636
     120A      3.182491   121A      3.285803   122A      3.285803
     123A      3.327604   124A      3.327610   125A      3.374226
     126A      3.491935   127A      3.491955   128A      3.514778
     129A      3.527658   130A      3.568330   131A      3.568350
     132A      3.577274   133A      3.666337   134A      3.666345
     135A      3.681647   136A      3.695575   137A      3.695591
     138A      3.781277   139A      3.781303   140A      3.789794
     141A      3.914311   142A      3.914317   143A      4.036294
     144A      4.114124   145A      4.114128   146A      4.148949
     147A      4.148957   148A      4.174331   149A      4.204052
     150A      4.205445   151A      4.205448   152A      4.212581
     153A      4.317492   154A      4.317512   155A      4.361486
     156A      4.426534   157A      4.426536   158A      4.445877
     159A      4.519847   160A      4.519848   161A      4.581836
     162A      4.581848   163A      4.624890   164A      4.714241
     165A      4.781034   166A      4.781042   167A      4.840841
     168A      4.965944   169A      5.004567   170A      5.004579
     171A      5.229047   172A      5.248154   173A      5.248155
     174A      5.358205   175A      5.358218   176A      5.485146

    Beta Occupied:

       1A    -10.167423     2A    -10.167423     3A    -10.167394
       4A    -10.165773     5A     -0.782119     6A     -0.684272
       7A     -0.684272     8A     -0.511847     9A     -0.431504
      10A     -0.431504    11A     -0.422322    12A     -0.376722
      13A     -0.376721    14A     -0.362464    15A     -0.333314
      16A     -0.333314

    Beta Virtual:

      17A     -0.025712    18A      0.077062    19A      0.135068
      20A      0.135069    21A      0.144737    22A      0.144738
      23A      0.163445    24A      0.182653    25A      0.182654
      26A      0.215381    27A      0.219847    28A      0.282783
      29A      0.282785    30A      0.400403    31A      0.400407
      32A      0.419485    33A      0.426626    34A      0.426626
      35A      0.469437    36A      0.497892    37A      0.497893
      38A      0.514248    39A      0.556647    40A      0.585050
      41A      0.585058    42A      0.598296    43A      0.598297
      44A      0.610497    45A      0.628528    46A      0.632381
      47A      0.640417    48A      0.640421    49A      0.667408
      50A      0.667409    51A      0.687033    52A      0.687034
      53A      0.757132    54A      0.830436    55A      0.830438
      56A      0.856306    57A      0.923738    58A      0.923744
      59A      0.947301    60A      0.952864    61A      0.967575
      62A      0.967591    63A      1.009752    64A      1.133029
      65A      1.133041    66A      1.155960    67A      1.169103
      68A      1.169115    69A      1.233340    70A      1.281031
      71A      1.281035    72A      1.285552    73A      1.329664
      74A      1.329666    75A      1.365603    76A      1.373116
      77A      1.373121    78A      1.395043    79A      1.407200
      80A      1.407203    81A      1.422593    82A      1.422600
      83A      1.429621    84A      1.493738    85A      1.510178
      86A      1.547910    87A      1.547911    88A      1.583544
      89A      1.583545    90A      1.674627    91A      1.745794
      92A      1.745805    93A      1.780638    94A      1.836469
      95A      1.836470    96A      1.973964    97A      2.026584
      98A      2.026587    99A      2.042081   100A      2.063889
     101A      2.063890   102A      2.747317   103A      2.747319
     104A      2.814569   105A      2.817198   106A      2.903538
     107A      2.903543   108A      2.926224   109A      2.932332
     110A      2.932341   111A      2.960307   112A      2.968674
     113A      2.968688   114A      3.041973   115A      3.082245
     116A      3.082257   117A      3.087793   118A      3.185274
     119A      3.185278   120A      3.190111   121A      3.290777
     122A      3.290777   123A      3.331335   124A      3.331341
     125A      3.382029   126A      3.494659   127A      3.494680
     128A      3.513135   129A      3.530651   130A      3.577160
     131A      3.581669   132A      3.581691   133A      3.670983
     134A      3.670994   135A      3.694917   136A      3.727031
     137A      3.727047   138A      3.785840   139A      3.785866
     140A      3.818207   141A      3.924133   142A      3.924140
     143A      4.047117   144A      4.120653   145A      4.120654
     146A      4.156360   147A      4.156369   148A      4.188461
     149A      4.211378   150A      4.211381   151A      4.212059
     152A      4.217194   153A      4.324966   154A      4.324986
     155A      4.364828   156A      4.434856   157A      4.434858
     158A      4.448771   159A      4.527765   160A      4.527766
     161A      4.592456   162A      4.592468   163A      4.632063
     164A      4.724670   165A      4.787989   166A      4.787997
     167A      4.843756   168A      4.970762   169A      5.008645
     170A      5.008658   171A      5.234802   172A      5.249955
     173A      5.249955   174A      5.364735   175A      5.364748
     176A      5.487489

    Final Occupation by Irrep:
              A
    DOCC [    16 ]
    SOCC [     1 ]

  @DF-UKS Final Energy:  -157.81303092493866

   => Energetics <=

    Nuclear Repulsion Energy =            125.5761725692299819
    One-Electron Energy =                -459.1062822151445744
    Two-Electron Energy =                 196.0280330176277914
    DFT Exchange-Correlation Energy =     -20.3109542966518646
    Empirical Dispersion Energy =           0.0000000000000000
    VV10 Nonlocal Energy =                  0.0000000000000000
    Total Energy =                       -157.8130309249386585

  UHF NO Occupations:
  HONO-2 :   15  A 1.9995992
  HONO-1 :   16  A 1.9989874
  HONO-0 :   17  A 1.0000000
  LUNO+0 :   18  A 0.0010126
  LUNO+1 :   19  A 0.0004008
  LUNO+2 :   20  A 0.0001954
  LUNO+3 :   21  A 0.0001954

Computation Completed

Properties will be evaluated at   0.000000,   0.000000,   0.000000 [a0]

Properties computed using the SCF density matrix

  Nuclear Dipole Moment: [e a0]
     X:     0.8273      Y:    -0.0000      Z:    -0.0000

  Electronic Dipole Moment: [e a0]
     X:    -0.7503      Y:     0.0000      Z:     0.0000

  Dipole Moment: [e a0]
     X:     0.0770      Y:     0.0000      Z:     0.0000     Total:     0.0770

  Dipole Moment: [D]
     X:     0.1958      Y:     0.0000      Z:     0.0000     Total:     0.1958

*** tstop() called on n031 at Fri Nov  5 14:46:21 2021
Module time:
	user time   =     599.43 seconds =       9.99 minutes
	system time =      11.47 seconds =       0.19 minutes
	total time  =        153 seconds =       2.55 minutes
Total time:
	user time   =     599.43 seconds =       9.99 minutes
	system time =      11.47 seconds =       0.19 minutes
	total time  =        153 seconds =       2.55 minutes
Grab this energy -157.81303092493866
    Psi4 stopped on: Friday, 05 November 2021 02:46PM
    Psi4 wall time for execution: 0:02:33.65

*** Psi4 exiting successfully. Buy a developer a beer!
