                               Psi4 1.4a2.dev629

  ==> Input File <==

--------------------------------------------------------------------------
import os
memory 14 GB

molecule {
 C   -0.3251181885   -0.0010224484   -0.0000000000
 C    0.0609563583   -1.3995554718   -2.4272120474
 C    0.0597157075    2.8024122085    0.0000000000
 C    0.0609563583   -1.3995554718    2.4272120474
 H    2.0872134312   -1.6416304644   -2.8419517331
 H   -0.7652205624   -0.3906315981   -4.0279502371
 H   -0.7651318524   -3.2932786601   -2.3519307784
 H    2.0871970329    3.2819730393   -0.0000000000
 H   -0.7650185890    3.6834026379    1.6760330706
 H   -0.7650185890    3.6834026379   -1.6760330706
 H    2.0872134312   -1.6416304644    2.8419517331
 H   -0.7651318524   -3.2932786601    2.3519307784
 H   -0.7652205624   -0.3906315981    4.0279502371
units bohr
0 2
}

basis {

assign 6-31g_2dfp_

[ 6-31g_2dfp_ ]

spherical

!----------------------------------------------------------------------
! Basis Set Exchange
! Version v0.8.13
! https://www.basissetexchange.org
!----------------------------------------------------------------------
!   Basis set: 6-31G(2df,p)
! Description: 6-31G(2df,p)
!        Role: orbital
!     Version: 0  (Data from the original Basis Set Exchange)
!----------------------------------------------------------------------

****
H     0
S    3   1.00
     18.7311370              0.03349460
      2.8253937              0.23472695
      0.6401217              0.81375733
S    1   1.00
      0.1612778              1.00000000
P    1   1.00
      1.5000000              1.0000000
P    1   1.00
      0.3750000              1.0000000
****
B     0
S    6   1.00
   2068.8823000              0.0018663
    310.6495700              0.0142515
     70.6830330              0.0695516
     19.8610800              0.2325729
      6.2993048              0.4670787
      2.1270270              0.3634314
SP   3   1.00
      4.7279710             -0.1303938              0.0745976
      1.1903377             -0.1307889              0.3078467
      0.3594117              1.1309444              0.7434568
SP   1   1.00
      0.1267512              1.0000000              1.0000000
D    1   1.00
      0.8020000              1.0000000
D    1   1.00
      0.2005000              1.0000000
F    1   1.00
      0.5000000              1.0000000
****
C     0
S    6   1.00
   3047.5249000              0.0018347
    457.3695100              0.0140373
    103.9486900              0.0688426
     29.2101550              0.2321844
      9.2866630              0.4679413
      3.1639270              0.3623120
SP   3   1.00
      7.8682724             -0.1193324              0.0689991
      1.8812885             -0.1608542              0.3164240
      0.5442493              1.1434564              0.7443083
SP   1   1.00
      0.1687144              1.0000000              1.0000000
D    1   1.00
      1.2520000              1.0000000
D    1   1.00
      0.3130000              1.0000000
F    1   1.00
      0.8000000              1.0000000
****
N     0
S    6   1.00
   4173.5110000              0.0018348
    627.4579000              0.0139950
    142.9021000              0.0685870
     40.2343300              0.2322410
     12.8202100              0.4690700
      4.3904370              0.3604550
SP   3   1.00
     11.6263580             -0.1149610              0.0675800
      2.7162800             -0.1691180              0.3239070
      0.7722180              1.1458520              0.7408950
SP   1   1.00
      0.2120313              1.0000000              1.0000000
D    1   1.00
      1.8260000              1.0000000
D    1   1.00
      0.4565000              1.0000000
F    1   1.00
      1.0000000              1.0000000
****
O     0
S    6   1.00
   5484.6717000              0.0018311
    825.2349500              0.0139501
    188.0469600              0.0684451
     52.9645000              0.2327143
     16.8975700              0.4701930
      5.7996353              0.3585209
SP   3   1.00
     15.5396160             -0.1107775              0.0708743
      3.5999336             -0.1480263              0.3397528
      1.0137618              1.1307670              0.7271586
SP   1   1.00
      0.2700058              1.0000000              1.0000000
D    1   1.00
      2.5840000              1.0000000
D    1   1.00
      0.6460000              1.0000000
F    1   1.00
      1.4000000              1.0000000
****
F     0
S    6   1.00
   7001.7130900              0.0018196169
   1051.3660900              0.0139160796
    239.2856900              0.0684053245
     67.3974453              0.233185760
     21.5199573              0.471267439
      7.40310130             0.356618546
SP   3   1.00
     20.8479528             -0.108506975            0.0716287243
      4.80830834            -0.146451658            0.3459121030
      1.34406986             1.128688580            0.7224699570
SP   1   1.00
      0.358151393            1.0000000              1.0000000
D    1   1.00
      3.5000000              1.0000000
D    1   1.00
      0.8750000              1.0000000
F    1   1.00
      1.8500000              1.0000000
****
Al     0
S    6   1.00
  13983.1000000              0.00194267
   2098.7500000              0.0148599
    477.7050000              0.0728494
    134.3600000              0.2468300
     42.8709000              0.4872580
     14.5189000              0.3234960
SP   6   1.00
    239.6680000             -0.00292619             0.00460285
     57.4419000             -0.0374080              0.0331990
     18.2859000             -0.1144870              0.1362820
      6.5991400              0.1156350              0.3304760
      2.4904900              0.6125950              0.4491460
      0.9445400              0.3937990              0.2657040
SP   3   1.00
      1.2779000             -0.2276060             -0.0175130
      0.3975900              0.00144583             0.2445330
      0.1600950              1.0927900              0.8049340
SP   1   1.00
      0.0556577              1.0000000              1.0000000
D    1   1.00
      0.6500000              1.0000000
D    1   1.00
      0.1625000              1.0000000
F    1   1.00
      0.2500000              1.0000000
****
Si     0
S    6   1.00
  16115.9000000              0.00195948
   2425.5800000              0.01492880
    553.8670000              0.07284780
    156.3400000              0.24613000
     50.0683000              0.48591400
     17.0178000              0.32500200
SP   6   1.00
    292.7180000             -0.00278094             0.00443826
     69.8731000             -0.03571460             0.03266790
     22.3363000             -0.11498500             0.13472100
      8.1503900              0.09356340             0.32867800
      3.1345800              0.60301700             0.44964000
      1.2254300              0.41895900             0.26137200
SP   3   1.00
      1.7273800             -0.24463000            -0.01779510
      0.5729220              0.00431572             0.25353900
      0.2221920              1.09818000             0.80066900
SP   1   1.00
      0.0778369              1.00000000             1.00000000
D    1   1.00
      0.9000000              1.0000000
D    1   1.00
      0.2250000              1.0000000
F    1   1.00
      0.3200000              1.0000000
****
P     0
S    6   1.00
  19413.3000000              0.0018516
   2909.4200000              0.0142062
    661.3640000              0.0699995
    185.7590000              0.2400790
     59.1943000              0.4847620
     20.0310000              0.3352000
SP   6   1.00
    339.4780000             -0.00278217             0.00456462
     81.0101000             -0.0360499              0.03369360
     25.8780000             -0.1166310              0.13975500
      9.4522100              0.0968328              0.33936200
      3.6656600              0.6144180              0.45092100
      1.4674600              0.4037980              0.23858600
SP   3   1.00
      2.1562300             -0.2529230             -0.01776530
      0.7489970              0.0328517              0.27405800
      0.2831450              1.0812500              0.78542100
SP   1   1.00
      0.0998317              1.0000000              1.00000000
D    1   1.00
      1.1000000              1.0000000
D    1   1.00
      0.2750000              1.0000000
F    1   1.00
      0.4500000              1.0000000
****
S     0
S    6   1.00
  21917.1000000              0.0018690
   3301.4900000              0.0142300
    754.1460000              0.0696960
    212.7110000              0.2384870
     67.9896000              0.4833070
     23.0515000              0.3380740
SP   6   1.00
    423.7350000             -0.0023767              0.0040610
    100.7100000             -0.0316930              0.0306810
     32.1599000             -0.1133170              0.1304520
     11.8079000              0.0560900              0.3272050
      4.6311000              0.5922550              0.4528510
      1.8702500              0.4550060              0.2560420
SP   3   1.00
      2.6158400             -0.2503740             -0.0145110
      0.9221670              0.0669570              0.3102630
      0.3412870              1.0545100              0.7544830
SP   1   1.00
      0.1171670              1.0000000              1.0000000
D    1   1.00
      1.3000000              1.0000000
D    1   1.00
      0.3250000              1.0000000
F    1   1.00
      0.5500000              1.0000000
****
Cl     0
S    6   1.00
  25180.1000000              0.0018330
   3780.3500000              0.0140340
    860.4740000              0.0690970
    242.1450000              0.2374520
     77.3349000              0.4830340
     26.2470000              0.3398560
SP   6   1.00
    491.7650000             -0.0022974              0.0039894
    116.9840000             -0.0307140              0.0303180
     37.4153000             -0.1125280              0.1298800
     13.7834000              0.0450160              0.3279510
      5.4521500              0.5893530              0.4535270
      2.2258800              0.4652060              0.2521540
SP   3   1.00
      3.1864900             -0.2518300             -0.0142990
      1.1442700              0.0615890              0.3235720
      0.4203770              1.0601800              0.7435070
SP   1   1.00
      0.1426570              1.0000000              1.0000000
D    1   1.00
      1.5000000              1.0000000
D    1   1.00
      0.3750000              1.0000000
F    1   1.00
      0.7000000              1.0000000
****
}

set {
reference uhf
freeze_core true
e_convergence 10
d_convergence 10
dft_spherical_points 1202
dft_radial_points 99
}

e = energy('b3lyp')

print_out('Grab this energy {0}'.format(e))
--------------------------------------------------------------------------

    Molecular point group: cs

    Geometry (in Bohr), charge = 0, multiplicity = 2:

       Center              X                  Y                   Z               Mass
    ------------   -----------------  -----------------  -----------------  -----------------
         C           -0.324453736110    -0.001460935510     0.000000000000    12.000000000000
         C            0.061620810690    -1.399993958910    -2.427212047400    12.000000000000
         C            0.060380159890     2.801973721390     0.000000000000    12.000000000000
         C            0.061620810690    -1.399993958910     2.427212047400    12.000000000000
         H            2.087877883590    -1.642068951510    -2.841951733100     1.007825032230
         H           -0.764556110010    -0.391070085210    -4.027950237100     1.007825032230
         H           -0.764467400010    -3.293717147210    -2.351930778400     1.007825032230
         H            2.087861485290     3.281534552190     0.000000000000     1.007825032230
         H           -0.764354136610     3.682964150790     1.676033070600     1.007825032230
         H           -0.764354136610     3.682964150790    -1.676033070600     1.007825032230
         H            2.087877883590    -1.642068951510     2.841951733100     1.007825032230
         H           -0.764467400010    -3.293717147210     2.351930778400     1.007825032230
         H           -0.764556110010    -0.391070085210     4.027950237100     1.007825032230

  Charge       = 0
  Multiplicity = 2
  Basis Set: ANONYMOUS0BC694DF
    Blend: 6-31G_2DFP_
  Basis Set: (ANONYMOUS0BC694DF AUX)
    Blend: DEF2-UNIVERSAL-JKFIT

    Orbital Energies [Eh]
    ---------------------

    Alpha Occupied:

       1Ap   -10.180355     1App  -10.167092     2Ap   -10.167073
       3Ap   -10.167020     4Ap    -0.797702     2App   -0.686228
       5Ap    -0.686070     6Ap    -0.530764     7Ap    -0.441295
       8Ap    -0.434468     3App   -0.434451     4App   -0.382792
       9Ap    -0.382713     5App   -0.363471     6App   -0.338269
      10Ap    -0.337683    11Ap    -0.168871

    Alpha Virtual:

      12Ap     0.076036    13Ap     0.134166     7App    0.134244
      14Ap     0.142496     8App    0.142622    15Ap     0.154673
       9App    0.178766    16Ap     0.178865    17Ap     0.203414
      10App    0.214582    18Ap     0.275822    11App    0.276071
      19Ap     0.398892    12App    0.399114    20Ap     0.403417
      13App    0.424245    21Ap     0.424256    22Ap     0.456358
      14App    0.495378    23Ap     0.495447    15App    0.512349
      24Ap     0.513924    25Ap     0.578609    16App    0.578699
      26Ap     0.591815    17App    0.591855    27Ap     0.602802
      28Ap     0.624698    18App    0.631518    29Ap     0.636157
      19App    0.636159    30Ap     0.663046    20App    0.663225
      21App    0.683927    31Ap     0.683949    32Ap     0.734909
      22App    0.825501    33Ap     0.825510    23App    0.853575
      24App    0.914776    34Ap     0.914992    25App    0.943905
      35Ap     0.945408    36Ap     0.961515    26App    0.961626
      37Ap     1.002724    27App    1.127649    38Ap     1.127670
      39Ap     1.142799    28App    1.162705    40Ap     1.162737
      41Ap     1.223406    42Ap     1.274328    29App    1.274694
      43Ap     1.279142    44Ap     1.324029    30App    1.324127
      45Ap     1.356408    31App    1.365493    46Ap     1.365976
      32App    1.392626    47Ap     1.404068    33App    1.404583
      48Ap     1.417013    34App    1.417518    35App    1.427303
      36App    1.490895    49Ap     1.499395    50Ap     1.542593
      37App    1.542936    38App    1.574760    51Ap     1.575386
      52Ap     1.669753    53Ap     1.739433    39App    1.739667
      54Ap     1.768484    40App    1.831047    55Ap     1.831190
      41App    1.971628    42App    2.017786    56Ap     2.018235
      57Ap     2.018897    43App    2.051558    58Ap     2.052766
      59Ap     2.738855    44App    2.738952    60Ap     2.790698
      45App    2.810912    61Ap     2.889120    46App    2.890464
      62Ap     2.894689    63Ap     2.928872    47App    2.929208
      48App    2.958932    49App    2.964046    64Ap     2.964609
      65Ap     3.033530    66Ap     3.071630    50App    3.071890
      51App    3.084708    52App    3.168734    67Ap     3.168944
      68Ap     3.180449    69Ap     3.285500    53App    3.285936
      54App    3.326012    70Ap     3.326090    71Ap     3.375906
      72Ap     3.490617    55App    3.490680    56App    3.513739
      73Ap     3.525155    57App    3.567726    74Ap     3.567975
      58App    3.574336    75Ap     3.666195    59App    3.666650
      76Ap     3.678592    77Ap     3.694626    60App    3.694663
      78Ap     3.775645    61App    3.775654    79Ap     3.790431
      80Ap     3.911769    62App    3.912479    81Ap     4.035578
      63App    4.111035    82Ap     4.111469    83Ap     4.148161
      64App    4.148553    84Ap     4.173304    85Ap     4.202219
      65App    4.202288    86Ap     4.203074    66App    4.210349
      87Ap     4.314863    67App    4.316458    68App    4.357790
      69App    4.424371    88Ap     4.425512    70App    4.442473
      89Ap     4.515837    71App    4.516186    90Ap     4.577019
      72App    4.577603    91Ap     4.616990    92Ap     4.709175
      73App    4.774068    93Ap     4.774366    74App    4.837926
      94Ap     4.962343    75App    5.002772    95Ap     5.003352
      96Ap     5.227681    97Ap     5.246641    76App    5.247107
      98Ap     5.354897    77App    5.354958    78App    5.479086

    Beta Occupied:

       1App  -10.167844     1Ap   -10.167831     2Ap   -10.167785
       3Ap   -10.166527     4Ap    -0.781023     2App   -0.684030
       5Ap    -0.683877     6Ap    -0.511739     7Ap    -0.430856
       3App   -0.430824     8Ap    -0.421984     4App   -0.376895
       9Ap    -0.376801     5App   -0.362461     6App   -0.333388
      10Ap    -0.332802

    Beta Virtual:

      11Ap    -0.025576    12Ap     0.077049    13Ap     0.135029
       7App    0.135131    14Ap     0.144374     8App    0.144464
      15Ap     0.163083     9App    0.182457    16Ap     0.182531
      10App    0.214809    17Ap     0.218836    18Ap     0.282195
      11App    0.282416    19Ap     0.400056    12App    0.400278
      20Ap     0.419841    13App    0.427061    21Ap     0.427074
      22Ap     0.468188    14App    0.497626    23Ap     0.497691
      15App    0.514079    24Ap     0.556354    25Ap     0.584140
      16App    0.584229    26Ap     0.598008    17App    0.598069
      27Ap     0.610206    28Ap     0.628072    18App    0.631672
      19App    0.639446    29Ap     0.639454    30Ap     0.666582
      20App    0.666769    21App    0.686579    31Ap     0.686605
      32Ap     0.757469    22App    0.830657    33Ap     0.830660
      23App    0.854925    24App    0.922701    34Ap     0.922918
      25App    0.945741    35Ap     0.954255    36Ap     0.966857
      26App    0.966949    37Ap     1.007936    27App    1.131685
      38Ap     1.131686    39Ap     1.156388    28App    1.167774
      40Ap     1.167837    41Ap     1.232273    42Ap     1.279879
      29App    1.280299    43Ap     1.284831    44Ap     1.328968
      30App    1.329089    45Ap     1.365884    31App    1.370717
      46Ap     1.371251    32App    1.393669    47Ap     1.407510
      33App    1.408039    48Ap     1.422136    34App    1.422598
      35App    1.427571    36App    1.491955    49Ap     1.509862
      50Ap     1.546991    37App    1.547363    38App    1.582628
      51Ap     1.583241    52Ap     1.674598    53Ap     1.745196
      39App    1.745425    54Ap     1.779247    40App    1.834906
      55Ap     1.835046    41App    1.972480    42App    2.024174
      56Ap     2.024974    57Ap     2.039873    43App    2.058265
      58Ap     2.059518    59Ap     2.747186    44App    2.747270
      45App    2.811319    60Ap     2.815830    61Ap     2.901888
      46App    2.903205    62Ap     2.924409    63Ap     2.931309
      47App    2.931706    48App    2.959993    49App    2.968563
      64Ap     2.969104    65Ap     3.041473    66Ap     3.081544
      50App    3.081823    51App    3.086522    52App    3.184474
      67Ap     3.184691    68Ap     3.188144    69Ap     3.290352
      53App    3.290727    54App    3.329828    70Ap     3.329932
      71Ap     3.383751    72Ap     3.493265    55App    3.493358
      56App    3.512096    73Ap     3.528238    57App    3.574197
      58App    3.581179    74Ap     3.581330    75Ap     3.670945
      59App    3.671598    76Ap     3.691934    60App    3.725940
      77Ap     3.726285    78Ap     3.780052    61App    3.780173
      79Ap     3.818951    80Ap     3.921611    62App    3.922365
      81Ap     4.046411    63App    4.117760    82Ap     4.118196
      83Ap     4.155484    64App    4.155802    84Ap     4.187400
      85Ap     4.208204    65App    4.208272    86Ap     4.210975
      66App    4.214788    87Ap     4.322255    67App    4.323916
      68App    4.361129    69App    4.432569    88Ap     4.433720
      70App    4.445390    89Ap     4.523655    71App    4.523974
      90Ap     4.587621    72App    4.588162    91Ap     4.624259
      92Ap     4.719413    73App    4.781054    93Ap     4.781314
      74App    4.840840    94Ap     4.967141    75App    5.006794
      95Ap     5.007376    96Ap     5.233410    97Ap     5.248431
      76App    5.248879    98Ap     5.361356    77App    5.361456
      78App    5.481402

    Final Occupation by Irrep:
             Ap   App
    DOCC [    10,    6 ]
    SOCC [     1,    0 ]

  @DF-UKS Final Energy:  -157.81306063431236

   => Energetics <=

    Nuclear Repulsion Energy =            125.3830204403820261
    One-Electron Energy =                -458.7262483785868881
    Two-Electron Energy =                 195.8369645890675201
    DFT Exchange-Correlation Energy =     -20.3067972851750298
    Empirical Dispersion Energy =           0.0000000000000000
    VV10 Nonlocal Energy =                  0.0000000000000000
    Total Energy =                       -157.8130606343123645

  UHF NO Occupations:
  HONO-2 :    9 Ap 1.9996022
  HONO-1 :   10 Ap 1.9989785
  HONO-0 :   11 Ap 1.0000000
  LUNO+0 :   12 Ap 0.0010215
  LUNO+1 :   13 Ap 0.0003978
  LUNO+2 :   14 Ap 0.0001983
  LUNO+3 :    7App 0.0001974

Computation Completed

Properties will be evaluated at   0.000000,   0.000000,   0.000000 [a0]

Properties computed using the SCF density matrix

  Nuclear Dipole Moment: [e a0]
     X:     0.8319      Y:    -0.0031      Z:    -0.0000

  Electronic Dipole Moment: [e a0]
     X:    -0.7535      Y:     0.0031      Z:     0.0000

  Dipole Moment: [e a0]
     X:     0.0783      Y:    -0.0000      Z:    -0.0000     Total:     0.0783

  Dipole Moment: [D]
     X:     0.1991      Y:    -0.0001      Z:    -0.0000     Total:     0.1991

*** tstop() called on n089 at Fri Nov  5 11:54:57 2021
Module time:
	user time   =     510.42 seconds =       8.51 minutes
	system time =       4.64 seconds =       0.08 minutes
	total time  =        130 seconds =       2.17 minutes
Total time:
	user time   =     510.42 seconds =       8.51 minutes
	system time =       4.64 seconds =       0.08 minutes
	total time  =        130 seconds =       2.17 minutes
Grab this energy -157.81306063431236
    Psi4 stopped on: Friday, 05 November 2021 11:54AM
    Psi4 wall time for execution: 0:02:09.51

*** Psi4 exiting successfully. Buy a developer a beer!
