                               Psi4 1.4a2.dev629

  ==> Input File <==

--------------------------------------------------------------------------
import os
memory 14 GB

molecule {
 C   -0.3233357485   -0.0050891206    0.0000000000
 C    0.0620915787   -1.4022966934   -2.4255880430
 C    0.0591184491    2.8017109844   -0.0000000000
 C    0.0620915787   -1.4022966934    2.4255880430
 H    2.0869539732   -1.6430246259   -2.8477164590
 H   -0.7648574068   -0.3876080243   -4.0261560084
 H   -0.7667038171   -3.2908401844   -2.3483529416
 H    2.0867634289    3.2887005872   -0.0000000000
 H   -0.7650613311    3.6810961458    1.6763179139
 H   -0.7650613311    3.6810961458   -1.6763179139
 H    2.0869539732   -1.6430246259    2.8477164590
 H   -0.7667038171   -3.2908401844    2.3483529416
 H   -0.7648574068   -0.3876080243    4.0261560084
units bohr
0 2
}

basis {

assign 6-31g_2dfp_

[ 6-31g_2dfp_ ]

spherical

!----------------------------------------------------------------------
! Basis Set Exchange
! Version v0.8.13
! https://www.basissetexchange.org
!----------------------------------------------------------------------
!   Basis set: 6-31G(2df,p)
! Description: 6-31G(2df,p)
!        Role: orbital
!     Version: 0  (Data from the original Basis Set Exchange)
!----------------------------------------------------------------------

****
H     0
S    3   1.00
     18.7311370              0.03349460
      2.8253937              0.23472695
      0.6401217              0.81375733
S    1   1.00
      0.1612778              1.00000000
P    1   1.00
      1.5000000              1.0000000
P    1   1.00
      0.3750000              1.0000000
****
B     0
S    6   1.00
   2068.8823000              0.0018663
    310.6495700              0.0142515
     70.6830330              0.0695516
     19.8610800              0.2325729
      6.2993048              0.4670787
      2.1270270              0.3634314
SP   3   1.00
      4.7279710             -0.1303938              0.0745976
      1.1903377             -0.1307889              0.3078467
      0.3594117              1.1309444              0.7434568
SP   1   1.00
      0.1267512              1.0000000              1.0000000
D    1   1.00
      0.8020000              1.0000000
D    1   1.00
      0.2005000              1.0000000
F    1   1.00
      0.5000000              1.0000000
****
C     0
S    6   1.00
   3047.5249000              0.0018347
    457.3695100              0.0140373
    103.9486900              0.0688426
     29.2101550              0.2321844
      9.2866630              0.4679413
      3.1639270              0.3623120
SP   3   1.00
      7.8682724             -0.1193324              0.0689991
      1.8812885             -0.1608542              0.3164240
      0.5442493              1.1434564              0.7443083
SP   1   1.00
      0.1687144              1.0000000              1.0000000
D    1   1.00
      1.2520000              1.0000000
D    1   1.00
      0.3130000              1.0000000
F    1   1.00
      0.8000000              1.0000000
****
N     0
S    6   1.00
   4173.5110000              0.0018348
    627.4579000              0.0139950
    142.9021000              0.0685870
     40.2343300              0.2322410
     12.8202100              0.4690700
      4.3904370              0.3604550
SP   3   1.00
     11.6263580             -0.1149610              0.0675800
      2.7162800             -0.1691180              0.3239070
      0.7722180              1.1458520              0.7408950
SP   1   1.00
      0.2120313              1.0000000              1.0000000
D    1   1.00
      1.8260000              1.0000000
D    1   1.00
      0.4565000              1.0000000
F    1   1.00
      1.0000000              1.0000000
****
O     0
S    6   1.00
   5484.6717000              0.0018311
    825.2349500              0.0139501
    188.0469600              0.0684451
     52.9645000              0.2327143
     16.8975700              0.4701930
      5.7996353              0.3585209
SP   3   1.00
     15.5396160             -0.1107775              0.0708743
      3.5999336             -0.1480263              0.3397528
      1.0137618              1.1307670              0.7271586
SP   1   1.00
      0.2700058              1.0000000              1.0000000
D    1   1.00
      2.5840000              1.0000000
D    1   1.00
      0.6460000              1.0000000
F    1   1.00
      1.4000000              1.0000000
****
F     0
S    6   1.00
   7001.7130900              0.0018196169
   1051.3660900              0.0139160796
    239.2856900              0.0684053245
     67.3974453              0.233185760
     21.5199573              0.471267439
      7.40310130             0.356618546
SP   3   1.00
     20.8479528             -0.108506975            0.0716287243
      4.80830834            -0.146451658            0.3459121030
      1.34406986             1.128688580            0.7224699570
SP   1   1.00
      0.358151393            1.0000000              1.0000000
D    1   1.00
      3.5000000              1.0000000
D    1   1.00
      0.8750000              1.0000000
F    1   1.00
      1.8500000              1.0000000
****
Al     0
S    6   1.00
  13983.1000000              0.00194267
   2098.7500000              0.0148599
    477.7050000              0.0728494
    134.3600000              0.2468300
     42.8709000              0.4872580
     14.5189000              0.3234960
SP   6   1.00
    239.6680000             -0.00292619             0.00460285
     57.4419000             -0.0374080              0.0331990
     18.2859000             -0.1144870              0.1362820
      6.5991400              0.1156350              0.3304760
      2.4904900              0.6125950              0.4491460
      0.9445400              0.3937990              0.2657040
SP   3   1.00
      1.2779000             -0.2276060             -0.0175130
      0.3975900              0.00144583             0.2445330
      0.1600950              1.0927900              0.8049340
SP   1   1.00
      0.0556577              1.0000000              1.0000000
D    1   1.00
      0.6500000              1.0000000
D    1   1.00
      0.1625000              1.0000000
F    1   1.00
      0.2500000              1.0000000
****
Si     0
S    6   1.00
  16115.9000000              0.00195948
   2425.5800000              0.01492880
    553.8670000              0.07284780
    156.3400000              0.24613000
     50.0683000              0.48591400
     17.0178000              0.32500200
SP   6   1.00
    292.7180000             -0.00278094             0.00443826
     69.8731000             -0.03571460             0.03266790
     22.3363000             -0.11498500             0.13472100
      8.1503900              0.09356340             0.32867800
      3.1345800              0.60301700             0.44964000
      1.2254300              0.41895900             0.26137200
SP   3   1.00
      1.7273800             -0.24463000            -0.01779510
      0.5729220              0.00431572             0.25353900
      0.2221920              1.09818000             0.80066900
SP   1   1.00
      0.0778369              1.00000000             1.00000000
D    1   1.00
      0.9000000              1.0000000
D    1   1.00
      0.2250000              1.0000000
F    1   1.00
      0.3200000              1.0000000
****
P     0
S    6   1.00
  19413.3000000              0.0018516
   2909.4200000              0.0142062
    661.3640000              0.0699995
    185.7590000              0.2400790
     59.1943000              0.4847620
     20.0310000              0.3352000
SP   6   1.00
    339.4780000             -0.00278217             0.00456462
     81.0101000             -0.0360499              0.03369360
     25.8780000             -0.1166310              0.13975500
      9.4522100              0.0968328              0.33936200
      3.6656600              0.6144180              0.45092100
      1.4674600              0.4037980              0.23858600
SP   3   1.00
      2.1562300             -0.2529230             -0.01776530
      0.7489970              0.0328517              0.27405800
      0.2831450              1.0812500              0.78542100
SP   1   1.00
      0.0998317              1.0000000              1.00000000
D    1   1.00
      1.1000000              1.0000000
D    1   1.00
      0.2750000              1.0000000
F    1   1.00
      0.4500000              1.0000000
****
S     0
S    6   1.00
  21917.1000000              0.0018690
   3301.4900000              0.0142300
    754.1460000              0.0696960
    212.7110000              0.2384870
     67.9896000              0.4833070
     23.0515000              0.3380740
SP   6   1.00
    423.7350000             -0.0023767              0.0040610
    100.7100000             -0.0316930              0.0306810
     32.1599000             -0.1133170              0.1304520
     11.8079000              0.0560900              0.3272050
      4.6311000              0.5922550              0.4528510
      1.8702500              0.4550060              0.2560420
SP   3   1.00
      2.6158400             -0.2503740             -0.0145110
      0.9221670              0.0669570              0.3102630
      0.3412870              1.0545100              0.7544830
SP   1   1.00
      0.1171670              1.0000000              1.0000000
D    1   1.00
      1.3000000              1.0000000
D    1   1.00
      0.3250000              1.0000000
F    1   1.00
      0.5500000              1.0000000
****
Cl     0
S    6   1.00
  25180.1000000              0.0018330
   3780.3500000              0.0140340
    860.4740000              0.0690970
    242.1450000              0.2374520
     77.3349000              0.4830340
     26.2470000              0.3398560
SP   6   1.00
    491.7650000             -0.0022974              0.0039894
    116.9840000             -0.0307140              0.0303180
     37.4153000             -0.1125280              0.1298800
     13.7834000              0.0450160              0.3279510
      5.4521500              0.5893530              0.4535270
      2.2258800              0.4652060              0.2521540
SP   3   1.00
      3.1864900             -0.2518300             -0.0142990
      1.1442700              0.0615890              0.3235720
      0.4203770              1.0601800              0.7435070
SP   1   1.00
      0.1426570              1.0000000              1.0000000
D    1   1.00
      1.5000000              1.0000000
D    1   1.00
      0.3750000              1.0000000
F    1   1.00
      0.7000000              1.0000000
****
}

set {
reference uhf
freeze_core true
e_convergence 10
d_convergence 10
dft_spherical_points 1202
dft_radial_points 99
}

e = energy('b3lyp')

print_out('Grab this energy {0}'.format(e))
--------------------------------------------------------------------------

    Molecular point group: cs

    Geometry (in Bohr), charge = 0, multiplicity = 2:

       Center              X                  Y                   Z               Mass
    ------------   -----------------  -----------------  -----------------  -----------------
         C           -0.323336873874    -0.003553318496     0.000000000000    12.000000000000
         C            0.062090453326    -1.400760891296    -2.425588043000    12.000000000000
         C            0.059117323726     2.803246786504     0.000000000000    12.000000000000
         C            0.062090453326    -1.400760891296     2.425588043000    12.000000000000
         H            2.086952847826    -1.641488823796    -2.847716459000     1.007825032230
         H           -0.764858532174    -0.386072222196    -4.026156008400     1.007825032230
         H           -0.766704942474    -3.289304382296    -2.348352941600     1.007825032230
         H            2.086762303526     3.290236389304     0.000000000000     1.007825032230
         H           -0.765062456474     3.682631947904     1.676317913900     1.007825032230
         H           -0.765062456474     3.682631947904    -1.676317913900     1.007825032230
         H            2.086952847826    -1.641488823796     2.847716459000     1.007825032230
         H           -0.766704942474    -3.289304382296     2.348352941600     1.007825032230
         H           -0.764858532174    -0.386072222196     4.026156008400     1.007825032230

  Charge       = 0
  Multiplicity = 2
  Basis Set: ANONYMOUSF7BADA23
    Blend: 6-31G_2DFP_
  Basis Set: (ANONYMOUSF7BADA23 AUX)
    Blend: DEF2-UNIVERSAL-JKFIT

    Orbital Energies [Eh]
    ---------------------

    Alpha Occupied:

       1Ap   -10.180341     2Ap   -10.167085     1App  -10.166997
       3Ap   -10.166962     4Ap    -0.797769     2App   -0.686343
       5Ap    -0.686030     6Ap    -0.530775     7Ap    -0.441141
       8Ap    -0.434770     3App   -0.434558     4App   -0.382870
       9Ap    -0.382332     5App   -0.363607     6App   -0.338433
      10Ap    -0.337562    11Ap    -0.168961

    Alpha Virtual:

      12Ap     0.076072    13Ap     0.134136     7App    0.134174
      14Ap     0.142387     8App    0.142866    15Ap     0.154881
      16Ap     0.178658     9App    0.178899    17Ap     0.203544
      10App    0.214803    18Ap     0.275753    11App    0.276217
      12App    0.399198    19Ap     0.399253    20Ap     0.403350
      13App    0.424049    21Ap     0.424146    22Ap     0.456591
      23Ap     0.495370    14App    0.495410    15App    0.512160
      24Ap     0.513978    25Ap     0.578534    16App    0.579102
      26Ap     0.591515    17App    0.591755    27Ap     0.602580
      28Ap     0.624744    18App    0.631776    29Ap     0.636011
      19App    0.636502    30Ap     0.663311    20App    0.663515
      21App    0.683656    31Ap     0.684049    32Ap     0.734993
      33Ap     0.825314    22App    0.825500    23App    0.853916
      24App    0.914931    34Ap     0.915113    25App    0.944126
      35Ap     0.944621    36Ap     0.961045    26App    0.961535
      37Ap     1.003456    38Ap     1.127721    27App    1.128467
      39Ap     1.142251    40Ap     1.162783    28App    1.163760
      41Ap     1.223321    29App    1.274169    42Ap     1.274820
      43Ap     1.279346    44Ap     1.324006    30App    1.324702
      45Ap     1.355988    31App    1.366009    46Ap     1.366099
      32App    1.392448    47Ap     1.403875    33App    1.404205
      34App    1.417093    48Ap     1.417145    35App    1.427930
      36App    1.491491    49Ap     1.499086    50Ap     1.542786
      37App    1.542878    38App    1.574277    51Ap     1.574616
      52Ap     1.669824    53Ap     1.738806    39App    1.740029
      54Ap     1.768319    55Ap     1.831331    40App    1.831446
      41App    1.971742    56Ap     2.018159    42App    2.019084
      57Ap     2.019137    58Ap     2.051753    43App    2.053556
      59Ap     2.738205    44App    2.738764    60Ap     2.790929
      45App    2.811418    61Ap     2.889660    46App    2.890239
      62Ap     2.894937    63Ap     2.929135    47App    2.929868
      48App    2.958992    49App    2.964342    64Ap     2.964420
      65Ap     3.033996    66Ap     3.070914    50App    3.071655
      51App    3.084357    67Ap     3.168631    52App    3.168849
      68Ap     3.180684    69Ap     3.284980    53App    3.285643
      54App    3.326939    70Ap     3.327381    71Ap     3.375613
      72Ap     3.489944    55App    3.490333    56App    3.514038
      73Ap     3.525347    57App    3.568265    74Ap     3.568514
      58App    3.575134    59App    3.666381    75Ap     3.666399
      76Ap     3.679668    60App    3.694081    77Ap     3.694139
      78Ap     3.775994    61App    3.777611    79Ap     3.789150
      80Ap     3.911845    62App    3.912606    81Ap     4.034448
      82Ap     4.111142    63App    4.111605    83Ap     4.147194
      64App    4.149035    84Ap     4.173255    85Ap     4.202282
      86Ap     4.202849    65App    4.203617    66App    4.210898
      87Ap     4.315823    67App    4.316108    68App    4.358953
      69App    4.424378    88Ap     4.424510    70App    4.443457
      89Ap     4.515642    71App    4.518037    72App    4.577924
      90Ap     4.578353    91Ap     4.617820    92Ap     4.709455
      93Ap     4.773550    73App    4.775663    74App    4.836900
      94Ap     4.962806    95Ap     5.002808    75App    5.003151
      96Ap     5.228040    97Ap     5.246781    76App    5.246870
      98Ap     5.355209    77App    5.355801    78App    5.479347

    Beta Occupied:

       1Ap   -10.167840     1App  -10.167751     2Ap   -10.167733
       3Ap   -10.166519     4Ap    -0.781094     2App   -0.684133
       5Ap    -0.683845     6Ap    -0.511747     7Ap    -0.431156
       3App   -0.430937     8Ap    -0.421815     4App   -0.376924
       9Ap    -0.376449     5App   -0.362590     6App   -0.333565
      10Ap    -0.332677

    Beta Virtual:

      11Ap    -0.025742    12Ap     0.077081    13Ap     0.135017
       7App    0.135072    14Ap     0.144274     8App    0.144722
      15Ap     0.163339    16Ap     0.182315     9App    0.182584
      10App    0.215032    17Ap     0.218927    18Ap     0.282133
      11App    0.282532    12App    0.400363    19Ap     0.400432
      20Ap     0.419792    13App    0.426868    21Ap     0.426949
      22Ap     0.468499    23Ap     0.497625    14App    0.497677
      15App    0.513895    24Ap     0.556323    25Ap     0.584068
      16App    0.584671    26Ap     0.597679    17App    0.597948
      27Ap     0.610004    28Ap     0.628117    18App    0.631931
      29Ap     0.639285    19App    0.639803    30Ap     0.666884
      20App    0.667070    21App    0.686287    31Ap     0.686688
      32Ap     0.757517    33Ap     0.830484    22App    0.830667
      23App    0.855270    24App    0.922874    34Ap     0.923112
      25App    0.945962    35Ap     0.953550    36Ap     0.966337
      26App    0.966856    37Ap     1.008696    38Ap     1.131751
      27App    1.132507    39Ap     1.155616    40Ap     1.167909
      28App    1.168778    41Ap     1.232295    29App    1.279825
      42Ap     1.280359    43Ap     1.285100    44Ap     1.328996
      30App    1.329690    45Ap     1.365401    31App    1.371205
      46Ap     1.371395    32App    1.393507    47Ap     1.407275
      33App    1.407734    34App    1.422128    48Ap     1.422203
      35App    1.428205    36App    1.492539    49Ap     1.509529
      37App    1.547223    50Ap     1.547257    38App    1.582227
      51Ap     1.582409    52Ap     1.674672    53Ap     1.744570
      39App    1.745788    54Ap     1.779100    55Ap     1.835171
      40App    1.835314    41App    1.972601    56Ap     2.025356
      42App    2.025518    57Ap     2.039677    58Ap     2.058514
      43App    2.060234    59Ap     2.746516    44App    2.747125
      45App    2.811830    60Ap     2.816064    61Ap     2.902429
      46App    2.902846    62Ap     2.924645    63Ap     2.931560
      47App    2.932406    48App    2.960057    49App    2.968881
      64Ap     2.968967    65Ap     3.041932    66Ap     3.080893
      50App    3.081485    51App    3.086183    67Ap     3.184132
      52App    3.184671    68Ap     3.188544    69Ap     3.289828
      53App    3.290391    54App    3.330755    70Ap     3.331175
      71Ap     3.383431    72Ap     3.492663    55App    3.493066
      56App    3.512409    73Ap     3.528394    57App    3.574994
      58App    3.581588    74Ap     3.581874    75Ap     3.671123
      59App    3.671143    76Ap     3.692958    77Ap     3.725744
      60App    3.725750    78Ap     3.780556    61App    3.782115
      79Ap     3.817674    80Ap     3.921684    62App    3.922405
      81Ap     4.045335    82Ap     4.117950    63App    4.118425
      83Ap     4.154474    64App    4.156175    84Ap     4.187314
      85Ap     4.208384    65App    4.209533    86Ap     4.210666
      66App    4.215379    87Ap     4.323224    67App    4.323587
      68App    4.362317    69App    4.432581    88Ap     4.432723
      70App    4.446355    89Ap     4.523388    71App    4.525869
      72App    4.588545    90Ap     4.588915    91Ap     4.625033
      92Ap     4.719802    93Ap     4.780487    73App    4.782634
      74App    4.839817    94Ap     4.967599    95Ap     5.006851
      75App    5.007186    96Ap     5.233756    97Ap     5.248571
      76App    5.248649    98Ap     5.361663    77App    5.362309
      78App    5.481668

    Final Occupation by Irrep:
             Ap   App
    DOCC [    10,    6 ]
    SOCC [     1,    0 ]

  @DF-UKS Final Energy:  -157.81306368790473

   => Energetics <=

    Nuclear Repulsion Energy =            125.3946633604134604
    One-Electron Energy =                -458.7489756466096082
    Two-Electron Energy =                 195.8483940153231231
    DFT Exchange-Correlation Energy =     -20.3071454170317054
    Empirical Dispersion Energy =           0.0000000000000000
    VV10 Nonlocal Energy =                  0.0000000000000000
    Total Energy =                       -157.8130636879047302

  UHF NO Occupations:
  HONO-2 :    9 Ap 1.9996009
  HONO-1 :   10 Ap 1.9989805
  HONO-0 :   11 Ap 1.0000000
  LUNO+0 :   12 Ap 0.0010195
  LUNO+1 :   13 Ap 0.0003991
  LUNO+2 :   14 Ap 0.0001985
  LUNO+3 :    7App 0.0001966

Computation Completed

Properties will be evaluated at   0.000000,   0.000000,   0.000000 [a0]

Properties computed using the SCF density matrix

  Nuclear Dipole Moment: [e a0]
     X:     0.8272      Y:     0.0108      Z:     0.0000

  Electronic Dipole Moment: [e a0]
     X:    -0.7493      Y:    -0.0119      Z:     0.0000

  Dipole Moment: [e a0]
     X:     0.0779      Y:    -0.0011      Z:     0.0000     Total:     0.0779

  Dipole Moment: [D]
     X:     0.1980      Y:    -0.0028      Z:     0.0000     Total:     0.1981

*** tstop() called on n089 at Fri Nov  5 12:30:09 2021
Module time:
	user time   =     500.17 seconds =       8.34 minutes
	system time =       4.53 seconds =       0.08 minutes
	total time  =        127 seconds =       2.12 minutes
Total time:
	user time   =     500.17 seconds =       8.34 minutes
	system time =       4.53 seconds =       0.08 minutes
	total time  =        127 seconds =       2.12 minutes
Grab this energy -157.81306368790473
    Psi4 stopped on: Friday, 05 November 2021 12:30PM
    Psi4 wall time for execution: 0:02:06.93

*** Psi4 exiting successfully. Buy a developer a beer!
