                               Psi4 1.4a2.dev629

  ==> Input File <==

--------------------------------------------------------------------------
import os
memory 14 GB

molecule {
 C   -0.3233415066   -0.0002273743   -0.0000018480
 C    0.0610552033   -1.3999826549   -2.4255905218
 C    0.0611863781    2.8040286667    0.0007968720
 C    0.0610553772   -1.4013641400    2.4247890809
 H    2.0868943041   -1.6427625906   -2.8486112177
 H   -0.7646120975   -0.3897319464   -4.0301067116
 H   -0.7662292767   -3.2889430658   -2.3460298973
 H    2.0868759201    3.2874232079    0.0015838942
 H   -0.7651034193    3.6840288796    1.6776620743
 H   -0.7664429350    3.6751640808   -1.6756328885
 H    2.0868954551   -1.6454998714    2.8470260951
 H   -0.7648813625   -3.2951191748    2.3527008968
 H   -0.7659599170   -0.3870383303    4.0214141716
units bohr
0 2
}

basis {

assign 6-31g_2dfp_

[ 6-31g_2dfp_ ]

spherical

!----------------------------------------------------------------------
! Basis Set Exchange
! Version v0.8.13
! https://www.basissetexchange.org
!----------------------------------------------------------------------
!   Basis set: 6-31G(2df,p)
! Description: 6-31G(2df,p)
!        Role: orbital
!     Version: 0  (Data from the original Basis Set Exchange)
!----------------------------------------------------------------------

****
H     0
S    3   1.00
     18.7311370              0.03349460
      2.8253937              0.23472695
      0.6401217              0.81375733
S    1   1.00
      0.1612778              1.00000000
P    1   1.00
      1.5000000              1.0000000
P    1   1.00
      0.3750000              1.0000000
****
B     0
S    6   1.00
   2068.8823000              0.0018663
    310.6495700              0.0142515
     70.6830330              0.0695516
     19.8610800              0.2325729
      6.2993048              0.4670787
      2.1270270              0.3634314
SP   3   1.00
      4.7279710             -0.1303938              0.0745976
      1.1903377             -0.1307889              0.3078467
      0.3594117              1.1309444              0.7434568
SP   1   1.00
      0.1267512              1.0000000              1.0000000
D    1   1.00
      0.8020000              1.0000000
D    1   1.00
      0.2005000              1.0000000
F    1   1.00
      0.5000000              1.0000000
****
C     0
S    6   1.00
   3047.5249000              0.0018347
    457.3695100              0.0140373
    103.9486900              0.0688426
     29.2101550              0.2321844
      9.2866630              0.4679413
      3.1639270              0.3623120
SP   3   1.00
      7.8682724             -0.1193324              0.0689991
      1.8812885             -0.1608542              0.3164240
      0.5442493              1.1434564              0.7443083
SP   1   1.00
      0.1687144              1.0000000              1.0000000
D    1   1.00
      1.2520000              1.0000000
D    1   1.00
      0.3130000              1.0000000
F    1   1.00
      0.8000000              1.0000000
****
N     0
S    6   1.00
   4173.5110000              0.0018348
    627.4579000              0.0139950
    142.9021000              0.0685870
     40.2343300              0.2322410
     12.8202100              0.4690700
      4.3904370              0.3604550
SP   3   1.00
     11.6263580             -0.1149610              0.0675800
      2.7162800             -0.1691180              0.3239070
      0.7722180              1.1458520              0.7408950
SP   1   1.00
      0.2120313              1.0000000              1.0000000
D    1   1.00
      1.8260000              1.0000000
D    1   1.00
      0.4565000              1.0000000
F    1   1.00
      1.0000000              1.0000000
****
O     0
S    6   1.00
   5484.6717000              0.0018311
    825.2349500              0.0139501
    188.0469600              0.0684451
     52.9645000              0.2327143
     16.8975700              0.4701930
      5.7996353              0.3585209
SP   3   1.00
     15.5396160             -0.1107775              0.0708743
      3.5999336             -0.1480263              0.3397528
      1.0137618              1.1307670              0.7271586
SP   1   1.00
      0.2700058              1.0000000              1.0000000
D    1   1.00
      2.5840000              1.0000000
D    1   1.00
      0.6460000              1.0000000
F    1   1.00
      1.4000000              1.0000000
****
F     0
S    6   1.00
   7001.7130900              0.0018196169
   1051.3660900              0.0139160796
    239.2856900              0.0684053245
     67.3974453              0.233185760
     21.5199573              0.471267439
      7.40310130             0.356618546
SP   3   1.00
     20.8479528             -0.108506975            0.0716287243
      4.80830834            -0.146451658            0.3459121030
      1.34406986             1.128688580            0.7224699570
SP   1   1.00
      0.358151393            1.0000000              1.0000000
D    1   1.00
      3.5000000              1.0000000
D    1   1.00
      0.8750000              1.0000000
F    1   1.00
      1.8500000              1.0000000
****
Al     0
S    6   1.00
  13983.1000000              0.00194267
   2098.7500000              0.0148599
    477.7050000              0.0728494
    134.3600000              0.2468300
     42.8709000              0.4872580
     14.5189000              0.3234960
SP   6   1.00
    239.6680000             -0.00292619             0.00460285
     57.4419000             -0.0374080              0.0331990
     18.2859000             -0.1144870              0.1362820
      6.5991400              0.1156350              0.3304760
      2.4904900              0.6125950              0.4491460
      0.9445400              0.3937990              0.2657040
SP   3   1.00
      1.2779000             -0.2276060             -0.0175130
      0.3975900              0.00144583             0.2445330
      0.1600950              1.0927900              0.8049340
SP   1   1.00
      0.0556577              1.0000000              1.0000000
D    1   1.00
      0.6500000              1.0000000
D    1   1.00
      0.1625000              1.0000000
F    1   1.00
      0.2500000              1.0000000
****
Si     0
S    6   1.00
  16115.9000000              0.00195948
   2425.5800000              0.01492880
    553.8670000              0.07284780
    156.3400000              0.24613000
     50.0683000              0.48591400
     17.0178000              0.32500200
SP   6   1.00
    292.7180000             -0.00278094             0.00443826
     69.8731000             -0.03571460             0.03266790
     22.3363000             -0.11498500             0.13472100
      8.1503900              0.09356340             0.32867800
      3.1345800              0.60301700             0.44964000
      1.2254300              0.41895900             0.26137200
SP   3   1.00
      1.7273800             -0.24463000            -0.01779510
      0.5729220              0.00431572             0.25353900
      0.2221920              1.09818000             0.80066900
SP   1   1.00
      0.0778369              1.00000000             1.00000000
D    1   1.00
      0.9000000              1.0000000
D    1   1.00
      0.2250000              1.0000000
F    1   1.00
      0.3200000              1.0000000
****
P     0
S    6   1.00
  19413.3000000              0.0018516
   2909.4200000              0.0142062
    661.3640000              0.0699995
    185.7590000              0.2400790
     59.1943000              0.4847620
     20.0310000              0.3352000
SP   6   1.00
    339.4780000             -0.00278217             0.00456462
     81.0101000             -0.0360499              0.03369360
     25.8780000             -0.1166310              0.13975500
      9.4522100              0.0968328              0.33936200
      3.6656600              0.6144180              0.45092100
      1.4674600              0.4037980              0.23858600
SP   3   1.00
      2.1562300             -0.2529230             -0.01776530
      0.7489970              0.0328517              0.27405800
      0.2831450              1.0812500              0.78542100
SP   1   1.00
      0.0998317              1.0000000              1.00000000
D    1   1.00
      1.1000000              1.0000000
D    1   1.00
      0.2750000              1.0000000
F    1   1.00
      0.4500000              1.0000000
****
S     0
S    6   1.00
  21917.1000000              0.0018690
   3301.4900000              0.0142300
    754.1460000              0.0696960
    212.7110000              0.2384870
     67.9896000              0.4833070
     23.0515000              0.3380740
SP   6   1.00
    423.7350000             -0.0023767              0.0040610
    100.7100000             -0.0316930              0.0306810
     32.1599000             -0.1133170              0.1304520
     11.8079000              0.0560900              0.3272050
      4.6311000              0.5922550              0.4528510
      1.8702500              0.4550060              0.2560420
SP   3   1.00
      2.6158400             -0.2503740             -0.0145110
      0.9221670              0.0669570              0.3102630
      0.3412870              1.0545100              0.7544830
SP   1   1.00
      0.1171670              1.0000000              1.0000000
D    1   1.00
      1.3000000              1.0000000
D    1   1.00
      0.3250000              1.0000000
F    1   1.00
      0.5500000              1.0000000
****
Cl     0
S    6   1.00
  25180.1000000              0.0018330
   3780.3500000              0.0140340
    860.4740000              0.0690970
    242.1450000              0.2374520
     77.3349000              0.4830340
     26.2470000              0.3398560
SP   6   1.00
    491.7650000             -0.0022974              0.0039894
    116.9840000             -0.0307140              0.0303180
     37.4153000             -0.1125280              0.1298800
     13.7834000              0.0450160              0.3279510
      5.4521500              0.5893530              0.4535270
      2.2258800              0.4652060              0.2521540
SP   3   1.00
      3.1864900             -0.2518300             -0.0142990
      1.1442700              0.0615890              0.3235720
      0.4203770              1.0601800              0.7435070
SP   1   1.00
      0.1426570              1.0000000              1.0000000
D    1   1.00
      1.5000000              1.0000000
D    1   1.00
      0.3750000              1.0000000
F    1   1.00
      0.7000000              1.0000000
****
}

set {
reference uhf
freeze_core true
e_convergence 10
d_convergence 10
dft_spherical_points 1202
dft_radial_points 99
}

e = energy('b3lyp')

print_out('Grab this energy {0}'.format(e))
--------------------------------------------------------------------------

    Molecular point group: c1

    Geometry (in Bohr), charge = 0, multiplicity = 2:

       Center              X                  Y                   Z               Mass
    ------------   -----------------  -----------------  -----------------  -----------------
         C           -0.323340627703    -0.000699698837    -0.000000612059    12.000000000000
         C            0.061056082197    -1.400454979437    -2.425589285859    12.000000000000
         C            0.061187256997     2.803556342163     0.000798107941    12.000000000000
         C            0.061056256097    -1.401836464537     2.424790316841    12.000000000000
         H            2.086895182997    -1.643234915137    -2.848609981759     1.007825032230
         H           -0.764611218603    -0.390204270937    -4.030105475659     1.007825032230
         H           -0.766228397803    -3.289415390337    -2.346028661359     1.007825032230
         H            2.086876798997     3.286950883363     0.001585130141     1.007825032230
         H           -0.765102540403     3.683556555063     1.677663310241     1.007825032230
         H           -0.766442056103     3.674691756263    -1.675631652559     1.007825032230
         H            2.086896333997    -1.645972195937     2.847027331041     1.007825032230
         H           -0.764880483603    -3.295591499337     2.352702132741     1.007825032230
         H           -0.765959038103    -0.387510654837     4.021415407541     1.007825032230

  Charge       = 0
  Multiplicity = 2
  Basis Set: ANONYMOUSEC7892D7
    Blend: 6-31G_2DFP_
  Basis Set: (ANONYMOUSEC7892D7 AUX)
    Blend: DEF2-UNIVERSAL-JKFIT

    Orbital Energies [Eh]
    ---------------------

    Alpha Occupied:

       1A    -10.180342     2A    -10.167051     3A    -10.167029
       4A    -10.166965     5A     -0.797767     6A     -0.686211
       7A     -0.686163     8A     -0.530776     9A     -0.441124
      10A     -0.434755    11A     -0.434590    12A     -0.382689
      13A     -0.382507    14A     -0.363611    15A     -0.338205
      16A     -0.337790    17A     -0.168961

    Alpha Virtual:

      18A      0.076073    19A      0.134136    20A      0.134171
      21A      0.142565    22A      0.142694    23A      0.154880
      24A      0.178697    25A      0.178861    26A      0.203527
      27A      0.214819    28A      0.275761    29A      0.276209
      30A      0.399215    31A      0.399241    32A      0.403345
      33A      0.424054    34A      0.424142    35A      0.456593
      36A      0.495367    37A      0.495413    38A      0.512160
      39A      0.513981    40A      0.578772    41A      0.578857
      42A      0.591574    43A      0.591698    44A      0.602572
      45A      0.624687    46A      0.631850    47A      0.636084
      48A      0.636414    49A      0.663350    50A      0.663472
      51A      0.683833    52A      0.683873    53A      0.734993
      54A      0.825352    55A      0.825464    56A      0.853916
      57A      0.915013    58A      0.915038    59A      0.944020
      60A      0.944703    61A      0.961251    62A      0.961334
      63A      1.003466    64A      1.128018    65A      1.128189
      66A      1.142223    67A      1.162979    68A      1.163561
      69A      1.223325    70A      1.274178    71A      1.274802
      72A      1.279367    73A      1.324293    74A      1.324419
      75A      1.355975    76A      1.365902    77A      1.366200
      78A      1.392459    79A      1.403849    80A      1.404200
      81A      1.416980    82A      1.417277    83A      1.427928
      84A      1.491491    85A      1.499084    86A      1.542759
      87A      1.542900    88A      1.574250    89A      1.574640
      90A      1.669829    91A      1.739293    92A      1.739558
      93A      1.768317    94A      1.830891    95A      1.831907
      96A      1.971729    97A      2.018165    98A      2.018641
      99A      2.019591   100A      2.051969   101A      2.053320
     102A      2.738364   103A      2.738607   104A      2.790920
     105A      2.811429   106A      2.889870   107A      2.890037
     108A      2.894944   109A      2.929432   110A      2.929561
     111A      2.958996   112A      2.964290   113A      2.964463
     114A      3.034013   115A      3.071143   116A      3.071427
     117A      3.084346   118A      3.168567   119A      3.168978
     120A      3.180605   121A      3.285291   122A      3.285314
     123A      3.326984   124A      3.327366   125A      3.375612
     126A      3.489827   127A      3.490465   128A      3.513929
     129A      3.525419   130A      3.568317   131A      3.568462
     132A      3.575146   133A      3.665713   134A      3.667035
     135A      3.679666   136A      3.693978   137A      3.694245
     138A      3.776626   139A      3.777011   140A      3.789119
     141A      3.911488   142A      3.912994   143A      4.034458
     144A      4.111213   145A      4.111527   146A      4.147818
     147A      4.148428   148A      4.173233   149A      4.202258
     150A      4.203072   151A      4.203456   152A      4.210871
     153A      4.315225   154A      4.316672   155A      4.358963
     156A      4.423525   157A      4.425294   158A      4.443543
     159A      4.516183   160A      4.517503   161A      4.578247
     162A      4.578287   163A      4.617550   164A      4.709429
     165A      4.774249   166A      4.774899   167A      4.836933
     168A      4.962856   169A      5.002239   170A      5.003711
     171A      5.228039   172A      5.246618   173A      5.247016
     174A      5.355434   175A      5.355574   176A      5.479347

    Beta Occupied:

       1A    -10.167806     2A    -10.167791     3A    -10.167727
       4A    -10.166520     5A     -0.781092     6A     -0.684019
       7A     -0.683961     8A     -0.511747     9A     -0.431127
      10A     -0.430960    11A     -0.421823    12A     -0.376793
      13A     -0.376572    14A     -0.362595    15A     -0.333330
      16A     -0.332912

    Beta Virtual:

      17A     -0.025743    18A      0.077082    19A      0.135038
      20A      0.135048    21A      0.144452    22A      0.144548
      23A      0.163339    24A      0.182381    25A      0.182520
      26A      0.214983    27A      0.218975    28A      0.282118
      29A      0.282548    30A      0.400389    31A      0.400407
      32A      0.419791    33A      0.426864    34A      0.426954
      35A      0.468501    36A      0.497622    37A      0.497679
      38A      0.513896    39A      0.556325    40A      0.584317
      41A      0.584412    42A      0.597754    43A      0.597877
      44A      0.609996    45A      0.628006    46A      0.632063
      47A      0.639375    48A      0.639693    49A      0.666907
      50A      0.667042    51A      0.686480    52A      0.686495
      53A      0.757516    54A      0.830516    55A      0.830637
      56A      0.855269    57A      0.922983    58A      0.923011
      59A      0.945938    60A      0.953551    61A      0.966561
      62A      0.966636    63A      1.008705    64A      1.132055
      65A      1.132210    66A      1.155595    67A      1.168039
      68A      1.168654    69A      1.232297    70A      1.279771
      71A      1.280401    72A      1.285120    73A      1.329296
      74A      1.329395    75A      1.365389    76A      1.371172
      77A      1.371414    78A      1.393520    79A      1.407369
      80A      1.407620    81A      1.422045    82A      1.422299
      83A      1.428204    84A      1.492541    85A      1.509526
      86A      1.547157    87A      1.547317    88A      1.582117
      89A      1.582516    90A      1.674676    91A      1.745050
      92A      1.745322    93A      1.779098    94A      1.834756
      95A      1.835752    96A      1.972591    97A      2.024903
      98A      2.026002    99A      2.039664   100A      2.058689
     101A      2.060035   102A      2.746721   103A      2.746920
     104A      2.811831   105A      2.816065   106A      2.902585
     107A      2.902702   108A      2.924641   109A      2.931931
     110A      2.932025   111A      2.960062   112A      2.968821
     113A      2.969022   114A      3.041948   115A      3.081056
     116A      3.081330   117A      3.086167   118A      3.184260
     119A      3.184744   120A      3.188329   121A      3.290081
     122A      3.290119   123A      3.330798   124A      3.331163
     125A      3.383429   126A      3.492536   127A      3.493217
     128A      3.512319   129A      3.528441   130A      3.575004
     131A      3.581635   132A      3.581818   133A      3.670429
     134A      3.671819   135A      3.692958   136A      3.725606
     137A      3.725884   138A      3.781109   139A      3.781581
     140A      3.817665   141A      3.921355   142A      3.922760
     143A      4.045346   144A      4.117927   145A      4.118443
     146A      4.155123   147A      4.155540   148A      4.187290
     149A      4.208533   150A      4.209399   151A      4.210691
     152A      4.215354   153A      4.322638   154A      4.324139
     155A      4.362328   156A      4.431774   157A      4.433444
     158A      4.446459   159A      4.523979   160A      4.525286
     161A      4.588832   162A      4.588906   163A      4.624742
     164A      4.719772   165A      4.781220   166A      4.781833
     167A      4.839855   168A      4.967650   169A      5.006293
     170A      5.007735   171A      5.233755   172A      5.248410
     173A      5.248793   174A      5.361893   175A      5.362076
     176A      5.481668

    Final Occupation by Irrep:
              A
    DOCC [    16 ]
    SOCC [     1 ]

  @DF-UKS Final Energy:  -157.81306586501390

   => Energetics <=

    Nuclear Repulsion Energy =            125.3945958854893377
    One-Electron Energy =                -458.7488458416567596
    Two-Electron Energy =                 195.8483270347986434
    DFT Exchange-Correlation Energy =     -20.3071429436450934
    Empirical Dispersion Energy =           0.0000000000000000
    VV10 Nonlocal Energy =                  0.0000000000000000
    Total Energy =                       -157.8130658650138969

  UHF NO Occupations:
  HONO-2 :   15  A 1.9996009
  HONO-1 :   16  A 1.9989804
  HONO-0 :   17  A 1.0000000
  LUNO+0 :   18  A 0.0010196
  LUNO+1 :   19  A 0.0003991
  LUNO+2 :   20  A 0.0001979
  LUNO+3 :   21  A 0.0001972

Computation Completed

Properties will be evaluated at   0.000000,   0.000000,   0.000000 [a0]

Properties computed using the SCF density matrix

  Nuclear Dipole Moment: [e a0]
     X:     0.8272      Y:    -0.0033      Z:     0.0000

  Electronic Dipole Moment: [e a0]
     X:    -0.7493      Y:     0.0034      Z:    -0.0000

  Dipole Moment: [e a0]
     X:     0.0779      Y:     0.0001      Z:     0.0000     Total:     0.0779

  Dipole Moment: [D]
     X:     0.1980      Y:     0.0002      Z:     0.0000     Total:     0.1980

*** tstop() called on n061 at Fri Nov  5 13:01:58 2021
Module time:
	user time   =     506.86 seconds =       8.45 minutes
	system time =      11.15 seconds =       0.19 minutes
	total time  =        131 seconds =       2.18 minutes
Total time:
	user time   =     506.86 seconds =       8.45 minutes
	system time =      11.15 seconds =       0.19 minutes
	total time  =        131 seconds =       2.18 minutes
Grab this energy -157.8130658650139
    Psi4 stopped on: Friday, 05 November 2021 01:01PM
    Psi4 wall time for execution: 0:02:10.43

*** Psi4 exiting successfully. Buy a developer a beer!
