                               Psi4 1.4a2.dev629

  ==> Input File <==

--------------------------------------------------------------------------
import os
memory 14 GB

molecule {
 C   -0.3233399683   -0.0002578233   -0.0002466352
 C    0.0591536855   -1.4004195081   -2.4267727654
 C    0.0630714913    2.8017515056    0.0001484518
 C    0.0610780525   -1.4001855744    2.4266603900
 H    2.0842225351   -1.6424379766   -2.8423040804
 H   -0.7661382476   -0.3890309822   -4.0275780086
 H   -0.7670299590   -3.2938290056   -2.3520446485
 H    2.0865971480    3.2881094852    0.0018519862
 H   -0.7672521597    3.6816562518    1.6757137663
 H   -0.7653260025    3.6788191569   -1.6768631689
 H    2.0898428802   -1.6461106138    2.8523751176
 H   -0.7632235015   -3.2905628621    2.3456324852
 H   -0.7642638307   -0.3875263670    4.0234271100
units bohr
0 2
}

basis {

assign 6-31g_2dfp_

[ 6-31g_2dfp_ ]

spherical

!----------------------------------------------------------------------
! Basis Set Exchange
! Version v0.8.13
! https://www.basissetexchange.org
!----------------------------------------------------------------------
!   Basis set: 6-31G(2df,p)
! Description: 6-31G(2df,p)
!        Role: orbital
!     Version: 0  (Data from the original Basis Set Exchange)
!----------------------------------------------------------------------

****
H     0
S    3   1.00
     18.7311370              0.03349460
      2.8253937              0.23472695
      0.6401217              0.81375733
S    1   1.00
      0.1612778              1.00000000
P    1   1.00
      1.5000000              1.0000000
P    1   1.00
      0.3750000              1.0000000
****
B     0
S    6   1.00
   2068.8823000              0.0018663
    310.6495700              0.0142515
     70.6830330              0.0695516
     19.8610800              0.2325729
      6.2993048              0.4670787
      2.1270270              0.3634314
SP   3   1.00
      4.7279710             -0.1303938              0.0745976
      1.1903377             -0.1307889              0.3078467
      0.3594117              1.1309444              0.7434568
SP   1   1.00
      0.1267512              1.0000000              1.0000000
D    1   1.00
      0.8020000              1.0000000
D    1   1.00
      0.2005000              1.0000000
F    1   1.00
      0.5000000              1.0000000
****
C     0
S    6   1.00
   3047.5249000              0.0018347
    457.3695100              0.0140373
    103.9486900              0.0688426
     29.2101550              0.2321844
      9.2866630              0.4679413
      3.1639270              0.3623120
SP   3   1.00
      7.8682724             -0.1193324              0.0689991
      1.8812885             -0.1608542              0.3164240
      0.5442493              1.1434564              0.7443083
SP   1   1.00
      0.1687144              1.0000000              1.0000000
D    1   1.00
      1.2520000              1.0000000
D    1   1.00
      0.3130000              1.0000000
F    1   1.00
      0.8000000              1.0000000
****
N     0
S    6   1.00
   4173.5110000              0.0018348
    627.4579000              0.0139950
    142.9021000              0.0685870
     40.2343300              0.2322410
     12.8202100              0.4690700
      4.3904370              0.3604550
SP   3   1.00
     11.6263580             -0.1149610              0.0675800
      2.7162800             -0.1691180              0.3239070
      0.7722180              1.1458520              0.7408950
SP   1   1.00
      0.2120313              1.0000000              1.0000000
D    1   1.00
      1.8260000              1.0000000
D    1   1.00
      0.4565000              1.0000000
F    1   1.00
      1.0000000              1.0000000
****
O     0
S    6   1.00
   5484.6717000              0.0018311
    825.2349500              0.0139501
    188.0469600              0.0684451
     52.9645000              0.2327143
     16.8975700              0.4701930
      5.7996353              0.3585209
SP   3   1.00
     15.5396160             -0.1107775              0.0708743
      3.5999336             -0.1480263              0.3397528
      1.0137618              1.1307670              0.7271586
SP   1   1.00
      0.2700058              1.0000000              1.0000000
D    1   1.00
      2.5840000              1.0000000
D    1   1.00
      0.6460000              1.0000000
F    1   1.00
      1.4000000              1.0000000
****
F     0
S    6   1.00
   7001.7130900              0.0018196169
   1051.3660900              0.0139160796
    239.2856900              0.0684053245
     67.3974453              0.233185760
     21.5199573              0.471267439
      7.40310130             0.356618546
SP   3   1.00
     20.8479528             -0.108506975            0.0716287243
      4.80830834            -0.146451658            0.3459121030
      1.34406986             1.128688580            0.7224699570
SP   1   1.00
      0.358151393            1.0000000              1.0000000
D    1   1.00
      3.5000000              1.0000000
D    1   1.00
      0.8750000              1.0000000
F    1   1.00
      1.8500000              1.0000000
****
Al     0
S    6   1.00
  13983.1000000              0.00194267
   2098.7500000              0.0148599
    477.7050000              0.0728494
    134.3600000              0.2468300
     42.8709000              0.4872580
     14.5189000              0.3234960
SP   6   1.00
    239.6680000             -0.00292619             0.00460285
     57.4419000             -0.0374080              0.0331990
     18.2859000             -0.1144870              0.1362820
      6.5991400              0.1156350              0.3304760
      2.4904900              0.6125950              0.4491460
      0.9445400              0.3937990              0.2657040
SP   3   1.00
      1.2779000             -0.2276060             -0.0175130
      0.3975900              0.00144583             0.2445330
      0.1600950              1.0927900              0.8049340
SP   1   1.00
      0.0556577              1.0000000              1.0000000
D    1   1.00
      0.6500000              1.0000000
D    1   1.00
      0.1625000              1.0000000
F    1   1.00
      0.2500000              1.0000000
****
Si     0
S    6   1.00
  16115.9000000              0.00195948
   2425.5800000              0.01492880
    553.8670000              0.07284780
    156.3400000              0.24613000
     50.0683000              0.48591400
     17.0178000              0.32500200
SP   6   1.00
    292.7180000             -0.00278094             0.00443826
     69.8731000             -0.03571460             0.03266790
     22.3363000             -0.11498500             0.13472100
      8.1503900              0.09356340             0.32867800
      3.1345800              0.60301700             0.44964000
      1.2254300              0.41895900             0.26137200
SP   3   1.00
      1.7273800             -0.24463000            -0.01779510
      0.5729220              0.00431572             0.25353900
      0.2221920              1.09818000             0.80066900
SP   1   1.00
      0.0778369              1.00000000             1.00000000
D    1   1.00
      0.9000000              1.0000000
D    1   1.00
      0.2250000              1.0000000
F    1   1.00
      0.3200000              1.0000000
****
P     0
S    6   1.00
  19413.3000000              0.0018516
   2909.4200000              0.0142062
    661.3640000              0.0699995
    185.7590000              0.2400790
     59.1943000              0.4847620
     20.0310000              0.3352000
SP   6   1.00
    339.4780000             -0.00278217             0.00456462
     81.0101000             -0.0360499              0.03369360
     25.8780000             -0.1166310              0.13975500
      9.4522100              0.0968328              0.33936200
      3.6656600              0.6144180              0.45092100
      1.4674600              0.4037980              0.23858600
SP   3   1.00
      2.1562300             -0.2529230             -0.01776530
      0.7489970              0.0328517              0.27405800
      0.2831450              1.0812500              0.78542100
SP   1   1.00
      0.0998317              1.0000000              1.00000000
D    1   1.00
      1.1000000              1.0000000
D    1   1.00
      0.2750000              1.0000000
F    1   1.00
      0.4500000              1.0000000
****
S     0
S    6   1.00
  21917.1000000              0.0018690
   3301.4900000              0.0142300
    754.1460000              0.0696960
    212.7110000              0.2384870
     67.9896000              0.4833070
     23.0515000              0.3380740
SP   6   1.00
    423.7350000             -0.0023767              0.0040610
    100.7100000             -0.0316930              0.0306810
     32.1599000             -0.1133170              0.1304520
     11.8079000              0.0560900              0.3272050
      4.6311000              0.5922550              0.4528510
      1.8702500              0.4550060              0.2560420
SP   3   1.00
      2.6158400             -0.2503740             -0.0145110
      0.9221670              0.0669570              0.3102630
      0.3412870              1.0545100              0.7544830
SP   1   1.00
      0.1171670              1.0000000              1.0000000
D    1   1.00
      1.3000000              1.0000000
D    1   1.00
      0.3250000              1.0000000
F    1   1.00
      0.5500000              1.0000000
****
Cl     0
S    6   1.00
  25180.1000000              0.0018330
   3780.3500000              0.0140340
    860.4740000              0.0690970
    242.1450000              0.2374520
     77.3349000              0.4830340
     26.2470000              0.3398560
SP   6   1.00
    491.7650000             -0.0022974              0.0039894
    116.9840000             -0.0307140              0.0303180
     37.4153000             -0.1125280              0.1298800
     13.7834000              0.0450160              0.3279510
      5.4521500              0.5893530              0.4535270
      2.2258800              0.4652060              0.2521540
SP   3   1.00
      3.1864900             -0.2518300             -0.0142990
      1.1442700              0.0615890              0.3235720
      0.4203770              1.0601800              0.7435070
SP   1   1.00
      0.1426570              1.0000000              1.0000000
D    1   1.00
      1.5000000              1.0000000
D    1   1.00
      0.3750000              1.0000000
F    1   1.00
      0.7000000              1.0000000
****
}

set {
reference uhf
freeze_core true
e_convergence 10
d_convergence 10
dft_spherical_points 1202
dft_radial_points 99
}

e = energy('b3lyp')

print_out('Grab this energy {0}'.format(e))
--------------------------------------------------------------------------

    Molecular point group: c1

    Geometry (in Bohr), charge = 0, multiplicity = 2:

       Center              X                  Y                   Z               Mass
    ------------   -----------------  -----------------  -----------------  -----------------
         C           -0.323340593473    -0.000428544660    -0.000206080060    12.000000000000
         C            0.059153060327    -1.400590229460    -2.426732210260    12.000000000000
         C            0.063070866127     2.801580784240     0.000189006940    12.000000000000
         C            0.061077427327    -1.400356295760     2.426700945140    12.000000000000
         H            2.084221909927    -1.642608697960    -2.842263525260     1.007825032230
         H           -0.766138872773    -0.389201703560    -4.027537453460     1.007825032230
         H           -0.767030584173    -3.293999726960    -2.352004093360     1.007825032230
         H            2.086596522827     3.287938763840     0.001892541340     1.007825032230
         H           -0.767252784873     3.681485530440     1.675754321440     1.007825032230
         H           -0.765326627673     3.678648435540    -1.676822613760     1.007825032230
         H            2.089842255027    -1.646281335160     2.852415672740     1.007825032230
         H           -0.763224126673    -3.290733583460     2.345673040340     1.007825032230
         H           -0.764264455873    -0.387697088360     4.023467665140     1.007825032230

  Charge       = 0
  Multiplicity = 2
  Basis Set: ANONYMOUS137249E6
    Blend: 6-31G_2DFP_
  Basis Set: (ANONYMOUS137249E6 AUX)
    Blend: DEF2-UNIVERSAL-JKFIT

    Orbital Energies [Eh]
    ---------------------

    Alpha Occupied:

       1A    -10.180342     2A    -10.167066     3A    -10.167010
       4A    -10.166969     5A     -0.797766     6A     -0.686231
       7A     -0.686143     8A     -0.530776     9A     -0.441127
      10A     -0.434804    11A     -0.434538    12A     -0.382870
      13A     -0.382326    14A     -0.363611    15A     -0.338173
      16A     -0.337824    17A     -0.168961

    Alpha Virtual:

      18A      0.076073    19A      0.134096    20A      0.134214
      21A      0.142412    22A      0.142842    23A      0.154880
      24A      0.178599    25A      0.178954    26A      0.203551
      27A      0.214802    28A      0.275927    29A      0.276043
      30A      0.399023    31A      0.399430    32A      0.403347
      33A      0.423984    34A      0.424211    35A      0.456594
      36A      0.495358    37A      0.495420    38A      0.512162
      39A      0.513981    40A      0.578660    41A      0.578963
      42A      0.591329    43A      0.591919    44A      0.602602
      45A      0.624762    46A      0.631749    47A      0.636005
      48A      0.636516    49A      0.663240    50A      0.663589
      51A      0.683664    52A      0.684040    53A      0.734994
      54A      0.825346    55A      0.825467    56A      0.853916
      57A      0.914706    58A      0.915343    59A      0.944109
      60A      0.944613    61A      0.961182    62A      0.961424
      63A      1.003451    64A      1.127691    65A      1.128527
      66A      1.142203    67A      1.163100    68A      1.163452
      69A      1.223324    70A      1.274302    71A      1.274665
      72A      1.279372    73A      1.324093    74A      1.324615
      75A      1.355968    76A      1.365752    77A      1.366371
      78A      1.392448    79A      1.403545    80A      1.404552
      81A      1.416663    82A      1.417546    83A      1.427927
      84A      1.491501    85A      1.499063    86A      1.542801
      87A      1.542865    88A      1.573942    89A      1.574969
      90A      1.669831    91A      1.738992    92A      1.739827
      93A      1.768337    94A      1.830925    95A      1.831872
      96A      1.971724    97A      2.018253    98A      2.018437
      99A      2.019710   100A      2.052051   101A      2.053230
     102A      2.738446   103A      2.738526   104A      2.790928
     105A      2.811429   106A      2.889636   107A      2.890239
     108A      2.894980   109A      2.929185   110A      2.929807
     111A      2.958991   112A      2.964170   113A      2.964588
     114A      3.034003   115A      3.070627   116A      3.071937
     117A      3.084358   118A      3.168526   119A      3.169041
     120A      3.180580   121A      3.285197   122A      3.285434
     123A      3.326279   124A      3.328052   125A      3.375619
     126A      3.489058   127A      3.491263   128A      3.514010
     129A      3.525332   130A      3.568233   131A      3.568396
     132A      3.575294   133A      3.665841   134A      3.666914
     135A      3.679661   136A      3.693461   137A      3.694769
     138A      3.776731   139A      3.776866   140A      3.789171
     141A      3.912074   142A      3.912381   143A      4.034448
     144A      4.111208   145A      4.111528   146A      4.148053
     147A      4.148179   148A      4.173246   149A      4.202009
     150A      4.203319   151A      4.203477   152A      4.210839
     153A      4.315471   154A      4.316441   155A      4.358986
     156A      4.424315   157A      4.424617   158A      4.443400
     159A      4.515573   160A      4.518085   161A      4.578079
     162A      4.578486   163A      4.617582   164A      4.709394
     165A      4.773838   166A      4.775365   167A      4.836920
     168A      4.962864   169A      5.002230   170A      5.003663
     171A      5.228074   172A      5.246263   173A      5.247360
     174A      5.355232   175A      5.355791   176A      5.479346

    Beta Occupied:

       1A    -10.167819     2A    -10.167768     3A    -10.167737
       4A    -10.166520     5A     -0.781091     6A     -0.684031
       7A     -0.683949     8A     -0.511747     9A     -0.431188
      10A     -0.430898    11A     -0.421823    12A     -0.376965
      13A     -0.376400    14A     -0.362595    15A     -0.333287
      16A     -0.332956

    Beta Virtual:

      17A     -0.025743    18A      0.077082    19A      0.134997
      20A      0.135093    21A      0.144306    22A      0.144691
      23A      0.163339    24A      0.182267    25A      0.182630
      26A      0.215031    27A      0.218932    28A      0.282276
      29A      0.282390    30A      0.400196    31A      0.400598
      32A      0.419791    33A      0.426793    34A      0.427024
      35A      0.468502    36A      0.497621    37A      0.497679
      38A      0.513897    39A      0.556325    40A      0.584209
      41A      0.584516    42A      0.597505    43A      0.598105
      44A      0.610020    45A      0.628138    46A      0.631915
      47A      0.639292    48A      0.639791    49A      0.666816
      50A      0.667140    51A      0.686306    52A      0.686668
      53A      0.757517    54A      0.830517    55A      0.830632
      56A      0.855269    57A      0.922703    58A      0.923289
      59A      0.945948    60A      0.953539    61A      0.966491
      62A      0.966726    63A      1.008691    64A      1.131751
      65A      1.132522    66A      1.155575    67A      1.168162
      68A      1.168543    69A      1.232296    70A      1.279906
      71A      1.280258    72A      1.285124    73A      1.329071
      74A      1.329615    75A      1.365370    76A      1.370994
      77A      1.371630    78A      1.393507    79A      1.407000
      80A      1.408026    81A      1.421721    82A      1.422573
      83A      1.428210    84A      1.492549    85A      1.509503
      86A      1.547125    87A      1.547366    88A      1.581737
      89A      1.582913    90A      1.674678    91A      1.744763
      92A      1.745581    93A      1.779115    94A      1.834785
      95A      1.835723    96A      1.972584    97A      2.024813
      98A      2.026086    99A      2.039678   100A      2.058773
     101A      2.059939   102A      2.746780   103A      2.746864
     104A      2.811841   105A      2.816063   106A      2.902319
     107A      2.902963   108A      2.924656   109A      2.931678
     110A      2.932277   111A      2.960058   112A      2.968715
     113A      2.969128   114A      3.041938   115A      3.080489
     116A      3.081885   117A      3.086184   118A      3.184283
     119A      3.184783   120A      3.188264   121A      3.289961
     122A      3.290267   123A      3.330092   124A      3.331848
     125A      3.383437   126A      3.491810   127A      3.493971
     128A      3.512375   129A      3.528378   130A      3.574885
     131A      3.581625   132A      3.581951   133A      3.670638
     134A      3.671614   135A      3.692948   136A      3.725316
     137A      3.726194   138A      3.781290   139A      3.781366
     140A      3.817700   141A      3.921876   142A      3.922212
     143A      4.045336   144A      4.118075   145A      4.118295
     146A      4.155172   147A      4.155476   148A      4.187305
     149A      4.208426   150A      4.209402   151A      4.210821
     152A      4.215311   153A      4.322901   154A      4.323891
     155A      4.362350   156A      4.432531   157A      4.432831
     158A      4.446283   159A      4.523371   160A      4.525867
     161A      4.588693   162A      4.589074   163A      4.624774
     164A      4.719738   165A      4.780781   166A      4.782330
     167A      4.839837   168A      4.967659   169A      5.006293
     170A      5.007680   171A      5.233790   172A      5.248049
     173A      5.249142   174A      5.361715   175A      5.362269
     176A      5.481667

    Final Occupation by Irrep:
              A
    DOCC [    16 ]
    SOCC [     1 ]

  @DF-UKS Final Energy:  -157.81306553142971

   => Energetics <=

    Nuclear Repulsion Energy =            125.3946132676228302
    One-Electron Energy =                -458.7488780813988001
    Two-Electron Energy =                 195.8483425646609248
    DFT Exchange-Correlation Energy =     -20.3071432823146765
    Empirical Dispersion Energy =           0.0000000000000000
    VV10 Nonlocal Energy =                  0.0000000000000000
    Total Energy =                       -157.8130655314297144

  UHF NO Occupations:
  HONO-2 :   15  A 1.9996008
  HONO-1 :   16  A 1.9989805
  HONO-0 :   17  A 1.0000000
  LUNO+0 :   18  A 0.0010195
  LUNO+1 :   19  A 0.0003992
  LUNO+2 :   20  A 0.0001977
  LUNO+3 :   21  A 0.0001974

Computation Completed

Properties will be evaluated at   0.000000,   0.000000,   0.000000 [a0]

Properties computed using the SCF density matrix

  Nuclear Dipole Moment: [e a0]
     X:     0.8272      Y:    -0.0012      Z:     0.0003

  Electronic Dipole Moment: [e a0]
     X:    -0.7493      Y:     0.0011      Z:    -0.0011

  Dipole Moment: [e a0]
     X:     0.0779      Y:    -0.0001      Z:    -0.0008     Total:     0.0779

  Dipole Moment: [D]
     X:     0.1980      Y:    -0.0003      Z:    -0.0020     Total:     0.1980

*** tstop() called on n082 at Fri Nov  5 12:35:23 2021
Module time:
	user time   =     494.82 seconds =       8.25 minutes
	system time =       4.56 seconds =       0.08 minutes
	total time  =        126 seconds =       2.10 minutes
Total time:
	user time   =     494.82 seconds =       8.25 minutes
	system time =       4.56 seconds =       0.08 minutes
	total time  =        126 seconds =       2.10 minutes
Grab this energy -157.81306553142971
    Psi4 stopped on: Friday, 05 November 2021 12:35PM
    Psi4 wall time for execution: 0:02:05.57

*** Psi4 exiting successfully. Buy a developer a beer!
