                               Psi4 1.4a2.dev629

  ==> Input File <==

--------------------------------------------------------------------------
import os
memory 14 GB

molecule {
 C   -0.3233403793   -0.0019997319   -0.0019986913
 C    0.0609294317   -1.4006660888   -2.4251690329
 C    0.0611742363    2.8026059266   -0.0011548425
 C    0.0611954262   -1.4023982340    2.4258594910
 H    2.0872394706   -1.6422646376   -2.8412636560
 H   -0.7642104290   -0.3879991672   -4.0235850253
 H   -0.7653755041   -3.2920200936   -2.3517023688
 H    2.0865666321    3.2926943363   -0.0040896721
 H   -0.7647739882    3.6744066337    1.6780510586
 H   -0.7675258624    3.6856577221   -1.6764641540
 H    2.0868480642   -1.6497822579    2.8461051071
 H   -0.7676259687   -3.2950886649    2.3559801813
 H   -0.7637090061   -0.3831700564    4.0194316048
units bohr
0 2
}

basis {

assign 6-31g_2dfp_

[ 6-31g_2dfp_ ]

spherical

!----------------------------------------------------------------------
! Basis Set Exchange
! Version v0.8.13
! https://www.basissetexchange.org
!----------------------------------------------------------------------
!   Basis set: 6-31G(2df,p)
! Description: 6-31G(2df,p)
!        Role: orbital
!     Version: 0  (Data from the original Basis Set Exchange)
!----------------------------------------------------------------------

****
H     0
S    3   1.00
     18.7311370              0.03349460
      2.8253937              0.23472695
      0.6401217              0.81375733
S    1   1.00
      0.1612778              1.00000000
P    1   1.00
      1.5000000              1.0000000
P    1   1.00
      0.3750000              1.0000000
****
B     0
S    6   1.00
   2068.8823000              0.0018663
    310.6495700              0.0142515
     70.6830330              0.0695516
     19.8610800              0.2325729
      6.2993048              0.4670787
      2.1270270              0.3634314
SP   3   1.00
      4.7279710             -0.1303938              0.0745976
      1.1903377             -0.1307889              0.3078467
      0.3594117              1.1309444              0.7434568
SP   1   1.00
      0.1267512              1.0000000              1.0000000
D    1   1.00
      0.8020000              1.0000000
D    1   1.00
      0.2005000              1.0000000
F    1   1.00
      0.5000000              1.0000000
****
C     0
S    6   1.00
   3047.5249000              0.0018347
    457.3695100              0.0140373
    103.9486900              0.0688426
     29.2101550              0.2321844
      9.2866630              0.4679413
      3.1639270              0.3623120
SP   3   1.00
      7.8682724             -0.1193324              0.0689991
      1.8812885             -0.1608542              0.3164240
      0.5442493              1.1434564              0.7443083
SP   1   1.00
      0.1687144              1.0000000              1.0000000
D    1   1.00
      1.2520000              1.0000000
D    1   1.00
      0.3130000              1.0000000
F    1   1.00
      0.8000000              1.0000000
****
N     0
S    6   1.00
   4173.5110000              0.0018348
    627.4579000              0.0139950
    142.9021000              0.0685870
     40.2343300              0.2322410
     12.8202100              0.4690700
      4.3904370              0.3604550
SP   3   1.00
     11.6263580             -0.1149610              0.0675800
      2.7162800             -0.1691180              0.3239070
      0.7722180              1.1458520              0.7408950
SP   1   1.00
      0.2120313              1.0000000              1.0000000
D    1   1.00
      1.8260000              1.0000000
D    1   1.00
      0.4565000              1.0000000
F    1   1.00
      1.0000000              1.0000000
****
O     0
S    6   1.00
   5484.6717000              0.0018311
    825.2349500              0.0139501
    188.0469600              0.0684451
     52.9645000              0.2327143
     16.8975700              0.4701930
      5.7996353              0.3585209
SP   3   1.00
     15.5396160             -0.1107775              0.0708743
      3.5999336             -0.1480263              0.3397528
      1.0137618              1.1307670              0.7271586
SP   1   1.00
      0.2700058              1.0000000              1.0000000
D    1   1.00
      2.5840000              1.0000000
D    1   1.00
      0.6460000              1.0000000
F    1   1.00
      1.4000000              1.0000000
****
F     0
S    6   1.00
   7001.7130900              0.0018196169
   1051.3660900              0.0139160796
    239.2856900              0.0684053245
     67.3974453              0.233185760
     21.5199573              0.471267439
      7.40310130             0.356618546
SP   3   1.00
     20.8479528             -0.108506975            0.0716287243
      4.80830834            -0.146451658            0.3459121030
      1.34406986             1.128688580            0.7224699570
SP   1   1.00
      0.358151393            1.0000000              1.0000000
D    1   1.00
      3.5000000              1.0000000
D    1   1.00
      0.8750000              1.0000000
F    1   1.00
      1.8500000              1.0000000
****
Al     0
S    6   1.00
  13983.1000000              0.00194267
   2098.7500000              0.0148599
    477.7050000              0.0728494
    134.3600000              0.2468300
     42.8709000              0.4872580
     14.5189000              0.3234960
SP   6   1.00
    239.6680000             -0.00292619             0.00460285
     57.4419000             -0.0374080              0.0331990
     18.2859000             -0.1144870              0.1362820
      6.5991400              0.1156350              0.3304760
      2.4904900              0.6125950              0.4491460
      0.9445400              0.3937990              0.2657040
SP   3   1.00
      1.2779000             -0.2276060             -0.0175130
      0.3975900              0.00144583             0.2445330
      0.1600950              1.0927900              0.8049340
SP   1   1.00
      0.0556577              1.0000000              1.0000000
D    1   1.00
      0.6500000              1.0000000
D    1   1.00
      0.1625000              1.0000000
F    1   1.00
      0.2500000              1.0000000
****
Si     0
S    6   1.00
  16115.9000000              0.00195948
   2425.5800000              0.01492880
    553.8670000              0.07284780
    156.3400000              0.24613000
     50.0683000              0.48591400
     17.0178000              0.32500200
SP   6   1.00
    292.7180000             -0.00278094             0.00443826
     69.8731000             -0.03571460             0.03266790
     22.3363000             -0.11498500             0.13472100
      8.1503900              0.09356340             0.32867800
      3.1345800              0.60301700             0.44964000
      1.2254300              0.41895900             0.26137200
SP   3   1.00
      1.7273800             -0.24463000            -0.01779510
      0.5729220              0.00431572             0.25353900
      0.2221920              1.09818000             0.80066900
SP   1   1.00
      0.0778369              1.00000000             1.00000000
D    1   1.00
      0.9000000              1.0000000
D    1   1.00
      0.2250000              1.0000000
F    1   1.00
      0.3200000              1.0000000
****
P     0
S    6   1.00
  19413.3000000              0.0018516
   2909.4200000              0.0142062
    661.3640000              0.0699995
    185.7590000              0.2400790
     59.1943000              0.4847620
     20.0310000              0.3352000
SP   6   1.00
    339.4780000             -0.00278217             0.00456462
     81.0101000             -0.0360499              0.03369360
     25.8780000             -0.1166310              0.13975500
      9.4522100              0.0968328              0.33936200
      3.6656600              0.6144180              0.45092100
      1.4674600              0.4037980              0.23858600
SP   3   1.00
      2.1562300             -0.2529230             -0.01776530
      0.7489970              0.0328517              0.27405800
      0.2831450              1.0812500              0.78542100
SP   1   1.00
      0.0998317              1.0000000              1.00000000
D    1   1.00
      1.1000000              1.0000000
D    1   1.00
      0.2750000              1.0000000
F    1   1.00
      0.4500000              1.0000000
****
S     0
S    6   1.00
  21917.1000000              0.0018690
   3301.4900000              0.0142300
    754.1460000              0.0696960
    212.7110000              0.2384870
     67.9896000              0.4833070
     23.0515000              0.3380740
SP   6   1.00
    423.7350000             -0.0023767              0.0040610
    100.7100000             -0.0316930              0.0306810
     32.1599000             -0.1133170              0.1304520
     11.8079000              0.0560900              0.3272050
      4.6311000              0.5922550              0.4528510
      1.8702500              0.4550060              0.2560420
SP   3   1.00
      2.6158400             -0.2503740             -0.0145110
      0.9221670              0.0669570              0.3102630
      0.3412870              1.0545100              0.7544830
SP   1   1.00
      0.1171670              1.0000000              1.0000000
D    1   1.00
      1.3000000              1.0000000
D    1   1.00
      0.3250000              1.0000000
F    1   1.00
      0.5500000              1.0000000
****
Cl     0
S    6   1.00
  25180.1000000              0.0018330
   3780.3500000              0.0140340
    860.4740000              0.0690970
    242.1450000              0.2374520
     77.3349000              0.4830340
     26.2470000              0.3398560
SP   6   1.00
    491.7650000             -0.0022974              0.0039894
    116.9840000             -0.0307140              0.0303180
     37.4153000             -0.1125280              0.1298800
     13.7834000              0.0450160              0.3279510
      5.4521500              0.5893530              0.4535270
      2.2258800              0.4652060              0.2521540
SP   3   1.00
      3.1864900             -0.2518300             -0.0142990
      1.1442700              0.0615890              0.3235720
      0.4203770              1.0601800              0.7435070
SP   1   1.00
      0.1426570              1.0000000              1.0000000
D    1   1.00
      1.5000000              1.0000000
D    1   1.00
      0.3750000              1.0000000
F    1   1.00
      0.7000000              1.0000000
****
}

set {
reference uhf
freeze_core true
e_convergence 10
d_convergence 10
dft_spherical_points 1202
dft_radial_points 99
}

e = energy('b3lyp')

print_out('Grab this energy {0}'.format(e))
--------------------------------------------------------------------------

    Molecular point group: c1

    Geometry (in Bohr), charge = 0, multiplicity = 2:

       Center              X                  Y                   Z               Mass
    ------------   -----------------  -----------------  -----------------  -----------------
         C           -0.323340128861    -0.001525849361    -0.001524285178    12.000000000000
         C            0.060929682139    -1.400192206261    -2.424694626778    12.000000000000
         C            0.061174486739     2.803079809139    -0.000680436378    12.000000000000
         C            0.061195676639    -1.401924351461     2.426333897122    12.000000000000
         H            2.087239721039    -1.641790755061    -2.840789249878     1.007825032230
         H           -0.764210178561    -0.387525284661    -4.023110619178     1.007825032230
         H           -0.765375253661    -3.291546211061    -2.351227962678     1.007825032230
         H            2.086566882539     3.293168218839    -0.003615265978     1.007825032230
         H           -0.764773737761     3.674880516239     1.678525464722     1.007825032230
         H           -0.767525611961     3.686131604639    -1.675989747878     1.007825032230
         H            2.086848314639    -1.649308375361     2.846579513222     1.007825032230
         H           -0.767625718261    -3.294614782361     2.356454587422     1.007825032230
         H           -0.763708755661    -0.382696173861     4.019906010922     1.007825032230

  Charge       = 0
  Multiplicity = 2
  Basis Set: ANONYMOUS9AC9DFA3
    Blend: 6-31G_2DFP_
  Basis Set: (ANONYMOUS9AC9DFA3 AUX)
    Blend: DEF2-UNIVERSAL-JKFIT

    Orbital Energies [Eh]
    ---------------------

    Alpha Occupied:

       1A    -10.180342     2A    -10.167200     3A    -10.167080
       4A    -10.166765     5A     -0.797768     6A     -0.686359
       7A     -0.686015     8A     -0.530776     9A     -0.441134
      10A     -0.434764    11A     -0.434572    12A     -0.382647
      13A     -0.382551    14A     -0.363612    15A     -0.338091
      16A     -0.337903    17A     -0.168960

    Alpha Virtual:

      18A      0.076073    19A      0.134111    20A      0.134200
      21A      0.142536    22A      0.142712    23A      0.154880
      24A      0.178723    25A      0.178833    26A      0.203549
      27A      0.214806    28A      0.275606    29A      0.276364
      30A      0.399174    31A      0.399268    32A      0.403360
      33A      0.424022    34A      0.424176    35A      0.456593
      36A      0.495307    37A      0.495473    38A      0.512158
      39A      0.513979    40A      0.578405    41A      0.579227
      42A      0.591217    43A      0.592041    44A      0.602581
      45A      0.624754    46A      0.631777    47A      0.636200
      48A      0.636313    49A      0.663365    50A      0.663457
      51A      0.683813    52A      0.683893    53A      0.734994
      54A      0.825099    55A      0.825711    56A      0.853915
      57A      0.914829    58A      0.915197    59A      0.944120
      60A      0.944611    61A      0.960318    62A      0.962281
      63A      1.003473    64A      1.127793    65A      1.128394
      66A      1.142221    67A      1.163140    68A      1.163432
      69A      1.223327    70A      1.274266    71A      1.274710
      72A      1.279344    73A      1.324353    74A      1.324363
      75A      1.355997    76A      1.365818    77A      1.366282
      78A      1.392453    79A      1.403616    80A      1.404496
      81A      1.416557    82A      1.417672    83A      1.427910
      84A      1.491495    85A      1.499076    86A      1.542437
      87A      1.543221    88A      1.574435    89A      1.574453
      90A      1.669837    91A      1.738889    92A      1.739956
      93A      1.768308    94A      1.830702    95A      1.832103
      96A      1.971728    97A      2.017828    98A      2.019095
      99A      2.019473   100A      2.051504   101A      2.053778
     102A      2.738083   103A      2.738879   104A      2.790935
     105A      2.811405   106A      2.889582   107A      2.890255
     108A      2.895041   109A      2.929466   110A      2.929533
     111A      2.958993   112A      2.964163   113A      2.964585
     114A      3.034009   115A      3.071092   116A      3.071472
     117A      3.084350   118A      3.168500   119A      3.169076
     120A      3.180583   121A      3.285251   122A      3.285378
     123A      3.326691   124A      3.327619   125A      3.375622
     126A      3.489907   127A      3.490364   128A      3.514033
     129A      3.525286   130A      3.567811   131A      3.568829
     132A      3.575331   133A      3.666087   134A      3.666596
     135A      3.679607   136A      3.693568   137A      3.694773
     138A      3.775070   139A      3.778543   140A      3.789189
     141A      3.911859   142A      3.912620   143A      4.034446
     144A      4.109557   145A      4.113140   146A      4.146871
     147A      4.149305   148A      4.173327   149A      4.202603
     150A      4.202992   151A      4.203190   152A      4.210873
     153A      4.314765   154A      4.317071   155A      4.359081
     156A      4.424102   157A      4.424816   158A      4.443465
     159A      4.516240   160A      4.517404   161A      4.577794
     162A      4.578695   163A      4.617520   164A      4.709457
     165A      4.773135   166A      4.776047   167A      4.837003
     168A      4.962855   169A      5.002452   170A      5.003461
     171A      5.228033   172A      5.246164   173A      5.247465
     174A      5.354474   175A      5.356524   176A      5.479363

    Beta Occupied:

       1A    -10.167958     2A    -10.167840     3A    -10.167526
       4A    -10.166519     5A     -0.781093     6A     -0.684151
       7A     -0.683828     8A     -0.511747     9A     -0.431135
      10A     -0.430958    11A     -0.421815    12A     -0.376726
      13A     -0.376643    14A     -0.362595    15A     -0.333208
      16A     -0.333032

    Beta Virtual:

      17A     -0.025742    18A      0.077082    19A      0.135012
      20A      0.135078    21A      0.144406    22A      0.144585
      23A      0.163340    24A      0.182420    25A      0.182479
      26A      0.215035    27A      0.218930    28A      0.281969
      29A      0.282697    30A      0.400347    31A      0.400448
      32A      0.419787    33A      0.426835    34A      0.426990
      35A      0.468500    36A      0.497572    37A      0.497729
      38A      0.513894    39A      0.556323    40A      0.583953
      41A      0.584778    42A      0.597416    43A      0.598203
      44A      0.610001    45A      0.628133    46A      0.631933
      47A      0.639459    48A      0.639626    49A      0.666927
      50A      0.667023    51A      0.686418    52A      0.686559
      53A      0.757516    54A      0.830237    55A      0.830910
      56A      0.855269    57A      0.922847    58A      0.923118
      59A      0.945959    60A      0.953530    61A      0.965711
      62A      0.967511    63A      1.008714    64A      1.131717
      65A      1.132530    66A      1.155600    67A      1.168327
      68A      1.168387    69A      1.232299    70A      1.279864
      71A      1.280306    72A      1.285099    73A      1.329327
      74A      1.329366    75A      1.365415    76A      1.371102
      77A      1.371482    78A      1.393515    79A      1.407040
      80A      1.407998    81A      1.421615    82A      1.422716
      83A      1.428180    84A      1.492543    85A      1.509520
      86A      1.546843    87A      1.547629    88A      1.582308
      89A      1.582323    90A      1.674684    91A      1.744639
      92A      1.745730    93A      1.779086    94A      1.834561
      95A      1.835956    96A      1.972588    97A      2.025338
      98A      2.025535    99A      2.039705   100A      2.058179
     101A      2.060532   102A      2.746444   103A      2.747193
     104A      2.811820   105A      2.816066   106A      2.902362
     107A      2.902921   108A      2.924677   109A      2.931966
     110A      2.931995   111A      2.960055   112A      2.968733
     113A      2.969104   114A      3.041945   115A      3.081015
     116A      3.081367   117A      3.086166   118A      3.184208
     119A      3.184875   120A      3.188258   121A      3.290015
     122A      3.290212   123A      3.330520   124A      3.331399
     125A      3.383441   126A      3.492657   127A      3.493069
     128A      3.512405   129A      3.528345   130A      3.574809
     131A      3.581416   132A      3.582262   133A      3.671045
     134A      3.671210   135A      3.692900   136A      3.725620
     137A      3.725918   138A      3.779662   139A      3.783004
     140A      3.817736   141A      3.921699   142A      3.922412
     143A      4.045332   144A      4.116533   145A      4.119800
     146A      4.154044   147A      4.156562   148A      4.187370
     149A      4.208896   150A      4.209101   151A      4.210627
     152A      4.215351   153A      4.322160   154A      4.324542
     155A      4.362455   156A      4.432385   157A      4.432960
     158A      4.446355   159A      4.524044   160A      4.525177
     161A      4.588398   162A      4.589287   163A      4.624720
     164A      4.719801   165A      4.780150   166A      4.782938
     167A      4.839924   168A      4.967649   169A      5.006478
     170A      5.007514   171A      5.233748   172A      5.247938
     173A      5.249260   174A      5.360924   175A      5.363035
     176A      5.481684

    Final Occupation by Irrep:
              A
    DOCC [    16 ]
    SOCC [     1 ]

  @DF-UKS Final Energy:  -157.81306447966432

   => Energetics <=

    Nuclear Repulsion Energy =            125.3946513799055680
    One-Electron Energy =                -458.7489534536459814
    Two-Electron Energy =                 195.8483815293079431
    DFT Exchange-Correlation Energy =     -20.3071439352318315
    Empirical Dispersion Energy =           0.0000000000000000
    VV10 Nonlocal Energy =                  0.0000000000000000
    Total Energy =                       -157.8130644796643196

  UHF NO Occupations:
  HONO-2 :   15  A 1.9996009
  HONO-1 :   16  A 1.9989804
  HONO-0 :   17  A 1.0000000
  LUNO+0 :   18  A 0.0010196
  LUNO+1 :   19  A 0.0003991
  LUNO+2 :   20  A 0.0001980
  LUNO+3 :   21  A 0.0001971

Computation Completed

Properties will be evaluated at   0.000000,   0.000000,   0.000000 [a0]

Properties computed using the SCF density matrix

  Nuclear Dipole Moment: [e a0]
     X:     0.8272      Y:     0.0033      Z:     0.0033

  Electronic Dipole Moment: [e a0]
     X:    -0.7493      Y:    -0.0033      Z:    -0.0034

  Dipole Moment: [e a0]
     X:     0.0779      Y:    -0.0000      Z:    -0.0000     Total:     0.0779

  Dipole Moment: [D]
     X:     0.1980      Y:    -0.0001      Z:    -0.0001     Total:     0.1980

*** tstop() called on n031 at Fri Nov  5 15:32:06 2021
Module time:
	user time   =     639.33 seconds =      10.66 minutes
	system time =      12.22 seconds =       0.20 minutes
	total time  =        164 seconds =       2.73 minutes
Total time:
	user time   =     639.33 seconds =      10.66 minutes
	system time =      12.22 seconds =       0.20 minutes
	total time  =        164 seconds =       2.73 minutes
Grab this energy -157.81306447966432
    Psi4 stopped on: Friday, 05 November 2021 03:32PM
    Psi4 wall time for execution: 0:02:43.81

*** Psi4 exiting successfully. Buy a developer a beer!
