                               Psi4 1.4a2.dev629

  ==> Input File <==

--------------------------------------------------------------------------
import os
memory 14 GB

molecule {
 C   -0.3233172601   -0.0000020760   -0.0000017735
 C    0.0612333226   -1.4012472049   -2.4269272627
 C    0.0611139829    2.8024183182   -0.0000481915
 C    0.0612343098   -1.4011668982    2.4269754521
 H    2.0837778206   -1.6483034866   -2.8454290109
 H   -0.7598727483   -0.3887011019   -4.0247098201
 H   -0.7680466658   -3.2878677581   -2.3514005168
 H    2.0836410149    3.2884628199   -0.0046448548
 H   -0.7601176415    3.6798243298    1.6756955964
 H   -0.7681192100    3.6802824816   -1.6717193224
 H    2.0837814819   -1.6402516945    2.8500766212
 H   -0.7600341709   -3.2910934089    2.3490203163
 H   -0.7678821126   -0.3923786339    4.0231127667
units bohr
0 2
}

basis {

assign 6-31g_2dfp_

[ 6-31g_2dfp_ ]

spherical

!----------------------------------------------------------------------
! Basis Set Exchange
! Version v0.8.13
! https://www.basissetexchange.org
!----------------------------------------------------------------------
!   Basis set: 6-31G(2df,p)
! Description: 6-31G(2df,p)
!        Role: orbital
!     Version: 0  (Data from the original Basis Set Exchange)
!----------------------------------------------------------------------

****
H     0
S    3   1.00
     18.7311370              0.03349460
      2.8253937              0.23472695
      0.6401217              0.81375733
S    1   1.00
      0.1612778              1.00000000
P    1   1.00
      1.5000000              1.0000000
P    1   1.00
      0.3750000              1.0000000
****
B     0
S    6   1.00
   2068.8823000              0.0018663
    310.6495700              0.0142515
     70.6830330              0.0695516
     19.8610800              0.2325729
      6.2993048              0.4670787
      2.1270270              0.3634314
SP   3   1.00
      4.7279710             -0.1303938              0.0745976
      1.1903377             -0.1307889              0.3078467
      0.3594117              1.1309444              0.7434568
SP   1   1.00
      0.1267512              1.0000000              1.0000000
D    1   1.00
      0.8020000              1.0000000
D    1   1.00
      0.2005000              1.0000000
F    1   1.00
      0.5000000              1.0000000
****
C     0
S    6   1.00
   3047.5249000              0.0018347
    457.3695100              0.0140373
    103.9486900              0.0688426
     29.2101550              0.2321844
      9.2866630              0.4679413
      3.1639270              0.3623120
SP   3   1.00
      7.8682724             -0.1193324              0.0689991
      1.8812885             -0.1608542              0.3164240
      0.5442493              1.1434564              0.7443083
SP   1   1.00
      0.1687144              1.0000000              1.0000000
D    1   1.00
      1.2520000              1.0000000
D    1   1.00
      0.3130000              1.0000000
F    1   1.00
      0.8000000              1.0000000
****
N     0
S    6   1.00
   4173.5110000              0.0018348
    627.4579000              0.0139950
    142.9021000              0.0685870
     40.2343300              0.2322410
     12.8202100              0.4690700
      4.3904370              0.3604550
SP   3   1.00
     11.6263580             -0.1149610              0.0675800
      2.7162800             -0.1691180              0.3239070
      0.7722180              1.1458520              0.7408950
SP   1   1.00
      0.2120313              1.0000000              1.0000000
D    1   1.00
      1.8260000              1.0000000
D    1   1.00
      0.4565000              1.0000000
F    1   1.00
      1.0000000              1.0000000
****
O     0
S    6   1.00
   5484.6717000              0.0018311
    825.2349500              0.0139501
    188.0469600              0.0684451
     52.9645000              0.2327143
     16.8975700              0.4701930
      5.7996353              0.3585209
SP   3   1.00
     15.5396160             -0.1107775              0.0708743
      3.5999336             -0.1480263              0.3397528
      1.0137618              1.1307670              0.7271586
SP   1   1.00
      0.2700058              1.0000000              1.0000000
D    1   1.00
      2.5840000              1.0000000
D    1   1.00
      0.6460000              1.0000000
F    1   1.00
      1.4000000              1.0000000
****
F     0
S    6   1.00
   7001.7130900              0.0018196169
   1051.3660900              0.0139160796
    239.2856900              0.0684053245
     67.3974453              0.233185760
     21.5199573              0.471267439
      7.40310130             0.356618546
SP   3   1.00
     20.8479528             -0.108506975            0.0716287243
      4.80830834            -0.146451658            0.3459121030
      1.34406986             1.128688580            0.7224699570
SP   1   1.00
      0.358151393            1.0000000              1.0000000
D    1   1.00
      3.5000000              1.0000000
D    1   1.00
      0.8750000              1.0000000
F    1   1.00
      1.8500000              1.0000000
****
Al     0
S    6   1.00
  13983.1000000              0.00194267
   2098.7500000              0.0148599
    477.7050000              0.0728494
    134.3600000              0.2468300
     42.8709000              0.4872580
     14.5189000              0.3234960
SP   6   1.00
    239.6680000             -0.00292619             0.00460285
     57.4419000             -0.0374080              0.0331990
     18.2859000             -0.1144870              0.1362820
      6.5991400              0.1156350              0.3304760
      2.4904900              0.6125950              0.4491460
      0.9445400              0.3937990              0.2657040
SP   3   1.00
      1.2779000             -0.2276060             -0.0175130
      0.3975900              0.00144583             0.2445330
      0.1600950              1.0927900              0.8049340
SP   1   1.00
      0.0556577              1.0000000              1.0000000
D    1   1.00
      0.6500000              1.0000000
D    1   1.00
      0.1625000              1.0000000
F    1   1.00
      0.2500000              1.0000000
****
Si     0
S    6   1.00
  16115.9000000              0.00195948
   2425.5800000              0.01492880
    553.8670000              0.07284780
    156.3400000              0.24613000
     50.0683000              0.48591400
     17.0178000              0.32500200
SP   6   1.00
    292.7180000             -0.00278094             0.00443826
     69.8731000             -0.03571460             0.03266790
     22.3363000             -0.11498500             0.13472100
      8.1503900              0.09356340             0.32867800
      3.1345800              0.60301700             0.44964000
      1.2254300              0.41895900             0.26137200
SP   3   1.00
      1.7273800             -0.24463000            -0.01779510
      0.5729220              0.00431572             0.25353900
      0.2221920              1.09818000             0.80066900
SP   1   1.00
      0.0778369              1.00000000             1.00000000
D    1   1.00
      0.9000000              1.0000000
D    1   1.00
      0.2250000              1.0000000
F    1   1.00
      0.3200000              1.0000000
****
P     0
S    6   1.00
  19413.3000000              0.0018516
   2909.4200000              0.0142062
    661.3640000              0.0699995
    185.7590000              0.2400790
     59.1943000              0.4847620
     20.0310000              0.3352000
SP   6   1.00
    339.4780000             -0.00278217             0.00456462
     81.0101000             -0.0360499              0.03369360
     25.8780000             -0.1166310              0.13975500
      9.4522100              0.0968328              0.33936200
      3.6656600              0.6144180              0.45092100
      1.4674600              0.4037980              0.23858600
SP   3   1.00
      2.1562300             -0.2529230             -0.01776530
      0.7489970              0.0328517              0.27405800
      0.2831450              1.0812500              0.78542100
SP   1   1.00
      0.0998317              1.0000000              1.00000000
D    1   1.00
      1.1000000              1.0000000
D    1   1.00
      0.2750000              1.0000000
F    1   1.00
      0.4500000              1.0000000
****
S     0
S    6   1.00
  21917.1000000              0.0018690
   3301.4900000              0.0142300
    754.1460000              0.0696960
    212.7110000              0.2384870
     67.9896000              0.4833070
     23.0515000              0.3380740
SP   6   1.00
    423.7350000             -0.0023767              0.0040610
    100.7100000             -0.0316930              0.0306810
     32.1599000             -0.1133170              0.1304520
     11.8079000              0.0560900              0.3272050
      4.6311000              0.5922550              0.4528510
      1.8702500              0.4550060              0.2560420
SP   3   1.00
      2.6158400             -0.2503740             -0.0145110
      0.9221670              0.0669570              0.3102630
      0.3412870              1.0545100              0.7544830
SP   1   1.00
      0.1171670              1.0000000              1.0000000
D    1   1.00
      1.3000000              1.0000000
D    1   1.00
      0.3250000              1.0000000
F    1   1.00
      0.5500000              1.0000000
****
Cl     0
S    6   1.00
  25180.1000000              0.0018330
   3780.3500000              0.0140340
    860.4740000              0.0690970
    242.1450000              0.2374520
     77.3349000              0.4830340
     26.2470000              0.3398560
SP   6   1.00
    491.7650000             -0.0022974              0.0039894
    116.9840000             -0.0307140              0.0303180
     37.4153000             -0.1125280              0.1298800
     13.7834000              0.0450160              0.3279510
      5.4521500              0.5893530              0.4535270
      2.2258800              0.4652060              0.2521540
SP   3   1.00
      3.1864900             -0.2518300             -0.0142990
      1.1442700              0.0615890              0.3235720
      0.4203770              1.0601800              0.7435070
SP   1   1.00
      0.1426570              1.0000000              1.0000000
D    1   1.00
      1.5000000              1.0000000
D    1   1.00
      0.3750000              1.0000000
F    1   1.00
      0.7000000              1.0000000
****
}

set {
reference uhf
freeze_core true
e_convergence 10
d_convergence 10
dft_spherical_points 1202
dft_radial_points 99
}

e = energy('b3lyp')

print_out('Grab this energy {0}'.format(e))
--------------------------------------------------------------------------

    Molecular point group: c1

    Geometry (in Bohr), charge = 0, multiplicity = 2:

       Center              X                  Y                   Z               Mass
    ------------   -----------------  -----------------  -----------------  -----------------
         C           -0.323375878188    -0.000002058646    -0.000001431507    12.000000000000
         C            0.061174704512    -1.401247187546    -2.426926920707    12.000000000000
         C            0.061055364812     2.802418335554    -0.000047849507    12.000000000000
         C            0.061175691712    -1.401166880846     2.426975794093    12.000000000000
         H            2.083719202512    -1.648303469246    -2.845428668907     1.007825032230
         H           -0.759931366388    -0.388701084546    -4.024709478107     1.007825032230
         H           -0.768105283888    -3.287867740746    -2.351400174807     1.007825032230
         H            2.083582396812     3.288462837254    -0.004644512807     1.007825032230
         H           -0.760176259588     3.679824347154     1.675695938393     1.007825032230
         H           -0.768177828088     3.680282498954    -1.671718980407     1.007825032230
         H            2.083722863812    -1.640251677146     2.850076963193     1.007825032230
         H           -0.760092788988    -3.291093391546     2.349020658293     1.007825032230
         H           -0.767940730688    -0.392378616546     4.023113108693     1.007825032230

  Charge       = 0
  Multiplicity = 2
  Basis Set: ANONYMOUSFAB70902
    Blend: 6-31G_2DFP_
  Basis Set: (ANONYMOUSFAB70902 AUX)
    Blend: DEF2-UNIVERSAL-JKFIT

    Orbital Energies [Eh]
    ---------------------

    Alpha Occupied:

       1A    -10.180274     2A    -10.166494     3A    -10.166494
       4A    -10.166449     5A     -0.797727     6A     -0.686547
       7A     -0.686547     8A     -0.531087     9A     -0.441224
      10A     -0.434810    11A     -0.434810    12A     -0.382859
      13A     -0.382857    14A     -0.363927    15A     -0.338005
      16A     -0.338005    17A     -0.168899

    Alpha Virtual:

      18A      0.076404    19A      0.134521    20A      0.134522
      21A      0.143039    22A      0.143039    23A      0.155178
      24A      0.179284    25A      0.179284    26A      0.203436
      27A      0.215257    28A      0.276008    29A      0.276010
      30A      0.399172    31A      0.399176    32A      0.403551
      33A      0.424371    34A      0.424371    35A      0.456725
      36A      0.495614    37A      0.495615    38A      0.512417
      39A      0.514126    40A      0.579149    41A      0.579158
      42A      0.592234    43A      0.592236    44A      0.603222
      45A      0.625742    46A      0.632481    47A      0.636807
      48A      0.636811    49A      0.663749    50A      0.663749
      51A      0.684404    52A      0.684406    53A      0.735304
      54A      0.826224    55A      0.826227    56A      0.854429
      57A      0.915734    58A      0.915740    59A      0.944658
      60A      0.945490    61A      0.961944    62A      0.961961
      63A      1.003564    64A      1.128525    65A      1.128538
      66A      1.143095    67A      1.163518    68A      1.163531
      69A      1.223767    70A      1.275022    71A      1.275025
      72A      1.278895    73A      1.325065    74A      1.325067
      75A      1.356835    76A      1.366548    77A      1.366553
      78A      1.393051    79A      1.405078    80A      1.405081
      81A      1.418037    82A      1.418043    83A      1.428658
      84A      1.492364    85A      1.500453    86A      1.543315
      87A      1.543316    88A      1.574639    89A      1.574641
      90A      1.671984    91A      1.740845    92A      1.740856
      93A      1.769848    94A      1.833891    95A      1.833891
      96A      1.973352    97A      2.019385    98A      2.020242
      99A      2.020245   100A      2.053717   101A      2.053718
     102A      2.739465   103A      2.739466   104A      2.791130
     105A      2.811941   106A      2.890510   107A      2.890516
     108A      2.895019   109A      2.929882   110A      2.929890
     111A      2.959621   112A      2.965031   113A      2.965045
     114A      3.034922   115A      3.072231   116A      3.072245
     117A      3.085281   118A      3.168123   119A      3.168130
     120A      3.180884   121A      3.285279   122A      3.285280
     123A      3.326656   124A      3.326661   125A      3.374918
     126A      3.489158   127A      3.489179   128A      3.513711
     129A      3.524724   130A      3.568566   131A      3.568587
     132A      3.573484   133A      3.667080   134A      3.667088
     135A      3.681461   136A      3.694971   137A      3.694986
     138A      3.777331   139A      3.777357   140A      3.789677
     141A      3.913158   142A      3.913164   143A      4.036791
     144A      4.113840   145A      4.113845   146A      4.151445
     147A      4.151453   148A      4.176231   149A      4.204074
     150A      4.204520   151A      4.204523   152A      4.214553
     153A      4.318211   154A      4.318231   155A      4.361393
     156A      4.427032   157A      4.427035   158A      4.445439
     159A      4.519263   160A      4.519265   161A      4.579746
     162A      4.579759   163A      4.618203   164A      4.711479
     165A      4.776357   166A      4.776365   167A      4.839220
     168A      4.963677   169A      5.004054   170A      5.004066
     171A      5.233334   172A      5.252105   173A      5.252105
     174A      5.360092   175A      5.360106   176A      5.482591

    Beta Occupied:

       1A    -10.167244     2A    -10.167243     3A    -10.167229
       4A    -10.166431     5A     -0.781079     6A     -0.684348
       7A     -0.684348     8A     -0.512000     9A     -0.431190
      10A     -0.431189    11A     -0.421957    12A     -0.376952
      13A     -0.376951    14A     -0.362914    15A     -0.333119
      16A     -0.333118

    Beta Virtual:

      17A     -0.025509    18A      0.077409    19A      0.135419
      20A      0.135420    21A      0.144881    22A      0.144882
      23A      0.163574    24A      0.182945    25A      0.182946
      26A      0.215483    27A      0.218840    28A      0.282365
      29A      0.282367    30A      0.400336    31A      0.400340
      32A      0.420014    33A      0.427184    34A      0.427185
      35A      0.468614    36A      0.497873    37A      0.497874
      38A      0.514160    39A      0.556517    40A      0.584716
      41A      0.584724    42A      0.598435    43A      0.598436
      44A      0.610633    45A      0.629106    46A      0.632631
      47A      0.640072    48A      0.640076    49A      0.667317
      50A      0.667318    51A      0.687004    52A      0.687005
      53A      0.757853    54A      0.831391    55A      0.831393
      56A      0.855759    57A      0.923691    58A      0.923698
      59A      0.946570    60A      0.954366    61A      0.967242
      62A      0.967258    63A      1.008816    64A      1.132540
      65A      1.132551    66A      1.156465    67A      1.168620
      68A      1.168633    69A      1.232722    70A      1.280607
      71A      1.280611    72A      1.284636    73A      1.330081
      74A      1.330082    75A      1.366269    76A      1.371790
      77A      1.371794    78A      1.394109    79A      1.408540
      80A      1.408543    81A      1.423087    82A      1.423094
      83A      1.428915    84A      1.493430    85A      1.510885
      86A      1.547593    87A      1.547594    88A      1.582618
      89A      1.582619    90A      1.676907    91A      1.746613
      92A      1.746624    93A      1.780571    94A      1.837715
      95A      1.837716    96A      1.974208    97A      2.026628
      98A      2.026631    99A      2.040738   100A      2.060429
     101A      2.060430   102A      2.747813   103A      2.747814
     104A      2.812306   105A      2.816342   106A      2.903242
     107A      2.903248   108A      2.924768   109A      2.932310
     110A      2.932319   111A      2.960689   112A      2.969617
     113A      2.969631   114A      3.042776   115A      3.082203
     116A      3.082215   117A      3.087102   118A      3.183831
     119A      3.183836   120A      3.188612   121A      3.290024
     122A      3.290024   123A      3.330468   124A      3.330473
     125A      3.382760   126A      3.491934   127A      3.491955
     128A      3.512085   129A      3.527780   130A      3.573341
     131A      3.581923   132A      3.581945   133A      3.672113
     134A      3.672125   135A      3.694817   136A      3.726435
     137A      3.726451   138A      3.781840   139A      3.781866
     140A      3.818252   141A      3.922960   142A      3.922967
     143A      4.047804   144A      4.120732   145A      4.120734
     146A      4.158620   147A      4.158629   148A      4.190147
     149A      4.210453   150A      4.210456   151A      4.211970
     152A      4.218999   153A      4.325569   154A      4.325589
     155A      4.364746   156A      4.435221   157A      4.435223
     158A      4.448300   159A      4.527043   160A      4.527045
     161A      4.590316   162A      4.590328   163A      4.625388
     164A      4.721819   165A      4.783307   166A      4.783315
     167A      4.842142   168A      4.968445   169A      5.008073
     170A      5.008085   171A      5.239025   172A      5.253883
     173A      5.253883   174A      5.366545   175A      5.366559
     176A      5.484901

    Final Occupation by Irrep:
              A
    DOCC [    16 ]
    SOCC [     1 ]

  @DF-UKS Final Energy:  -157.81302332749578

   => Energetics <=

    Nuclear Repulsion Energy =            125.4320145407398712
    One-Electron Energy =                -458.8197666578972758
    Two-Electron Energy =                 195.8859006272615204
    DFT Exchange-Correlation Energy =     -20.3111718375999217
    Empirical Dispersion Energy =           0.0000000000000000
    VV10 Nonlocal Energy =                  0.0000000000000000
    Total Energy =                       -157.8130233274957845

  UHF NO Occupations:
  HONO-2 :   15  A 1.9996034
  HONO-1 :   16  A 1.9989798
  HONO-0 :   17  A 1.0000000
  LUNO+0 :   18  A 0.0010202
  LUNO+1 :   19  A 0.0003966
  LUNO+2 :   20  A 0.0001979
  LUNO+3 :   21  A 0.0001979

Computation Completed

Properties will be evaluated at   0.000000,   0.000000,   0.000000 [a0]

Properties computed using the SCF density matrix

  Nuclear Dipole Moment: [e a0]
     X:     0.8268      Y:    -0.0000      Z:     0.0000

  Electronic Dipole Moment: [e a0]
     X:    -0.7482      Y:     0.0000      Z:    -0.0000

  Dipole Moment: [e a0]
     X:     0.0785      Y:     0.0000      Z:     0.0000     Total:     0.0785

  Dipole Moment: [D]
     X:     0.1996      Y:     0.0000      Z:     0.0000     Total:     0.1996

*** tstop() called on n065 at Fri Nov  5 14:59:21 2021
Module time:
	user time   =     540.88 seconds =       9.01 minutes
	system time =      11.99 seconds =       0.20 minutes
	total time  =        139 seconds =       2.32 minutes
Total time:
	user time   =     540.88 seconds =       9.01 minutes
	system time =      11.99 seconds =       0.20 minutes
	total time  =        139 seconds =       2.32 minutes
Grab this energy -157.81302332749578
    Psi4 stopped on: Friday, 05 November 2021 02:59PM
    Psi4 wall time for execution: 0:02:19.04

*** Psi4 exiting successfully. Buy a developer a beer!
