                               Psi4 1.4a2.dev629

  ==> Input File <==

--------------------------------------------------------------------------
import os
memory 14 GB

molecule {
 C   -0.3201728906   -0.0000019788   -0.0000000000
 C    0.0624659499   -1.4007873565   -2.4262244835
 C    0.0623461702    2.8015790874   -0.0000000000
 C    0.0624659499   -1.4007873565    2.4262244835
 H    2.0866063955   -1.6439647800   -2.8472105247
 H   -0.7664308646   -0.3886910811   -4.0254894246
 H   -0.7665939960   -3.2917715635   -2.3493985219
 H    2.0864674821    3.2878369420    0.0000000000
 H   -0.7666718040    3.6804955989    1.6760972513
 H   -0.7666718040    3.6804955989   -1.6760972513
 H    2.0866063955   -1.6439647800    2.8472105247
 H   -0.7665939960   -3.2917715635    2.3493985219
 H   -0.7664308646   -0.3886910811    4.0254894246
units bohr
0 2
}

basis {

assign 6-31g_2dfp_

[ 6-31g_2dfp_ ]

spherical

!----------------------------------------------------------------------
! Basis Set Exchange
! Version v0.8.13
! https://www.basissetexchange.org
!----------------------------------------------------------------------
!   Basis set: 6-31G(2df,p)
! Description: 6-31G(2df,p)
!        Role: orbital
!     Version: 0  (Data from the original Basis Set Exchange)
!----------------------------------------------------------------------

****
H     0
S    3   1.00
     18.7311370              0.03349460
      2.8253937              0.23472695
      0.6401217              0.81375733
S    1   1.00
      0.1612778              1.00000000
P    1   1.00
      1.5000000              1.0000000
P    1   1.00
      0.3750000              1.0000000
****
B     0
S    6   1.00
   2068.8823000              0.0018663
    310.6495700              0.0142515
     70.6830330              0.0695516
     19.8610800              0.2325729
      6.2993048              0.4670787
      2.1270270              0.3634314
SP   3   1.00
      4.7279710             -0.1303938              0.0745976
      1.1903377             -0.1307889              0.3078467
      0.3594117              1.1309444              0.7434568
SP   1   1.00
      0.1267512              1.0000000              1.0000000
D    1   1.00
      0.8020000              1.0000000
D    1   1.00
      0.2005000              1.0000000
F    1   1.00
      0.5000000              1.0000000
****
C     0
S    6   1.00
   3047.5249000              0.0018347
    457.3695100              0.0140373
    103.9486900              0.0688426
     29.2101550              0.2321844
      9.2866630              0.4679413
      3.1639270              0.3623120
SP   3   1.00
      7.8682724             -0.1193324              0.0689991
      1.8812885             -0.1608542              0.3164240
      0.5442493              1.1434564              0.7443083
SP   1   1.00
      0.1687144              1.0000000              1.0000000
D    1   1.00
      1.2520000              1.0000000
D    1   1.00
      0.3130000              1.0000000
F    1   1.00
      0.8000000              1.0000000
****
N     0
S    6   1.00
   4173.5110000              0.0018348
    627.4579000              0.0139950
    142.9021000              0.0685870
     40.2343300              0.2322410
     12.8202100              0.4690700
      4.3904370              0.3604550
SP   3   1.00
     11.6263580             -0.1149610              0.0675800
      2.7162800             -0.1691180              0.3239070
      0.7722180              1.1458520              0.7408950
SP   1   1.00
      0.2120313              1.0000000              1.0000000
D    1   1.00
      1.8260000              1.0000000
D    1   1.00
      0.4565000              1.0000000
F    1   1.00
      1.0000000              1.0000000
****
O     0
S    6   1.00
   5484.6717000              0.0018311
    825.2349500              0.0139501
    188.0469600              0.0684451
     52.9645000              0.2327143
     16.8975700              0.4701930
      5.7996353              0.3585209
SP   3   1.00
     15.5396160             -0.1107775              0.0708743
      3.5999336             -0.1480263              0.3397528
      1.0137618              1.1307670              0.7271586
SP   1   1.00
      0.2700058              1.0000000              1.0000000
D    1   1.00
      2.5840000              1.0000000
D    1   1.00
      0.6460000              1.0000000
F    1   1.00
      1.4000000              1.0000000
****
F     0
S    6   1.00
   7001.7130900              0.0018196169
   1051.3660900              0.0139160796
    239.2856900              0.0684053245
     67.3974453              0.233185760
     21.5199573              0.471267439
      7.40310130             0.356618546
SP   3   1.00
     20.8479528             -0.108506975            0.0716287243
      4.80830834            -0.146451658            0.3459121030
      1.34406986             1.128688580            0.7224699570
SP   1   1.00
      0.358151393            1.0000000              1.0000000
D    1   1.00
      3.5000000              1.0000000
D    1   1.00
      0.8750000              1.0000000
F    1   1.00
      1.8500000              1.0000000
****
Al     0
S    6   1.00
  13983.1000000              0.00194267
   2098.7500000              0.0148599
    477.7050000              0.0728494
    134.3600000              0.2468300
     42.8709000              0.4872580
     14.5189000              0.3234960
SP   6   1.00
    239.6680000             -0.00292619             0.00460285
     57.4419000             -0.0374080              0.0331990
     18.2859000             -0.1144870              0.1362820
      6.5991400              0.1156350              0.3304760
      2.4904900              0.6125950              0.4491460
      0.9445400              0.3937990              0.2657040
SP   3   1.00
      1.2779000             -0.2276060             -0.0175130
      0.3975900              0.00144583             0.2445330
      0.1600950              1.0927900              0.8049340
SP   1   1.00
      0.0556577              1.0000000              1.0000000
D    1   1.00
      0.6500000              1.0000000
D    1   1.00
      0.1625000              1.0000000
F    1   1.00
      0.2500000              1.0000000
****
Si     0
S    6   1.00
  16115.9000000              0.00195948
   2425.5800000              0.01492880
    553.8670000              0.07284780
    156.3400000              0.24613000
     50.0683000              0.48591400
     17.0178000              0.32500200
SP   6   1.00
    292.7180000             -0.00278094             0.00443826
     69.8731000             -0.03571460             0.03266790
     22.3363000             -0.11498500             0.13472100
      8.1503900              0.09356340             0.32867800
      3.1345800              0.60301700             0.44964000
      1.2254300              0.41895900             0.26137200
SP   3   1.00
      1.7273800             -0.24463000            -0.01779510
      0.5729220              0.00431572             0.25353900
      0.2221920              1.09818000             0.80066900
SP   1   1.00
      0.0778369              1.00000000             1.00000000
D    1   1.00
      0.9000000              1.0000000
D    1   1.00
      0.2250000              1.0000000
F    1   1.00
      0.3200000              1.0000000
****
P     0
S    6   1.00
  19413.3000000              0.0018516
   2909.4200000              0.0142062
    661.3640000              0.0699995
    185.7590000              0.2400790
     59.1943000              0.4847620
     20.0310000              0.3352000
SP   6   1.00
    339.4780000             -0.00278217             0.00456462
     81.0101000             -0.0360499              0.03369360
     25.8780000             -0.1166310              0.13975500
      9.4522100              0.0968328              0.33936200
      3.6656600              0.6144180              0.45092100
      1.4674600              0.4037980              0.23858600
SP   3   1.00
      2.1562300             -0.2529230             -0.01776530
      0.7489970              0.0328517              0.27405800
      0.2831450              1.0812500              0.78542100
SP   1   1.00
      0.0998317              1.0000000              1.00000000
D    1   1.00
      1.1000000              1.0000000
D    1   1.00
      0.2750000              1.0000000
F    1   1.00
      0.4500000              1.0000000
****
S     0
S    6   1.00
  21917.1000000              0.0018690
   3301.4900000              0.0142300
    754.1460000              0.0696960
    212.7110000              0.2384870
     67.9896000              0.4833070
     23.0515000              0.3380740
SP   6   1.00
    423.7350000             -0.0023767              0.0040610
    100.7100000             -0.0316930              0.0306810
     32.1599000             -0.1133170              0.1304520
     11.8079000              0.0560900              0.3272050
      4.6311000              0.5922550              0.4528510
      1.8702500              0.4550060              0.2560420
SP   3   1.00
      2.6158400             -0.2503740             -0.0145110
      0.9221670              0.0669570              0.3102630
      0.3412870              1.0545100              0.7544830
SP   1   1.00
      0.1171670              1.0000000              1.0000000
D    1   1.00
      1.3000000              1.0000000
D    1   1.00
      0.3250000              1.0000000
F    1   1.00
      0.5500000              1.0000000
****
Cl     0
S    6   1.00
  25180.1000000              0.0018330
   3780.3500000              0.0140340
    860.4740000              0.0690970
    242.1450000              0.2374520
     77.3349000              0.4830340
     26.2470000              0.3398560
SP   6   1.00
    491.7650000             -0.0022974              0.0039894
    116.9840000             -0.0307140              0.0303180
     37.4153000             -0.1125280              0.1298800
     13.7834000              0.0450160              0.3279510
      5.4521500              0.5893530              0.4535270
      2.2258800              0.4652060              0.2521540
SP   3   1.00
      3.1864900             -0.2518300             -0.0142990
      1.1442700              0.0615890              0.3235720
      0.4203770              1.0601800              0.7435070
SP   1   1.00
      0.1426570              1.0000000              1.0000000
D    1   1.00
      1.5000000              1.0000000
D    1   1.00
      0.3750000              1.0000000
F    1   1.00
      0.7000000              1.0000000
****
}

set {
reference uhf
freeze_core true
e_convergence 10
d_convergence 10
dft_spherical_points 1202
dft_radial_points 99
}

e = energy('b3lyp')

print_out('Grab this energy {0}'.format(e))
--------------------------------------------------------------------------

    Molecular point group: cs

    Geometry (in Bohr), charge = 0, multiplicity = 2:

       Center              X                  Y                   Z               Mass
    ------------   -----------------  -----------------  -----------------  -----------------
         C           -0.321549100697    -0.000002010845     0.000000000000    12.000000000000
         C            0.061089739803    -1.400787388545    -2.426224483500    12.000000000000
         C            0.060969960103     2.801579055355     0.000000000000    12.000000000000
         C            0.061089739803    -1.400787388545     2.426224483500    12.000000000000
         H            2.085230185403    -1.643964812045    -2.847210524700     1.007825032230
         H           -0.767807074697    -0.388691113145    -4.025489424600     1.007825032230
         H           -0.767970206097    -3.291771595545    -2.349398521900     1.007825032230
         H            2.085091272003     3.287836909955     0.000000000000     1.007825032230
         H           -0.768048014097     3.680495566855     1.676097251300     1.007825032230
         H           -0.768048014097     3.680495566855    -1.676097251300     1.007825032230
         H            2.085230185403    -1.643964812045     2.847210524700     1.007825032230
         H           -0.767970206097    -3.291771595545     2.349398521900     1.007825032230
         H           -0.767807074697    -0.388691113145     4.025489424600     1.007825032230

  Charge       = 0
  Multiplicity = 2
  Basis Set: ANONYMOUS2A91C9FC
    Blend: 6-31G_2DFP_
  Basis Set: (ANONYMOUS2A91C9FC AUX)
    Blend: DEF2-UNIVERSAL-JKFIT

    Orbital Energies [Eh]
    ---------------------

    Alpha Occupied:

       1Ap   -10.180229     2Ap   -10.167007     1App  -10.167006
       3Ap   -10.166961     4Ap    -0.797820     5Ap    -0.686199
       2App   -0.686199     6Ap    -0.530754     7Ap    -0.441359
       3App   -0.434526     8Ap    -0.434525     9Ap    -0.382848
       4App   -0.382846     5App   -0.363329     6App   -0.337950
      10Ap    -0.337950    11Ap    -0.168846

    Alpha Virtual:

      12Ap     0.076056    13Ap     0.134148     7App    0.134149
      14Ap     0.142547     8App    0.142548    15Ap     0.154944
      16Ap     0.178883     9App    0.178883    17Ap     0.203593
      10App    0.214670    11App    0.276123    18Ap     0.276125
      19Ap     0.399245    12App    0.399249    20Ap     0.403383
      13App    0.424103    21Ap     0.424103    22Ap     0.456597
      23Ap     0.495338    14App    0.495339    15App    0.512265
      24Ap     0.513975    25Ap     0.578723    16App    0.578731
      17App    0.591938    26Ap     0.591940    27Ap     0.602881
      28Ap     0.624621    18App    0.631636    19App    0.636113
      29Ap     0.636117    30Ap     0.663583    20App    0.663584
      31Ap     0.683827    21App    0.683828    32Ap     0.735123
      22App    0.825579    33Ap     0.825582    23App    0.853869
      24App    0.915189    34Ap     0.915195    25App    0.944230
      35Ap     0.944631    26App    0.961192    36Ap     0.961208
      37Ap     1.002573    38Ap     1.127866    27App    1.127878
      39Ap     1.142593    40Ap     1.163420    28App    1.163432
      41Ap     1.223742    42Ap     1.274776    29App    1.274779
      43Ap     1.279501    30App    1.324241    44Ap     1.324244
      45Ap     1.357027    31App    1.365705    46Ap     1.365710
      32App    1.392378    47Ap     1.404674    33App    1.404676
      34App    1.417712    48Ap     1.417719    35App    1.428092
      36App    1.491029    49Ap     1.499582    37App    1.542424
      50Ap     1.542425    51Ap     1.574372    38App    1.574374
      52Ap     1.669291    53Ap     1.739624    39App    1.739636
      54Ap     1.768524    40App    1.831071    55Ap     1.831071
      41App    1.971167    56Ap     2.018573    57Ap     2.019341
      42App    2.019345    58Ap     2.053013    43App    2.053013
      44App    2.738816    59Ap     2.738817    60Ap     2.791144
      45App    2.811150    61Ap     2.890128    46App    2.890134
      62Ap     2.894904    63Ap     2.929342    47App    2.929350
      48App    2.958831    64Ap     2.964398    49App    2.964412
      65Ap     3.034050    50App    3.071898    66Ap     3.071912
      51App    3.084289    67Ap     3.168798    52App    3.168805
      68Ap     3.180385    53App    3.284963    69Ap     3.284963
      70Ap     3.326229    54App    3.326235    71Ap     3.375915
      55App    3.490343    72Ap     3.490363    56App    3.514474
      73Ap     3.525171    57App    3.568802    74Ap     3.568822
      58App    3.575597    75Ap     3.666397    59App    3.666405
      76Ap     3.678620    60App    3.694402    77Ap     3.694417
      78Ap     3.777670    61App    3.777696    79Ap     3.790436
      80Ap     3.912116    62App    3.912123    81Ap     4.035630
      82Ap     4.111000    63App    4.111004    83Ap     4.147893
      64App    4.147901    84Ap     4.173374    85Ap     4.203044
      65App    4.203384    86Ap     4.203387    66App    4.210941
      87Ap     4.316158    67App    4.316177    68App    4.358858
      88Ap     4.425064    69App    4.425067    70App    4.442557
      71App    4.516712    89Ap     4.516714    72App    4.578175
      90Ap     4.578187    91Ap     4.618359    92Ap     4.709896
      93Ap     4.774834    73App    4.774842    74App    4.837131
      94Ap     4.962795    75App    5.003648    95Ap     5.003660
      96Ap     5.228124    76App    5.246790    97Ap     5.246790
      98Ap     5.355053    77App    5.355066    78App    5.479859

    Beta Occupied:

       1Ap   -10.167760     1App  -10.167760     2Ap   -10.167734
       3Ap   -10.166404     4Ap    -0.781129     5Ap    -0.683998
       2App   -0.683997     6Ap    -0.511720     3App   -0.430885
       7Ap    -0.430885     8Ap    -0.422063     9Ap    -0.376945
       4App   -0.376943     5App   -0.362312     6App   -0.333076
      10Ap    -0.333075

    Beta Virtual:

      11Ap    -0.025594    12Ap     0.077063    13Ap     0.135005
       7App    0.135006    14Ap     0.144427     8App    0.144427
      15Ap     0.163372    16Ap     0.182565     9App    0.182566
      10App    0.214903    17Ap     0.218997    11App    0.282459
      18Ap     0.282461    19Ap     0.400410    12App    0.400414
      20Ap     0.419771    13App    0.426917    21Ap     0.426918
      22Ap     0.468569    23Ap     0.497598    14App    0.497599
      15App    0.513995    24Ap     0.556369    25Ap     0.584283
      16App    0.584291    17App    0.598101    26Ap     0.598102
      27Ap     0.610279    28Ap     0.628028    18App    0.631791
      19App    0.639417    29Ap     0.639421    30Ap     0.667120
      20App    0.667120    31Ap     0.686464    21App    0.686466
      32Ap     0.757640    22App    0.830728    33Ap     0.830730
      23App    0.855219    24App    0.923156    34Ap     0.923163
      25App    0.946067    35Ap     0.953595    26App    0.966516
      36Ap     0.966532    37Ap     1.007765    38Ap     1.131999
      27App    1.132011    39Ap     1.155962    40Ap     1.168431
      28App    1.168443    41Ap     1.232722    42Ap     1.280355
      29App    1.280359    43Ap     1.285263    30App    1.329173
      44Ap     1.329175    45Ap     1.366462    31App    1.370944
      46Ap     1.370948    32App    1.393423    47Ap     1.408158
      33App    1.408161    34App    1.422777    48Ap     1.422783
      35App    1.428379    36App    1.492073    49Ap     1.510046
      50Ap     1.546728    37App    1.546729    38App    1.582343
      51Ap     1.582344    52Ap     1.674152    53Ap     1.745377
      39App    1.745388    54Ap     1.779299    40App    1.834932
      55Ap     1.834933    41App    1.972028    56Ap     2.025782
      42App    2.025785    57Ap     2.039925    58Ap     2.059704
      43App    2.059704    44App    2.747148    59Ap     2.747150
      45App    2.811562    60Ap     2.816332    61Ap     2.902802
      46App    2.902808    62Ap     2.924700    63Ap     2.931847
      47App    2.931856    48App    2.959893    64Ap     2.968927
      49App    2.968941    65Ap     3.041946    50App    3.081785
      66Ap     3.081796    51App    3.086099    67Ap     3.184631
      52App    3.184635    68Ap     3.187996    53App    3.289806
      69Ap     3.289806    70Ap     3.330017    54App    3.330022
      71Ap     3.383772    55App    3.493065    72Ap     3.493085
      56App    3.512835    73Ap     3.528254    57App    3.575466
      58App    3.582070    74Ap     3.582092    75Ap     3.671211
      59App    3.671222    76Ap     3.691934    60App    3.726009
      77Ap     3.726025    78Ap     3.782157    61App    3.782183
      79Ap     3.818956    80Ap     3.921930    62App    3.921937
      81Ap     4.046505    82Ap     4.117839    63App    4.117841
      83Ap     4.155084    64App    4.155093    84Ap     4.187408
      65App    4.209327    85Ap     4.209330    86Ap     4.211023
      66App    4.215378    87Ap     4.323610    67App    4.323630
      68App    4.362206    88Ap     4.433222    69App    4.433224
      70App    4.445466    71App    4.524502    89Ap     4.524503
      72App    4.588800    90Ap     4.588812    91Ap     4.625626
      92Ap     4.720150    93Ap     4.781811    73App    4.781818
      74App    4.840050    94Ap     4.967573    75App    5.007675
      95Ap     5.007687    96Ap     5.233871    76App    5.248584
      97Ap     5.248584    98Ap     5.361551    77App    5.361564
      78App    5.482182

    Final Occupation by Irrep:
             Ap   App
    DOCC [    10,    6 ]
    SOCC [     1,    0 ]

  @DF-UKS Final Energy:  -157.81307603176990

   => Energetics <=

    Nuclear Repulsion Energy =            125.4033292636139407
    One-Electron Energy =                -458.7664330318439738
    Two-Electron Energy =                 195.8574247922146867
    DFT Exchange-Correlation Energy =     -20.3073970557545707
    Empirical Dispersion Energy =           0.0000000000000000
    VV10 Nonlocal Energy =                  0.0000000000000000
    Total Energy =                       -157.8130760317698957

  UHF NO Occupations:
  HONO-2 :    9 Ap 1.9996019
  HONO-1 :   10 Ap 1.9989796
  HONO-0 :   11 Ap 1.0000000
  LUNO+0 :   12 Ap 0.0010204
  LUNO+1 :   13 Ap 0.0003981
  LUNO+2 :    7App 0.0001975
  LUNO+3 :   14 Ap 0.0001975

Computation Completed

Properties will be evaluated at   0.000000,   0.000000,   0.000000 [a0]

Properties computed using the SCF density matrix

  Nuclear Dipole Moment: [e a0]
     X:     0.8175      Y:    -0.0000      Z:     0.0000

  Electronic Dipole Moment: [e a0]
     X:    -0.7395      Y:     0.0000      Z:     0.0000

  Dipole Moment: [e a0]
     X:     0.0780      Y:     0.0000      Z:     0.0000     Total:     0.0780

  Dipole Moment: [D]
     X:     0.1983      Y:     0.0000      Z:     0.0000     Total:     0.1983

*** tstop() called on n054 at Fri Nov  5 13:30:37 2021
Module time:
	user time   =     543.22 seconds =       9.05 minutes
	system time =      12.19 seconds =       0.20 minutes
	total time  =        140 seconds =       2.33 minutes
Total time:
	user time   =     543.22 seconds =       9.05 minutes
	system time =      12.19 seconds =       0.20 minutes
	total time  =        140 seconds =       2.33 minutes
Grab this energy -157.8130760317699
    Psi4 stopped on: Friday, 05 November 2021 01:30PM
    Psi4 wall time for execution: 0:02:19.70

*** Psi4 exiting successfully. Buy a developer a beer!
