                               Psi4 1.4a2.dev629

  ==> Input File <==

--------------------------------------------------------------------------
import os
memory 14 GB

molecule {
 C   -0.3201724664   -0.0000016366   -0.0002459497
 C    0.0615045706   -1.4009047685   -2.4262788995
 C    0.0623461573    2.8015794614    0.0001494747
 C    0.0634289375   -1.4006690344    2.4261696986
 H    2.0837912214   -1.6421299741   -2.8421805721
 H   -0.7673681116   -0.3894508794   -4.0275671067
 H   -0.7684931523   -3.2934017025   -2.3526102228
 H    2.0864666687    3.2878376607    0.0018539683
 H   -0.7676349144    3.6819127159    1.6755232502
 H   -0.7657078350    3.6790792310   -1.6766697231
 H    2.0894090229   -1.6458023879    2.8522494739
 H   -0.7646881295   -3.2901374968    2.3461927147
 H   -0.7654898458   -0.3879355023    4.0234138936
units bohr
0 2
}

basis {

assign 6-31g_2dfp_

[ 6-31g_2dfp_ ]

spherical

!----------------------------------------------------------------------
! Basis Set Exchange
! Version v0.8.13
! https://www.basissetexchange.org
!----------------------------------------------------------------------
!   Basis set: 6-31G(2df,p)
! Description: 6-31G(2df,p)
!        Role: orbital
!     Version: 0  (Data from the original Basis Set Exchange)
!----------------------------------------------------------------------

****
H     0
S    3   1.00
     18.7311370              0.03349460
      2.8253937              0.23472695
      0.6401217              0.81375733
S    1   1.00
      0.1612778              1.00000000
P    1   1.00
      1.5000000              1.0000000
P    1   1.00
      0.3750000              1.0000000
****
B     0
S    6   1.00
   2068.8823000              0.0018663
    310.6495700              0.0142515
     70.6830330              0.0695516
     19.8610800              0.2325729
      6.2993048              0.4670787
      2.1270270              0.3634314
SP   3   1.00
      4.7279710             -0.1303938              0.0745976
      1.1903377             -0.1307889              0.3078467
      0.3594117              1.1309444              0.7434568
SP   1   1.00
      0.1267512              1.0000000              1.0000000
D    1   1.00
      0.8020000              1.0000000
D    1   1.00
      0.2005000              1.0000000
F    1   1.00
      0.5000000              1.0000000
****
C     0
S    6   1.00
   3047.5249000              0.0018347
    457.3695100              0.0140373
    103.9486900              0.0688426
     29.2101550              0.2321844
      9.2866630              0.4679413
      3.1639270              0.3623120
SP   3   1.00
      7.8682724             -0.1193324              0.0689991
      1.8812885             -0.1608542              0.3164240
      0.5442493              1.1434564              0.7443083
SP   1   1.00
      0.1687144              1.0000000              1.0000000
D    1   1.00
      1.2520000              1.0000000
D    1   1.00
      0.3130000              1.0000000
F    1   1.00
      0.8000000              1.0000000
****
N     0
S    6   1.00
   4173.5110000              0.0018348
    627.4579000              0.0139950
    142.9021000              0.0685870
     40.2343300              0.2322410
     12.8202100              0.4690700
      4.3904370              0.3604550
SP   3   1.00
     11.6263580             -0.1149610              0.0675800
      2.7162800             -0.1691180              0.3239070
      0.7722180              1.1458520              0.7408950
SP   1   1.00
      0.2120313              1.0000000              1.0000000
D    1   1.00
      1.8260000              1.0000000
D    1   1.00
      0.4565000              1.0000000
F    1   1.00
      1.0000000              1.0000000
****
O     0
S    6   1.00
   5484.6717000              0.0018311
    825.2349500              0.0139501
    188.0469600              0.0684451
     52.9645000              0.2327143
     16.8975700              0.4701930
      5.7996353              0.3585209
SP   3   1.00
     15.5396160             -0.1107775              0.0708743
      3.5999336             -0.1480263              0.3397528
      1.0137618              1.1307670              0.7271586
SP   1   1.00
      0.2700058              1.0000000              1.0000000
D    1   1.00
      2.5840000              1.0000000
D    1   1.00
      0.6460000              1.0000000
F    1   1.00
      1.4000000              1.0000000
****
F     0
S    6   1.00
   7001.7130900              0.0018196169
   1051.3660900              0.0139160796
    239.2856900              0.0684053245
     67.3974453              0.233185760
     21.5199573              0.471267439
      7.40310130             0.356618546
SP   3   1.00
     20.8479528             -0.108506975            0.0716287243
      4.80830834            -0.146451658            0.3459121030
      1.34406986             1.128688580            0.7224699570
SP   1   1.00
      0.358151393            1.0000000              1.0000000
D    1   1.00
      3.5000000              1.0000000
D    1   1.00
      0.8750000              1.0000000
F    1   1.00
      1.8500000              1.0000000
****
Al     0
S    6   1.00
  13983.1000000              0.00194267
   2098.7500000              0.0148599
    477.7050000              0.0728494
    134.3600000              0.2468300
     42.8709000              0.4872580
     14.5189000              0.3234960
SP   6   1.00
    239.6680000             -0.00292619             0.00460285
     57.4419000             -0.0374080              0.0331990
     18.2859000             -0.1144870              0.1362820
      6.5991400              0.1156350              0.3304760
      2.4904900              0.6125950              0.4491460
      0.9445400              0.3937990              0.2657040
SP   3   1.00
      1.2779000             -0.2276060             -0.0175130
      0.3975900              0.00144583             0.2445330
      0.1600950              1.0927900              0.8049340
SP   1   1.00
      0.0556577              1.0000000              1.0000000
D    1   1.00
      0.6500000              1.0000000
D    1   1.00
      0.1625000              1.0000000
F    1   1.00
      0.2500000              1.0000000
****
Si     0
S    6   1.00
  16115.9000000              0.00195948
   2425.5800000              0.01492880
    553.8670000              0.07284780
    156.3400000              0.24613000
     50.0683000              0.48591400
     17.0178000              0.32500200
SP   6   1.00
    292.7180000             -0.00278094             0.00443826
     69.8731000             -0.03571460             0.03266790
     22.3363000             -0.11498500             0.13472100
      8.1503900              0.09356340             0.32867800
      3.1345800              0.60301700             0.44964000
      1.2254300              0.41895900             0.26137200
SP   3   1.00
      1.7273800             -0.24463000            -0.01779510
      0.5729220              0.00431572             0.25353900
      0.2221920              1.09818000             0.80066900
SP   1   1.00
      0.0778369              1.00000000             1.00000000
D    1   1.00
      0.9000000              1.0000000
D    1   1.00
      0.2250000              1.0000000
F    1   1.00
      0.3200000              1.0000000
****
P     0
S    6   1.00
  19413.3000000              0.0018516
   2909.4200000              0.0142062
    661.3640000              0.0699995
    185.7590000              0.2400790
     59.1943000              0.4847620
     20.0310000              0.3352000
SP   6   1.00
    339.4780000             -0.00278217             0.00456462
     81.0101000             -0.0360499              0.03369360
     25.8780000             -0.1166310              0.13975500
      9.4522100              0.0968328              0.33936200
      3.6656600              0.6144180              0.45092100
      1.4674600              0.4037980              0.23858600
SP   3   1.00
      2.1562300             -0.2529230             -0.01776530
      0.7489970              0.0328517              0.27405800
      0.2831450              1.0812500              0.78542100
SP   1   1.00
      0.0998317              1.0000000              1.00000000
D    1   1.00
      1.1000000              1.0000000
D    1   1.00
      0.2750000              1.0000000
F    1   1.00
      0.4500000              1.0000000
****
S     0
S    6   1.00
  21917.1000000              0.0018690
   3301.4900000              0.0142300
    754.1460000              0.0696960
    212.7110000              0.2384870
     67.9896000              0.4833070
     23.0515000              0.3380740
SP   6   1.00
    423.7350000             -0.0023767              0.0040610
    100.7100000             -0.0316930              0.0306810
     32.1599000             -0.1133170              0.1304520
     11.8079000              0.0560900              0.3272050
      4.6311000              0.5922550              0.4528510
      1.8702500              0.4550060              0.2560420
SP   3   1.00
      2.6158400             -0.2503740             -0.0145110
      0.9221670              0.0669570              0.3102630
      0.3412870              1.0545100              0.7544830
SP   1   1.00
      0.1171670              1.0000000              1.0000000
D    1   1.00
      1.3000000              1.0000000
D    1   1.00
      0.3250000              1.0000000
F    1   1.00
      0.5500000              1.0000000
****
Cl     0
S    6   1.00
  25180.1000000              0.0018330
   3780.3500000              0.0140340
    860.4740000              0.0690970
    242.1450000              0.2374520
     77.3349000              0.4830340
     26.2470000              0.3398560
SP   6   1.00
    491.7650000             -0.0022974              0.0039894
    116.9840000             -0.0307140              0.0303180
     37.4153000             -0.1125280              0.1298800
     13.7834000              0.0450160              0.3279510
      5.4521500              0.5893530              0.4535270
      2.2258800              0.4652060              0.2521540
SP   3   1.00
      3.1864900             -0.2518300             -0.0142990
      1.1442700              0.0615890              0.3235720
      0.4203770              1.0601800              0.7435070
SP   1   1.00
      0.1426570              1.0000000              1.0000000
D    1   1.00
      1.5000000              1.0000000
D    1   1.00
      0.3750000              1.0000000
F    1   1.00
      0.7000000              1.0000000
****
}

set {
reference uhf
freeze_core true
e_convergence 10
d_convergence 10
dft_spherical_points 1202
dft_radial_points 99
}

e = energy('b3lyp')

print_out('Grab this energy {0}'.format(e))
--------------------------------------------------------------------------

    Molecular point group: c1

    Geometry (in Bohr), charge = 0, multiplicity = 2:

       Center              X                  Y                   Z               Mass
    ------------   -----------------  -----------------  -----------------  -----------------
         C           -0.321549065489    -0.000001981887    -0.000206335042    12.000000000000
         C            0.060127971511    -1.400905113787    -2.426239284842    12.000000000000
         C            0.060969558211     2.801579116113     0.000189089358    12.000000000000
         C            0.062052338411    -1.400669379687     2.426209313258    12.000000000000
         H            2.082414622311    -1.642130319387    -2.842140957442     1.007825032230
         H           -0.768744710689    -0.389451224687    -4.027527492042     1.007825032230
         H           -0.769869751389    -3.293402047787    -2.352570608142     1.007825032230
         H            2.085090069611     3.287837315413     0.001893582958     1.007825032230
         H           -0.769011513489     3.681912370613     1.675562864858     1.007825032230
         H           -0.767084434089     3.679078885713    -1.676630108442     1.007825032230
         H            2.088032423811    -1.645802733187     2.852289088558     1.007825032230
         H           -0.766064728589    -3.290137842087     2.346232329358     1.007825032230
         H           -0.766866444889    -0.387935847587     4.023453508258     1.007825032230

  Charge       = 0
  Multiplicity = 2
  Basis Set: ANONYMOUSB90A2E57
    Blend: 6-31G_2DFP_
  Basis Set: (ANONYMOUSB90A2E57 AUX)
    Blend: DEF2-UNIVERSAL-JKFIT

    Orbital Energies [Eh]
    ---------------------

    Alpha Occupied:

       1A    -10.180229     2A    -10.167027     3A    -10.166996
       4A    -10.166950     5A     -0.797820     6A     -0.686229
       7A     -0.686170     8A     -0.530754     9A     -0.441360
      10A     -0.434612    11A     -0.434440    12A     -0.383071
      13A     -0.382621    14A     -0.363329    15A     -0.338102
      16A     -0.337797    17A     -0.168846

    Alpha Virtual:

      18A      0.076056    19A      0.134098    20A      0.134195
      21A      0.142342    22A      0.142751    23A      0.154945
      24A      0.178745    25A      0.179018    26A      0.203596
      27A      0.214670    28A      0.276103    29A      0.276145
      30A      0.399120    31A      0.399372    32A      0.403383
      33A      0.424001    34A      0.424206    35A      0.456599
      36A      0.495327    37A      0.495349    38A      0.512266
      39A      0.513978    40A      0.578592    41A      0.578851
      42A      0.591671    43A      0.592188    44A      0.602913
      45A      0.624621    46A      0.631609    47A      0.635911
      48A      0.636348    49A      0.663546    50A      0.663623
      51A      0.683714    52A      0.683941    53A      0.735122
      54A      0.825521    55A      0.825639    56A      0.853869
      57A      0.914873    58A      0.915508    59A      0.944213
      60A      0.944630    61A      0.961132    62A      0.961291
      63A      1.002571    64A      1.127457    65A      1.128284
      66A      1.142576    67A      1.163280    68A      1.163586
      69A      1.223743    70A      1.274671    71A      1.274867
      72A      1.279518    73A      1.324165    74A      1.324313
      75A      1.357007    76A      1.365706    77A      1.365722
      78A      1.392371    79A      1.404173    80A      1.405163
      81A      1.417385    82A      1.418035    83A      1.428111
      84A      1.491037    85A      1.499565    86A      1.542407
      87A      1.542460    88A      1.573872    89A      1.574890
      90A      1.669296    91A      1.739527    92A      1.739718
      93A      1.768539    94A      1.830650    95A      1.831501
      96A      1.971163    97A      2.018573    98A      2.019268
      99A      2.019428   100A      2.052551   101A      2.053483
     102A      2.738804   103A      2.738832   104A      2.791148
     105A      2.811152   106A      2.889950   107A      2.890278
     108A      2.894941   109A      2.929040   110A      2.929652
     111A      2.958827   112A      2.964228   113A      2.964593
     114A      3.034045   115A      3.071261   116A      3.072551
     117A      3.084290   118A      3.168572   119A      3.169035
     120A      3.180381   121A      3.284847   122A      3.285081
     123A      3.325366   124A      3.327108   125A      3.375914
     126A      3.489286   127A      3.491412   128A      3.514466
     129A      3.525176   130A      3.568642   131A      3.568833
     132A      3.575750   133A      3.665951   134A      3.666814
     135A      3.678635   136A      3.693746   137A      3.695061
     138A      3.777608   139A      3.777749   140A      3.790490
     141A      3.912000   142A      3.912252   143A      4.035621
     144A      4.110866   145A      4.111124   146A      4.147856
     147A      4.147919   148A      4.173377   149A      4.202558
     150A      4.203290   151A      4.203986   152A      4.210933
     153A      4.315972   154A      4.316362   155A      4.358859
     156A      4.425001   157A      4.425151   158A      4.442539
     159A      4.516060   160A      4.517338   161A      4.578162
     162A      4.578210   163A      4.618410   164A      4.709846
     165A      4.774250   166A      4.775451   167A      4.837144
     168A      4.962797   169A      5.003111   170A      5.004205
     171A      5.228149   172A      5.246243   173A      5.247343
     174A      5.355027   175A      5.355107   176A      5.479857

    Beta Occupied:

       1A    -10.167780     2A    -10.167753     3A    -10.167721
       4A    -10.166405     5A     -0.781130     6A     -0.684023
       7A     -0.683974     8A     -0.511720     9A     -0.430983
      10A     -0.430788    11A     -0.422065    12A     -0.377174
      13A     -0.376711    14A     -0.362311    15A     -0.333216
      16A     -0.332934

    Beta Virtual:

      17A     -0.025595    18A      0.077063    19A      0.134962
      20A      0.135047    21A      0.144245    22A      0.144608
      23A      0.163372    24A      0.182423    25A      0.182705
      26A      0.214903    27A      0.219000    28A      0.282434
      29A      0.282486    30A      0.400289    31A      0.400533
      32A      0.419771    33A      0.426814    34A      0.427021
      35A      0.468570    36A      0.497587    37A      0.497611
      38A      0.513996    39A      0.556369    40A      0.584147
      41A      0.584416    42A      0.597831    43A      0.598356
      44A      0.610304    45A      0.628030    46A      0.631775
      47A      0.639211    48A      0.639645    49A      0.667074
      50A      0.667169    51A      0.686368    52A      0.686562
      53A      0.757639    54A      0.830672    55A      0.830784
      56A      0.855219    57A      0.922866    58A      0.923450
      59A      0.946052    60A      0.953591    61A      0.966469
      62A      0.966602    63A      1.007763    64A      1.131635
      65A      1.132372    66A      1.155937    67A      1.168262
      68A      1.168634    69A      1.232722    70A      1.280265
      71A      1.280435    72A      1.285279    73A      1.329091
      74A      1.329250    75A      1.366420    76A      1.370937
      77A      1.370992    78A      1.393418    79A      1.407653
      80A      1.408651    81A      1.422444    82A      1.423087
      83A      1.428414    84A      1.492081    85A      1.510025
      86A      1.546623    87A      1.546862    88A      1.581755
      89A      1.582942    90A      1.674157    91A      1.745284
      92A      1.745469    93A      1.779311    94A      1.834516
      95A      1.835359    96A      1.972025    97A      2.025729
      98A      2.025848    99A      2.039921   100A      2.059231
     101A      2.060188   102A      2.747125   103A      2.747177
     104A      2.811564   105A      2.816335   106A      2.902614
     107A      2.902989   108A      2.924704   109A      2.931560
     110A      2.932148   111A      2.959893   112A      2.968755
     113A      2.969120   114A      3.041940   115A      3.081104
     116A      3.082478   117A      3.086101   118A      3.184402
     119A      3.184867   120A      3.187992   121A      3.289654
     122A      3.289959   123A      3.329164   124A      3.330886
     125A      3.383771   126A      3.492031   127A      3.494111
     128A      3.512829   129A      3.528259   130A      3.575350
     131A      3.581984   132A      3.582296   133A      3.670786
     134A      3.671621   135A      3.691939   136A      3.725604
     137A      3.726426   138A      3.782124   139A      3.782216
     140A      3.818993   141A      3.921808   142A      3.922072
     143A      4.046498   144A      4.117733   145A      4.117936
     146A      4.154966   147A      4.155192   148A      4.187408
     149A      4.208891   150A      4.209581   151A      4.211226
     152A      4.215371   153A      4.323453   154A      4.323788
     155A      4.362206   156A      4.433148   157A      4.433318
     158A      4.445450   159A      4.523858   160A      4.525119
     161A      4.588772   162A      4.588849   163A      4.625678
     164A      4.720098   165A      4.781198   166A      4.782459
     167A      4.840063   168A      4.967575   169A      5.007153
     170A      5.008217   171A      5.233896   172A      5.248039
     173A      5.249135   174A      5.361531   175A      5.361598
     176A      5.482179

    Final Occupation by Irrep:
              A
    DOCC [    16 ]
    SOCC [     1 ]

  @DF-UKS Final Energy:  -157.81306939732980

   => Energetics <=

    Nuclear Repulsion Energy =            125.4033592376390231
    One-Electron Energy =                -458.7664714791084748
    Two-Electron Energy =                 195.8574414115660431
    DFT Exchange-Correlation Energy =     -20.3073985674263611
    Empirical Dispersion Energy =           0.0000000000000000
    VV10 Nonlocal Energy =                  0.0000000000000000
    Total Energy =                       -157.8130693973297980

  UHF NO Occupations:
  HONO-2 :   15  A 1.9996018
  HONO-1 :   16  A 1.9989796
  HONO-0 :   17  A 1.0000000
  LUNO+0 :   18  A 0.0010204
  LUNO+1 :   19  A 0.0003982
  LUNO+2 :   20  A 0.0001976
  LUNO+3 :   21  A 0.0001973

Computation Completed

Properties will be evaluated at   0.000000,   0.000000,   0.000000 [a0]

Properties computed using the SCF density matrix

  Nuclear Dipole Moment: [e a0]
     X:     0.8175      Y:    -0.0000      Z:     0.0003

  Electronic Dipole Moment: [e a0]
     X:    -0.7395      Y:     0.0000      Z:    -0.0010

  Dipole Moment: [e a0]
     X:     0.0780      Y:     0.0000      Z:    -0.0008     Total:     0.0780

  Dipole Moment: [D]
     X:     0.1983      Y:     0.0000      Z:    -0.0019     Total:     0.1983

*** tstop() called on n022 at Fri Nov  5 13:36:21 2021
Module time:
	user time   =     597.93 seconds =       9.97 minutes
	system time =      11.66 seconds =       0.19 minutes
	total time  =        153 seconds =       2.55 minutes
Total time:
	user time   =     597.93 seconds =       9.97 minutes
	system time =      11.66 seconds =       0.19 minutes
	total time  =        153 seconds =       2.55 minutes
Grab this energy -157.8130693973298
    Psi4 stopped on: Friday, 05 November 2021 01:36PM
    Psi4 wall time for execution: 0:02:33.32

*** Psi4 exiting successfully. Buy a developer a beer!
