                               Psi4 1.4a2.dev629

  ==> Input File <==

--------------------------------------------------------------------------
import os
memory 14 GB

molecule {
 C   -0.3230389595   -0.0000022921   -0.0004932728
 C    0.0610855049   -1.3985088569   -2.4223182301
 C    0.0608816269    2.7963144659   -0.0000406615
 C    0.0609171958   -1.3978021091    2.4210127961
 H    2.0830243266   -1.6410284225   -2.8420970169
 H   -0.7634022833   -0.3883775828   -4.0176547325
 H   -0.7634750121   -3.2856745844   -2.3454733929
 H    2.0865067433    3.2815093649    0.0000279881
 H   -0.7653907177    3.6747467109    1.6764435754
 H   -0.7655717253    3.6737577045   -1.6757880672
 H    2.0902670908   -1.6405729935    2.8413633852
 H   -0.7673330511   -3.2916573268    2.3424893047
 H   -0.7670786161   -0.3827283917    4.0225283243
units bohr
0 2
}

basis {

assign 6-31g_2dfp_

[ 6-31g_2dfp_ ]

spherical

!----------------------------------------------------------------------
! Basis Set Exchange
! Version v0.8.13
! https://www.basissetexchange.org
!----------------------------------------------------------------------
!   Basis set: 6-31G(2df,p)
! Description: 6-31G(2df,p)
!        Role: orbital
!     Version: 0  (Data from the original Basis Set Exchange)
!----------------------------------------------------------------------

****
H     0
S    3   1.00
     18.7311370              0.03349460
      2.8253937              0.23472695
      0.6401217              0.81375733
S    1   1.00
      0.1612778              1.00000000
P    1   1.00
      1.5000000              1.0000000
P    1   1.00
      0.3750000              1.0000000
****
B     0
S    6   1.00
   2068.8823000              0.0018663
    310.6495700              0.0142515
     70.6830330              0.0695516
     19.8610800              0.2325729
      6.2993048              0.4670787
      2.1270270              0.3634314
SP   3   1.00
      4.7279710             -0.1303938              0.0745976
      1.1903377             -0.1307889              0.3078467
      0.3594117              1.1309444              0.7434568
SP   1   1.00
      0.1267512              1.0000000              1.0000000
D    1   1.00
      0.8020000              1.0000000
D    1   1.00
      0.2005000              1.0000000
F    1   1.00
      0.5000000              1.0000000
****
C     0
S    6   1.00
   3047.5249000              0.0018347
    457.3695100              0.0140373
    103.9486900              0.0688426
     29.2101550              0.2321844
      9.2866630              0.4679413
      3.1639270              0.3623120
SP   3   1.00
      7.8682724             -0.1193324              0.0689991
      1.8812885             -0.1608542              0.3164240
      0.5442493              1.1434564              0.7443083
SP   1   1.00
      0.1687144              1.0000000              1.0000000
D    1   1.00
      1.2520000              1.0000000
D    1   1.00
      0.3130000              1.0000000
F    1   1.00
      0.8000000              1.0000000
****
N     0
S    6   1.00
   4173.5110000              0.0018348
    627.4579000              0.0139950
    142.9021000              0.0685870
     40.2343300              0.2322410
     12.8202100              0.4690700
      4.3904370              0.3604550
SP   3   1.00
     11.6263580             -0.1149610              0.0675800
      2.7162800             -0.1691180              0.3239070
      0.7722180              1.1458520              0.7408950
SP   1   1.00
      0.2120313              1.0000000              1.0000000
D    1   1.00
      1.8260000              1.0000000
D    1   1.00
      0.4565000              1.0000000
F    1   1.00
      1.0000000              1.0000000
****
O     0
S    6   1.00
   5484.6717000              0.0018311
    825.2349500              0.0139501
    188.0469600              0.0684451
     52.9645000              0.2327143
     16.8975700              0.4701930
      5.7996353              0.3585209
SP   3   1.00
     15.5396160             -0.1107775              0.0708743
      3.5999336             -0.1480263              0.3397528
      1.0137618              1.1307670              0.7271586
SP   1   1.00
      0.2700058              1.0000000              1.0000000
D    1   1.00
      2.5840000              1.0000000
D    1   1.00
      0.6460000              1.0000000
F    1   1.00
      1.4000000              1.0000000
****
F     0
S    6   1.00
   7001.7130900              0.0018196169
   1051.3660900              0.0139160796
    239.2856900              0.0684053245
     67.3974453              0.233185760
     21.5199573              0.471267439
      7.40310130             0.356618546
SP   3   1.00
     20.8479528             -0.108506975            0.0716287243
      4.80830834            -0.146451658            0.3459121030
      1.34406986             1.128688580            0.7224699570
SP   1   1.00
      0.358151393            1.0000000              1.0000000
D    1   1.00
      3.5000000              1.0000000
D    1   1.00
      0.8750000              1.0000000
F    1   1.00
      1.8500000              1.0000000
****
Al     0
S    6   1.00
  13983.1000000              0.00194267
   2098.7500000              0.0148599
    477.7050000              0.0728494
    134.3600000              0.2468300
     42.8709000              0.4872580
     14.5189000              0.3234960
SP   6   1.00
    239.6680000             -0.00292619             0.00460285
     57.4419000             -0.0374080              0.0331990
     18.2859000             -0.1144870              0.1362820
      6.5991400              0.1156350              0.3304760
      2.4904900              0.6125950              0.4491460
      0.9445400              0.3937990              0.2657040
SP   3   1.00
      1.2779000             -0.2276060             -0.0175130
      0.3975900              0.00144583             0.2445330
      0.1600950              1.0927900              0.8049340
SP   1   1.00
      0.0556577              1.0000000              1.0000000
D    1   1.00
      0.6500000              1.0000000
D    1   1.00
      0.1625000              1.0000000
F    1   1.00
      0.2500000              1.0000000
****
Si     0
S    6   1.00
  16115.9000000              0.00195948
   2425.5800000              0.01492880
    553.8670000              0.07284780
    156.3400000              0.24613000
     50.0683000              0.48591400
     17.0178000              0.32500200
SP   6   1.00
    292.7180000             -0.00278094             0.00443826
     69.8731000             -0.03571460             0.03266790
     22.3363000             -0.11498500             0.13472100
      8.1503900              0.09356340             0.32867800
      3.1345800              0.60301700             0.44964000
      1.2254300              0.41895900             0.26137200
SP   3   1.00
      1.7273800             -0.24463000            -0.01779510
      0.5729220              0.00431572             0.25353900
      0.2221920              1.09818000             0.80066900
SP   1   1.00
      0.0778369              1.00000000             1.00000000
D    1   1.00
      0.9000000              1.0000000
D    1   1.00
      0.2250000              1.0000000
F    1   1.00
      0.3200000              1.0000000
****
P     0
S    6   1.00
  19413.3000000              0.0018516
   2909.4200000              0.0142062
    661.3640000              0.0699995
    185.7590000              0.2400790
     59.1943000              0.4847620
     20.0310000              0.3352000
SP   6   1.00
    339.4780000             -0.00278217             0.00456462
     81.0101000             -0.0360499              0.03369360
     25.8780000             -0.1166310              0.13975500
      9.4522100              0.0968328              0.33936200
      3.6656600              0.6144180              0.45092100
      1.4674600              0.4037980              0.23858600
SP   3   1.00
      2.1562300             -0.2529230             -0.01776530
      0.7489970              0.0328517              0.27405800
      0.2831450              1.0812500              0.78542100
SP   1   1.00
      0.0998317              1.0000000              1.00000000
D    1   1.00
      1.1000000              1.0000000
D    1   1.00
      0.2750000              1.0000000
F    1   1.00
      0.4500000              1.0000000
****
S     0
S    6   1.00
  21917.1000000              0.0018690
   3301.4900000              0.0142300
    754.1460000              0.0696960
    212.7110000              0.2384870
     67.9896000              0.4833070
     23.0515000              0.3380740
SP   6   1.00
    423.7350000             -0.0023767              0.0040610
    100.7100000             -0.0316930              0.0306810
     32.1599000             -0.1133170              0.1304520
     11.8079000              0.0560900              0.3272050
      4.6311000              0.5922550              0.4528510
      1.8702500              0.4550060              0.2560420
SP   3   1.00
      2.6158400             -0.2503740             -0.0145110
      0.9221670              0.0669570              0.3102630
      0.3412870              1.0545100              0.7544830
SP   1   1.00
      0.1171670              1.0000000              1.0000000
D    1   1.00
      1.3000000              1.0000000
D    1   1.00
      0.3250000              1.0000000
F    1   1.00
      0.5500000              1.0000000
****
Cl     0
S    6   1.00
  25180.1000000              0.0018330
   3780.3500000              0.0140340
    860.4740000              0.0690970
    242.1450000              0.2374520
     77.3349000              0.4830340
     26.2470000              0.3398560
SP   6   1.00
    491.7650000             -0.0022974              0.0039894
    116.9840000             -0.0307140              0.0303180
     37.4153000             -0.1125280              0.1298800
     13.7834000              0.0450160              0.3279510
      5.4521500              0.5893530              0.4535270
      2.2258800              0.4652060              0.2521540
SP   3   1.00
      3.1864900             -0.2518300             -0.0142990
      1.1442700              0.0615890              0.3235720
      0.4203770              1.0601800              0.7435070
SP   1   1.00
      0.1426570              1.0000000              1.0000000
D    1   1.00
      1.5000000              1.0000000
D    1   1.00
      0.3750000              1.0000000
F    1   1.00
      0.7000000              1.0000000
****
}

set {
reference uhf
freeze_core true
e_convergence 10
d_convergence 10
dft_spherical_points 1202
dft_radial_points 99
}

e = energy('b3lyp')

print_out('Grab this energy {0}'.format(e))
--------------------------------------------------------------------------

    Molecular point group: c1

    Geometry (in Bohr), charge = 0, multiplicity = 2:

       Center              X                  Y                   Z               Mass
    ------------   -----------------  -----------------  -----------------  -----------------
         C           -0.323016877650    -0.000002095369    -0.000138997215    12.000000000000
         C            0.061107586750    -1.398508660169    -2.421963954515    12.000000000000
         C            0.060903708750     2.796314662631     0.000313614085    12.000000000000
         C            0.060939277650    -1.397801912369     2.421367071685    12.000000000000
         H            2.083046408450    -1.641028225769    -2.841742741315     1.007825032230
         H           -0.763380201450    -0.388377386069    -4.017300456915     1.007825032230
         H           -0.763452930250    -3.285674387669    -2.345119117315     1.007825032230
         H            2.086528825150     3.281509561631     0.000382263685     1.007825032230
         H           -0.765368635850     3.674746907631     1.676797850985     1.007825032230
         H           -0.765549643450     3.673757901231    -1.675433791615     1.007825032230
         H            2.090289172650    -1.640572796769     2.841717660785     1.007825032230
         H           -0.767310969250    -3.291657130069     2.342843580285     1.007825032230
         H           -0.767056534250    -0.382728194969     4.022882599885     1.007825032230

  Charge       = 0
  Multiplicity = 2
  Basis Set: ANONYMOUSD1DEFC36
    Blend: 6-31G_2DFP_
  Basis Set: (ANONYMOUSD1DEFC36 AUX)
    Blend: DEF2-UNIVERSAL-JKFIT

    Orbital Energies [Eh]
    ---------------------

    Alpha Occupied:

       1A    -10.179568     2A    -10.167234     3A    -10.166654
       4A    -10.166072     5A     -0.798817     6A     -0.686811
       7A     -0.686168     8A     -0.530773     9A     -0.441722
      10A     -0.435238    11A     -0.435067    12A     -0.382896
      13A     -0.382450    14A     -0.363493    15A     -0.338218
      16A     -0.338154    17A     -0.168636

    Alpha Virtual:

      18A      0.076041    19A      0.134179    20A      0.134194
      21A      0.142741    22A      0.142935    23A      0.154938
      24A      0.178633    25A      0.179279    26A      0.204641
      27A      0.215151    28A      0.276460    29A      0.276552
      30A      0.399122    31A      0.399282    32A      0.403136
      33A      0.423730    34A      0.423919    35A      0.457175
      36A      0.495548    37A      0.495688    38A      0.512499
      39A      0.514380    40A      0.579368    41A      0.579620
      42A      0.591870    43A      0.592469    44A      0.603054
      45A      0.625172    46A      0.632057    47A      0.636723
      48A      0.637485    49A      0.663703    50A      0.664073
      51A      0.684005    52A      0.684625    53A      0.734788
      54A      0.824847    55A      0.825648    56A      0.854918
      57A      0.915744    58A      0.915768    59A      0.944022
      60A      0.945470    61A      0.962012    62A      0.962506
      63A      1.004585    64A      1.128675    65A      1.129332
      66A      1.142571    67A      1.163945    68A      1.164124
      69A      1.224231    70A      1.275216    71A      1.275575
      72A      1.279866    73A      1.324334    74A      1.325041
      75A      1.356152    76A      1.367624    77A      1.368147
      78A      1.393963    79A      1.403370    80A      1.404141
      81A      1.417168    82A      1.417798    83A      1.429323
      84A      1.492714    85A      1.499665    86A      1.543509
      87A      1.543622    88A      1.575330    89A      1.575882
      90A      1.669739    91A      1.739958    92A      1.740101
      93A      1.769848    94A      1.831031    95A      1.834214
      96A      1.973089    97A      2.019853    98A      2.020186
      99A      2.020898   100A      2.057090   101A      2.057249
     102A      2.738629   103A      2.739532   104A      2.792077
     105A      2.814158   106A      2.890797   107A      2.891330
     108A      2.896491   109A      2.929595   110A      2.929768
     111A      2.959244   112A      2.963562   113A      2.964592
     114A      3.033979   115A      3.072009   116A      3.072482
     117A      3.085966   118A      3.169499   119A      3.169765
     120A      3.182492   121A      3.285741   122A      3.285888
     123A      3.327554   124A      3.327642   125A      3.374221
     126A      3.491111   127A      3.492768   128A      3.514789
     129A      3.527662   130A      3.568281   131A      3.568363
     132A      3.577320   133A      3.665580   134A      3.667036
     135A      3.681614   136A      3.695149   137A      3.696067
     138A      3.780708   139A      3.781891   140A      3.789799
     141A      3.913842   142A      3.914761   143A      4.036286
     144A      4.113469   145A      4.114776   146A      4.146934
     147A      4.150787   148A      4.174534   149A      4.202587
     150A      4.205201   151A      4.207070   152A      4.212747
     153A      4.316831   154A      4.318173   155A      4.361465
     156A      4.426268   157A      4.426699   158A      4.445984
     159A      4.519572   160A      4.520084   161A      4.581391
     162A      4.582330   163A      4.624890   164A      4.714270
     165A      4.780916   166A      4.781145   167A      4.840815
     168A      4.965933   169A      5.004020   170A      5.005158
     171A      5.228860   172A      5.244530   173A      5.251903
     174A      5.355203   175A      5.361238   176A      5.485197

    Beta Occupied:

       1A    -10.167997     2A    -10.167414     3A    -10.166831
       4A    -10.165772     5A     -0.782120     6A     -0.684593
       7A     -0.683951     8A     -0.511845     9A     -0.431601
      10A     -0.431408    11A     -0.422324    12A     -0.376953
      13A     -0.376489    14A     -0.362466    15A     -0.333338
      16A     -0.333289

    Beta Virtual:

      17A     -0.025712    18A      0.077062    19A      0.135008
      20A      0.135135    21A      0.144685    22A      0.144786
      23A      0.163441    24A      0.182340    25A      0.182968
      26A      0.215388    27A      0.219842    28A      0.282736
      29A      0.282832    30A      0.400321    31A      0.400488
      32A      0.419485    33A      0.426528    34A      0.426724
      35A      0.469438    36A      0.497822    37A      0.497962
      38A      0.514249    39A      0.556647    40A      0.584919
      41A      0.585184    42A      0.598013    43A      0.598566
      44A      0.610516    45A      0.628608    46A      0.632255
      47A      0.640089    48A      0.640807    49A      0.667209
      50A      0.667610    51A      0.686758    52A      0.687305
      53A      0.757132    54A      0.830007    55A      0.830859
      56A      0.856309    57A      0.923730    58A      0.923751
      59A      0.947309    60A      0.952858    61A      0.967372
      62A      0.967808    63A      1.009750    64A      1.132688
      65A      1.133377    66A      1.155961    67A      1.169006
      68A      1.169213    69A      1.233342    70A      1.280849
      71A      1.281212    72A      1.285553    73A      1.329275
      74A      1.330075    75A      1.365593    76A      1.372874
      77A      1.373368    78A      1.395030    79A      1.406792
      80A      1.407601    81A      1.422225    82A      1.422945
      83A      1.429625    84A      1.493761    85A      1.510172
      86A      1.547816    87A      1.548017    88A      1.583275
      89A      1.583814    90A      1.674591    91A      1.745743
      92A      1.745852    93A      1.780649    94A      1.834933
      95A      1.838059    96A      1.973956    97A      2.026543
      98A      2.026605    99A      2.042051   100A      2.063778
     101A      2.064045   102A      2.746855   103A      2.747786
     104A      2.814575   105A      2.817194   106A      2.903355
     107A      2.903706   108A      2.926232   109A      2.932310
     110A      2.932369   111A      2.960320   112A      2.968125
     113A      2.969236   114A      3.042000   115A      3.081935
     116A      3.082518   117A      3.087832   118A      3.185098
     119A      3.185438   120A      3.190130   121A      3.290689
     122A      3.290890   123A      3.331303   124A      3.331352
     125A      3.382024   126A      3.493868   127A      3.495460
     128A      3.513144   129A      3.530658   130A      3.577087
     131A      3.581668   132A      3.581771   133A      3.670185
     134A      3.671735   135A      3.694918   136A      3.726581
     137A      3.727503   138A      3.785300   139A      3.786427
     140A      3.818211   141A      3.923679   142A      3.924570
     143A      4.047103   144A      4.120229   145A      4.121059
     146A      4.154587   147A      4.157977   148A      4.188700
     149A      4.209551   150A      4.211315   151A      4.213885
     152A      4.217306   153A      4.324425   154A      4.325517
     155A      4.364809   156A      4.434610   157A      4.434955
     158A      4.448927   159A      4.527552   160A      4.527942
     161A      4.592057   162A      4.592901   163A      4.632062
     164A      4.724698   165A      4.787840   166A      4.788132
     167A      4.843730   168A      4.970752   169A      5.008115
     170A      5.009220   171A      5.234609   172A      5.246334
     173A      5.253701   174A      5.361751   175A      5.367756
     176A      5.487540

    Final Occupation by Irrep:
              A
    DOCC [    16 ]
    SOCC [     1 ]

  @DF-UKS Final Energy:  -157.81302754666987

   => Energetics <=

    Nuclear Repulsion Energy =            125.5761914837937638
    One-Electron Energy =                -459.1063128405381804
    Two-Electron Energy =                 196.0280496056307129
    DFT Exchange-Correlation Energy =     -20.3109557955561684
    Empirical Dispersion Energy =           0.0000000000000000
    VV10 Nonlocal Energy =                  0.0000000000000000
    Total Energy =                       -157.8130275466698720

  UHF NO Occupations:
  HONO-2 :   15  A 1.9995992
  HONO-1 :   16  A 1.9989874
  HONO-0 :   17  A 1.0000000
  LUNO+0 :   18  A 0.0010126
  LUNO+1 :   19  A 0.0004008
  LUNO+2 :   20  A 0.0001954
  LUNO+3 :   21  A 0.0001953

Computation Completed

Properties will be evaluated at   0.000000,   0.000000,   0.000000 [a0]

Properties computed using the SCF density matrix

  Nuclear Dipole Moment: [e a0]
     X:     0.8273      Y:    -0.0000      Z:     0.0025

  Electronic Dipole Moment: [e a0]
     X:    -0.7503      Y:     0.0000      Z:    -0.0050

  Dipole Moment: [e a0]
     X:     0.0770      Y:     0.0000      Z:    -0.0025     Total:     0.0771

  Dipole Moment: [D]
     X:     0.1958      Y:     0.0000      Z:    -0.0062     Total:     0.1959

*** tstop() called on n091 at Fri Nov  5 15:06:53 2021
Module time:
	user time   =     496.29 seconds =       8.27 minutes
	system time =       4.57 seconds =       0.08 minutes
	total time  =        126 seconds =       2.10 minutes
Total time:
	user time   =     496.29 seconds =       8.27 minutes
	system time =       4.57 seconds =       0.08 minutes
	total time  =        126 seconds =       2.10 minutes
Grab this energy -157.81302754666987
    Psi4 stopped on: Friday, 05 November 2021 03:06PM
    Psi4 wall time for execution: 0:02:05.94

*** Psi4 exiting successfully. Buy a developer a beer!
