                               Psi4 1.4a2.dev629

  ==> Input File <==

--------------------------------------------------------------------------
import os
memory 14 GB

molecule {
 C   -0.3233174891   -0.0000025326    0.0002573371
 C    0.0630086102   -1.4008708640   -2.4271361464
 C    0.0611136888    2.8024176834   -0.0007678104
 C    0.0594599218   -1.4015436268    2.4267653180
 H    2.0836093116   -1.6443791129   -2.8476977340
 H   -0.7645030678   -0.3907688324   -4.0237875926
 H   -0.7645292860   -3.2893821001   -2.3502257277
 H    2.0836459588    3.2884610951    0.0002324551
 H   -0.7639838422    3.6800092097    1.6738781997
 H   -0.7642573438    3.6800964821   -1.6735466112
 H    2.0839616416   -1.6441731161    2.8478061076
 H   -0.7635579165   -3.2895846840    2.3501878937
 H   -0.7632580642   -0.3903039150    4.0240343111
units bohr
0 2
}

basis {

assign 6-31g_2dfp_

[ 6-31g_2dfp_ ]

spherical

!----------------------------------------------------------------------
! Basis Set Exchange
! Version v0.8.13
! https://www.basissetexchange.org
!----------------------------------------------------------------------
!   Basis set: 6-31G(2df,p)
! Description: 6-31G(2df,p)
!        Role: orbital
!     Version: 0  (Data from the original Basis Set Exchange)
!----------------------------------------------------------------------

****
H     0
S    3   1.00
     18.7311370              0.03349460
      2.8253937              0.23472695
      0.6401217              0.81375733
S    1   1.00
      0.1612778              1.00000000
P    1   1.00
      1.5000000              1.0000000
P    1   1.00
      0.3750000              1.0000000
****
B     0
S    6   1.00
   2068.8823000              0.0018663
    310.6495700              0.0142515
     70.6830330              0.0695516
     19.8610800              0.2325729
      6.2993048              0.4670787
      2.1270270              0.3634314
SP   3   1.00
      4.7279710             -0.1303938              0.0745976
      1.1903377             -0.1307889              0.3078467
      0.3594117              1.1309444              0.7434568
SP   1   1.00
      0.1267512              1.0000000              1.0000000
D    1   1.00
      0.8020000              1.0000000
D    1   1.00
      0.2005000              1.0000000
F    1   1.00
      0.5000000              1.0000000
****
C     0
S    6   1.00
   3047.5249000              0.0018347
    457.3695100              0.0140373
    103.9486900              0.0688426
     29.2101550              0.2321844
      9.2866630              0.4679413
      3.1639270              0.3623120
SP   3   1.00
      7.8682724             -0.1193324              0.0689991
      1.8812885             -0.1608542              0.3164240
      0.5442493              1.1434564              0.7443083
SP   1   1.00
      0.1687144              1.0000000              1.0000000
D    1   1.00
      1.2520000              1.0000000
D    1   1.00
      0.3130000              1.0000000
F    1   1.00
      0.8000000              1.0000000
****
N     0
S    6   1.00
   4173.5110000              0.0018348
    627.4579000              0.0139950
    142.9021000              0.0685870
     40.2343300              0.2322410
     12.8202100              0.4690700
      4.3904370              0.3604550
SP   3   1.00
     11.6263580             -0.1149610              0.0675800
      2.7162800             -0.1691180              0.3239070
      0.7722180              1.1458520              0.7408950
SP   1   1.00
      0.2120313              1.0000000              1.0000000
D    1   1.00
      1.8260000              1.0000000
D    1   1.00
      0.4565000              1.0000000
F    1   1.00
      1.0000000              1.0000000
****
O     0
S    6   1.00
   5484.6717000              0.0018311
    825.2349500              0.0139501
    188.0469600              0.0684451
     52.9645000              0.2327143
     16.8975700              0.4701930
      5.7996353              0.3585209
SP   3   1.00
     15.5396160             -0.1107775              0.0708743
      3.5999336             -0.1480263              0.3397528
      1.0137618              1.1307670              0.7271586
SP   1   1.00
      0.2700058              1.0000000              1.0000000
D    1   1.00
      2.5840000              1.0000000
D    1   1.00
      0.6460000              1.0000000
F    1   1.00
      1.4000000              1.0000000
****
F     0
S    6   1.00
   7001.7130900              0.0018196169
   1051.3660900              0.0139160796
    239.2856900              0.0684053245
     67.3974453              0.233185760
     21.5199573              0.471267439
      7.40310130             0.356618546
SP   3   1.00
     20.8479528             -0.108506975            0.0716287243
      4.80830834            -0.146451658            0.3459121030
      1.34406986             1.128688580            0.7224699570
SP   1   1.00
      0.358151393            1.0000000              1.0000000
D    1   1.00
      3.5000000              1.0000000
D    1   1.00
      0.8750000              1.0000000
F    1   1.00
      1.8500000              1.0000000
****
Al     0
S    6   1.00
  13983.1000000              0.00194267
   2098.7500000              0.0148599
    477.7050000              0.0728494
    134.3600000              0.2468300
     42.8709000              0.4872580
     14.5189000              0.3234960
SP   6   1.00
    239.6680000             -0.00292619             0.00460285
     57.4419000             -0.0374080              0.0331990
     18.2859000             -0.1144870              0.1362820
      6.5991400              0.1156350              0.3304760
      2.4904900              0.6125950              0.4491460
      0.9445400              0.3937990              0.2657040
SP   3   1.00
      1.2779000             -0.2276060             -0.0175130
      0.3975900              0.00144583             0.2445330
      0.1600950              1.0927900              0.8049340
SP   1   1.00
      0.0556577              1.0000000              1.0000000
D    1   1.00
      0.6500000              1.0000000
D    1   1.00
      0.1625000              1.0000000
F    1   1.00
      0.2500000              1.0000000
****
Si     0
S    6   1.00
  16115.9000000              0.00195948
   2425.5800000              0.01492880
    553.8670000              0.07284780
    156.3400000              0.24613000
     50.0683000              0.48591400
     17.0178000              0.32500200
SP   6   1.00
    292.7180000             -0.00278094             0.00443826
     69.8731000             -0.03571460             0.03266790
     22.3363000             -0.11498500             0.13472100
      8.1503900              0.09356340             0.32867800
      3.1345800              0.60301700             0.44964000
      1.2254300              0.41895900             0.26137200
SP   3   1.00
      1.7273800             -0.24463000            -0.01779510
      0.5729220              0.00431572             0.25353900
      0.2221920              1.09818000             0.80066900
SP   1   1.00
      0.0778369              1.00000000             1.00000000
D    1   1.00
      0.9000000              1.0000000
D    1   1.00
      0.2250000              1.0000000
F    1   1.00
      0.3200000              1.0000000
****
P     0
S    6   1.00
  19413.3000000              0.0018516
   2909.4200000              0.0142062
    661.3640000              0.0699995
    185.7590000              0.2400790
     59.1943000              0.4847620
     20.0310000              0.3352000
SP   6   1.00
    339.4780000             -0.00278217             0.00456462
     81.0101000             -0.0360499              0.03369360
     25.8780000             -0.1166310              0.13975500
      9.4522100              0.0968328              0.33936200
      3.6656600              0.6144180              0.45092100
      1.4674600              0.4037980              0.23858600
SP   3   1.00
      2.1562300             -0.2529230             -0.01776530
      0.7489970              0.0328517              0.27405800
      0.2831450              1.0812500              0.78542100
SP   1   1.00
      0.0998317              1.0000000              1.00000000
D    1   1.00
      1.1000000              1.0000000
D    1   1.00
      0.2750000              1.0000000
F    1   1.00
      0.4500000              1.0000000
****
S     0
S    6   1.00
  21917.1000000              0.0018690
   3301.4900000              0.0142300
    754.1460000              0.0696960
    212.7110000              0.2384870
     67.9896000              0.4833070
     23.0515000              0.3380740
SP   6   1.00
    423.7350000             -0.0023767              0.0040610
    100.7100000             -0.0316930              0.0306810
     32.1599000             -0.1133170              0.1304520
     11.8079000              0.0560900              0.3272050
      4.6311000              0.5922550              0.4528510
      1.8702500              0.4550060              0.2560420
SP   3   1.00
      2.6158400             -0.2503740             -0.0145110
      0.9221670              0.0669570              0.3102630
      0.3412870              1.0545100              0.7544830
SP   1   1.00
      0.1171670              1.0000000              1.0000000
D    1   1.00
      1.3000000              1.0000000
D    1   1.00
      0.3250000              1.0000000
F    1   1.00
      0.5500000              1.0000000
****
Cl     0
S    6   1.00
  25180.1000000              0.0018330
   3780.3500000              0.0140340
    860.4740000              0.0690970
    242.1450000              0.2374520
     77.3349000              0.4830340
     26.2470000              0.3398560
SP   6   1.00
    491.7650000             -0.0022974              0.0039894
    116.9840000             -0.0307140              0.0303180
     37.4153000             -0.1125280              0.1298800
     13.7834000              0.0450160              0.3279510
      5.4521500              0.5893530              0.4535270
      2.2258800              0.4652060              0.2521540
SP   3   1.00
      3.1864900             -0.2518300             -0.0142990
      1.1442700              0.0615890              0.3235720
      0.4203770              1.0601800              0.7435070
SP   1   1.00
      0.1426570              1.0000000              1.0000000
D    1   1.00
      1.5000000              1.0000000
D    1   1.00
      0.3750000              1.0000000
F    1   1.00
      0.7000000              1.0000000
****
}

set {
reference uhf
freeze_core true
e_convergence 10
d_convergence 10
dft_spherical_points 1202
dft_radial_points 99
}

e = energy('b3lyp')

print_out('Grab this energy {0}'.format(e))
--------------------------------------------------------------------------

    Molecular point group: c1

    Geometry (in Bohr), charge = 0, multiplicity = 2:

       Center              X                  Y                   Z               Mass
    ------------   -----------------  -----------------  -----------------  -----------------
         C           -0.323376179699    -0.000002230359     0.000427082155    12.000000000000
         C            0.062949919601    -1.400870561759    -2.426966401345    12.000000000000
         C            0.061054998201     2.802417985641    -0.000598065345    12.000000000000
         C            0.059401231201    -1.401543324559     2.426935063055    12.000000000000
         H            2.083550621001    -1.644378810659    -2.847527988945     1.007825032230
         H           -0.764561758399    -0.390768530159    -4.023617847545     1.007825032230
         H           -0.764587976599    -3.289381797859    -2.350055982645     1.007825032230
         H            2.083587268201     3.288461397341     0.000402200155     1.007825032230
         H           -0.764042532799     3.680009511941     1.674047944755     1.007825032230
         H           -0.764316034399     3.680096784341    -1.673376866145     1.007825032230
         H            2.083902951001    -1.644172813859     2.847975852655     1.007825032230
         H           -0.763616607099    -3.289584381759     2.350357638755     1.007825032230
         H           -0.763316754799    -0.390303612759     4.024204056155     1.007825032230

  Charge       = 0
  Multiplicity = 2
  Basis Set: ANONYMOUS6689C7F1
    Blend: 6-31G_2DFP_
  Basis Set: (ANONYMOUS6689C7F1 AUX)
    Blend: DEF2-UNIVERSAL-JKFIT

    Orbital Energies [Eh]
    ---------------------

    Alpha Occupied:

       1A    -10.180274     2A    -10.166515     3A    -10.166484
       4A    -10.166438     5A     -0.797727     6A     -0.686580
       7A     -0.686514     8A     -0.531087     9A     -0.441226
      10A     -0.434910    11A     -0.434708    12A     -0.383009
      13A     -0.382707    14A     -0.363927    15A     -0.338089
      16A     -0.337919    17A     -0.168899

    Alpha Virtual:

      18A      0.076404    19A      0.134489    20A      0.134554
      21A      0.142976    22A      0.143101    23A      0.155178
      24A      0.179171    25A      0.179399    26A      0.203437
      27A      0.215257    28A      0.275954    29A      0.276063
      30A      0.399015    31A      0.399329    32A      0.403554
      33A      0.424322    34A      0.424419    35A      0.456725
      36A      0.495585    37A      0.495643    38A      0.512432
      39A      0.514111    40A      0.579068    41A      0.579240
      42A      0.592114    43A      0.592354    44A      0.603225
      45A      0.625742    46A      0.632478    47A      0.636703
      48A      0.636919    49A      0.663578    50A      0.663922
      51A      0.684256    52A      0.684555    53A      0.735304
      54A      0.826212    55A      0.826238    56A      0.854431
      57A      0.915718    58A      0.915760    59A      0.944753
      60A      0.945405    61A      0.961869    62A      0.962025
      63A      1.003553    64A      1.128423    65A      1.128638
      66A      1.143091    67A      1.163432    68A      1.163618
      69A      1.223766    70A      1.274885    71A      1.275167
      72A      1.278902    73A      1.324810    74A      1.325318
      75A      1.356843    76A      1.366247    77A      1.366861
      78A      1.393032    79A      1.404962    80A      1.405199
      81A      1.417745    82A      1.418335    83A      1.428662
      84A      1.492389    85A      1.500432    86A      1.543288
      87A      1.543341    88A      1.574504    89A      1.574784
      90A      1.671985    91A      1.740439    92A      1.741257
      93A      1.769856    94A      1.833691    95A      1.834090
      96A      1.973357    97A      2.019281    98A      2.019710
      99A      2.020883   100A      2.053345   101A      2.054095
     102A      2.739424   103A      2.739504   104A      2.791138
     105A      2.811941   106A      2.890242   107A      2.890784
     108A      2.895019   109A      2.929856   110A      2.929919
     111A      2.959623   112A      2.964932   113A      2.965144
     114A      3.034922   115A      3.072116   116A      3.072356
     117A      3.085288   118A      3.168004   119A      3.168250
     120A      3.180885   121A      3.285246   122A      3.285315
     123A      3.326499   124A      3.326818   125A      3.374917
     126A      3.488853   127A      3.489480   128A      3.513729
     129A      3.524715   130A      3.568463   131A      3.568684
     132A      3.573477   133A      3.666776   134A      3.667399
     135A      3.681458   136A      3.694951   137A      3.695009
     138A      3.777300   139A      3.777392   140A      3.789677
     141A      3.913078   142A      3.913245   143A      4.036788
     144A      4.113741   145A      4.113941   146A      4.151400
     147A      4.151496   148A      4.176230   149A      4.203898
     150A      4.204426   151A      4.204786   152A      4.214553
     153A      4.317782   154A      4.318643   155A      4.361405
     156A      4.426908   157A      4.427154   158A      4.445433
     159A      4.518212   160A      4.520327   161A      4.579546
     162A      4.579964   163A      4.618204   164A      4.711482
     165A      4.775852   166A      4.776877   167A      4.839230
     168A      4.963676   169A      5.003607   170A      5.004500
     171A      5.233341   172A      5.252083   173A      5.252129
     174A      5.359844   175A      5.360365   176A      5.482594

    Beta Occupied:

       1A    -10.167269     2A    -10.167239     3A    -10.167208
       4A    -10.166431     5A     -0.781079     6A     -0.684381
       7A     -0.684315     8A     -0.512000     9A     -0.431296
      10A     -0.431084    11A     -0.421957    12A     -0.377111
      13A     -0.376792    14A     -0.362915    15A     -0.333204
      16A     -0.333031

    Beta Virtual:

      17A     -0.025510    18A      0.077409    19A      0.135395
      20A      0.135443    21A      0.144823    22A      0.144940
      23A      0.163574    24A      0.182831    25A      0.183063
      26A      0.215484    27A      0.218839    28A      0.282313
      29A      0.282418    30A      0.400180    31A      0.400496
      32A      0.420013    33A      0.427133    34A      0.427235
      35A      0.468614    36A      0.497848    37A      0.497898
      38A      0.514161    39A      0.556515    40A      0.584639
      41A      0.584802    42A      0.598310    43A      0.598559
      44A      0.610636    45A      0.629105    46A      0.632628
      47A      0.639966    48A      0.640184    49A      0.667162
      50A      0.667475    51A      0.686853    52A      0.687158
      53A      0.757853    54A      0.831380    55A      0.831402
      56A      0.855760    57A      0.923677    58A      0.923716
      59A      0.946588    60A      0.954356    61A      0.967160
      62A      0.967329    63A      1.008804    64A      1.132399
      65A      1.132690    66A      1.156461    67A      1.168582
      68A      1.168672    69A      1.232721    70A      1.280466
      71A      1.280757    72A      1.284642    73A      1.329815
      74A      1.330345    75A      1.366283    76A      1.371488
      77A      1.372103    78A      1.394084    79A      1.408411
      80A      1.408674    81A      1.422811    82A      1.423370
      83A      1.428920    84A      1.493443    85A      1.510876
      86A      1.547549    87A      1.547635    88A      1.582536
      89A      1.582710    90A      1.676908    91A      1.746214
      92A      1.747019    93A      1.780578    94A      1.837516
      95A      1.837915    96A      1.974212    97A      2.025991
      98A      2.027265    99A      2.040744   100A      2.060083
     101A      2.060780   102A      2.747776   103A      2.747847
     104A      2.812355   105A      2.816299   106A      2.902984
     107A      2.903509   108A      2.924766   109A      2.932288
     110A      2.932345   111A      2.960691   112A      2.969522
     113A      2.969725   114A      3.042778   115A      3.082087
     116A      3.082315   117A      3.087119   118A      3.183728
     119A      3.183932   120A      3.188622   121A      3.290000
     122A      3.290050   123A      3.330297   124A      3.330643
     125A      3.382758   126A      3.491630   127A      3.492254
     128A      3.512099   129A      3.527776   130A      3.573330
     131A      3.581884   132A      3.581981   133A      3.671876
     134A      3.672369   135A      3.694815   136A      3.726307
     137A      3.726581   138A      3.781821   139A      3.781891
     140A      3.818251   141A      3.922865   142A      3.923063
     143A      4.047800   144A      4.120685   145A      4.120779
     146A      4.158530   147A      4.158716   148A      4.190146
     149A      4.210242   150A      4.210605   151A      4.212026
     152A      4.218998   153A      4.325114   154A      4.326025
     155A      4.364760   156A      4.435106   157A      4.435330
     158A      4.448296   159A      4.525995   160A      4.528103
     161A      4.590129   162A      4.590519   163A      4.625388
     164A      4.721822   165A      4.782820   166A      4.783808
     167A      4.842152   168A      4.968444   169A      5.007644
     170A      5.008502   171A      5.239032   172A      5.253861
     173A      5.253908   174A      5.366298   175A      5.366817
     176A      5.484903

    Final Occupation by Irrep:
              A
    DOCC [    16 ]
    SOCC [     1 ]

  @DF-UKS Final Energy:  -157.81302101468691

   => Energetics <=

    Nuclear Repulsion Energy =            125.4320353590500758
    One-Electron Energy =                -458.8198001521921015
    Two-Electron Energy =                 195.8859162943924161
    DFT Exchange-Correlation Energy =     -20.3111725159373044
    Empirical Dispersion Energy =           0.0000000000000000
    VV10 Nonlocal Energy =                  0.0000000000000000
    Total Energy =                       -157.8130210146869103

  UHF NO Occupations:
  HONO-2 :   15  A 1.9996034
  HONO-1 :   16  A 1.9989797
  HONO-0 :   17  A 1.0000000
  LUNO+0 :   18  A 0.0010203
  LUNO+1 :   19  A 0.0003966
  LUNO+2 :   20  A 0.0001980
  LUNO+3 :   21  A 0.0001978

Computation Completed

Properties will be evaluated at   0.000000,   0.000000,   0.000000 [a0]

Properties computed using the SCF density matrix

  Nuclear Dipole Moment: [e a0]
     X:     0.8268      Y:    -0.0000      Z:     0.0012

  Electronic Dipole Moment: [e a0]
     X:    -0.7482      Y:     0.0000      Z:    -0.0011

  Dipole Moment: [e a0]
     X:     0.0785      Y:     0.0000      Z:     0.0001     Total:     0.0785

  Dipole Moment: [D]
     X:     0.1996      Y:     0.0000      Z:     0.0003     Total:     0.1996

*** tstop() called on n089 at Fri Nov  5 12:19:40 2021
Module time:
	user time   =     505.39 seconds =       8.42 minutes
	system time =       4.73 seconds =       0.08 minutes
	total time  =        128 seconds =       2.13 minutes
Total time:
	user time   =     505.39 seconds =       8.42 minutes
	system time =       4.73 seconds =       0.08 minutes
	total time  =        128 seconds =       2.13 minutes
Grab this energy -157.8130210146869
    Psi4 stopped on: Friday, 05 November 2021 12:19PM
    Psi4 wall time for execution: 0:02:08.27

*** Psi4 exiting successfully. Buy a developer a beer!
