                               Psi4 1.4a2.dev629

  ==> Input File <==

--------------------------------------------------------------------------
import os
memory 14 GB

molecule {
 C   -0.3223079916    0.0000050695    0.0049988294
 C    0.0627236218   -1.3946684734   -2.4218648533
 C    0.0620792352    2.8015916375   -0.0062283166
 C    0.0616792207   -1.4069157561    2.4306209717
 H    2.0842995744   -1.6350965791   -2.8429861583
 H   -0.7649122093   -0.3770278581   -4.0199071413
 H   -0.7623207937   -3.2883797248   -2.3478227769
 H    2.0834826300    3.2876578801   -0.0111332366
 H   -0.7619348332    3.6880849811    1.6693883673
 H   -0.7674547268    3.6728821636   -1.6882765013
 H    2.0829526505   -1.6526670645    2.8511524113
 H   -0.7669117267   -3.2999141869    2.3482344793
 H   -0.7639825279   -0.3955764024    4.0338239251
units bohr
0 2
}

basis {

assign 6-31g_2dfp_

[ 6-31g_2dfp_ ]

spherical

!----------------------------------------------------------------------
! Basis Set Exchange
! Version v0.8.13
! https://www.basissetexchange.org
!----------------------------------------------------------------------
!   Basis set: 6-31G(2df,p)
! Description: 6-31G(2df,p)
!        Role: orbital
!     Version: 0  (Data from the original Basis Set Exchange)
!----------------------------------------------------------------------

****
H     0
S    3   1.00
     18.7311370              0.03349460
      2.8253937              0.23472695
      0.6401217              0.81375733
S    1   1.00
      0.1612778              1.00000000
P    1   1.00
      1.5000000              1.0000000
P    1   1.00
      0.3750000              1.0000000
****
B     0
S    6   1.00
   2068.8823000              0.0018663
    310.6495700              0.0142515
     70.6830330              0.0695516
     19.8610800              0.2325729
      6.2993048              0.4670787
      2.1270270              0.3634314
SP   3   1.00
      4.7279710             -0.1303938              0.0745976
      1.1903377             -0.1307889              0.3078467
      0.3594117              1.1309444              0.7434568
SP   1   1.00
      0.1267512              1.0000000              1.0000000
D    1   1.00
      0.8020000              1.0000000
D    1   1.00
      0.2005000              1.0000000
F    1   1.00
      0.5000000              1.0000000
****
C     0
S    6   1.00
   3047.5249000              0.0018347
    457.3695100              0.0140373
    103.9486900              0.0688426
     29.2101550              0.2321844
      9.2866630              0.4679413
      3.1639270              0.3623120
SP   3   1.00
      7.8682724             -0.1193324              0.0689991
      1.8812885             -0.1608542              0.3164240
      0.5442493              1.1434564              0.7443083
SP   1   1.00
      0.1687144              1.0000000              1.0000000
D    1   1.00
      1.2520000              1.0000000
D    1   1.00
      0.3130000              1.0000000
F    1   1.00
      0.8000000              1.0000000
****
N     0
S    6   1.00
   4173.5110000              0.0018348
    627.4579000              0.0139950
    142.9021000              0.0685870
     40.2343300              0.2322410
     12.8202100              0.4690700
      4.3904370              0.3604550
SP   3   1.00
     11.6263580             -0.1149610              0.0675800
      2.7162800             -0.1691180              0.3239070
      0.7722180              1.1458520              0.7408950
SP   1   1.00
      0.2120313              1.0000000              1.0000000
D    1   1.00
      1.8260000              1.0000000
D    1   1.00
      0.4565000              1.0000000
F    1   1.00
      1.0000000              1.0000000
****
O     0
S    6   1.00
   5484.6717000              0.0018311
    825.2349500              0.0139501
    188.0469600              0.0684451
     52.9645000              0.2327143
     16.8975700              0.4701930
      5.7996353              0.3585209
SP   3   1.00
     15.5396160             -0.1107775              0.0708743
      3.5999336             -0.1480263              0.3397528
      1.0137618              1.1307670              0.7271586
SP   1   1.00
      0.2700058              1.0000000              1.0000000
D    1   1.00
      2.5840000              1.0000000
D    1   1.00
      0.6460000              1.0000000
F    1   1.00
      1.4000000              1.0000000
****
F     0
S    6   1.00
   7001.7130900              0.0018196169
   1051.3660900              0.0139160796
    239.2856900              0.0684053245
     67.3974453              0.233185760
     21.5199573              0.471267439
      7.40310130             0.356618546
SP   3   1.00
     20.8479528             -0.108506975            0.0716287243
      4.80830834            -0.146451658            0.3459121030
      1.34406986             1.128688580            0.7224699570
SP   1   1.00
      0.358151393            1.0000000              1.0000000
D    1   1.00
      3.5000000              1.0000000
D    1   1.00
      0.8750000              1.0000000
F    1   1.00
      1.8500000              1.0000000
****
Al     0
S    6   1.00
  13983.1000000              0.00194267
   2098.7500000              0.0148599
    477.7050000              0.0728494
    134.3600000              0.2468300
     42.8709000              0.4872580
     14.5189000              0.3234960
SP   6   1.00
    239.6680000             -0.00292619             0.00460285
     57.4419000             -0.0374080              0.0331990
     18.2859000             -0.1144870              0.1362820
      6.5991400              0.1156350              0.3304760
      2.4904900              0.6125950              0.4491460
      0.9445400              0.3937990              0.2657040
SP   3   1.00
      1.2779000             -0.2276060             -0.0175130
      0.3975900              0.00144583             0.2445330
      0.1600950              1.0927900              0.8049340
SP   1   1.00
      0.0556577              1.0000000              1.0000000
D    1   1.00
      0.6500000              1.0000000
D    1   1.00
      0.1625000              1.0000000
F    1   1.00
      0.2500000              1.0000000
****
Si     0
S    6   1.00
  16115.9000000              0.00195948
   2425.5800000              0.01492880
    553.8670000              0.07284780
    156.3400000              0.24613000
     50.0683000              0.48591400
     17.0178000              0.32500200
SP   6   1.00
    292.7180000             -0.00278094             0.00443826
     69.8731000             -0.03571460             0.03266790
     22.3363000             -0.11498500             0.13472100
      8.1503900              0.09356340             0.32867800
      3.1345800              0.60301700             0.44964000
      1.2254300              0.41895900             0.26137200
SP   3   1.00
      1.7273800             -0.24463000            -0.01779510
      0.5729220              0.00431572             0.25353900
      0.2221920              1.09818000             0.80066900
SP   1   1.00
      0.0778369              1.00000000             1.00000000
D    1   1.00
      0.9000000              1.0000000
D    1   1.00
      0.2250000              1.0000000
F    1   1.00
      0.3200000              1.0000000
****
P     0
S    6   1.00
  19413.3000000              0.0018516
   2909.4200000              0.0142062
    661.3640000              0.0699995
    185.7590000              0.2400790
     59.1943000              0.4847620
     20.0310000              0.3352000
SP   6   1.00
    339.4780000             -0.00278217             0.00456462
     81.0101000             -0.0360499              0.03369360
     25.8780000             -0.1166310              0.13975500
      9.4522100              0.0968328              0.33936200
      3.6656600              0.6144180              0.45092100
      1.4674600              0.4037980              0.23858600
SP   3   1.00
      2.1562300             -0.2529230             -0.01776530
      0.7489970              0.0328517              0.27405800
      0.2831450              1.0812500              0.78542100
SP   1   1.00
      0.0998317              1.0000000              1.00000000
D    1   1.00
      1.1000000              1.0000000
D    1   1.00
      0.2750000              1.0000000
F    1   1.00
      0.4500000              1.0000000
****
S     0
S    6   1.00
  21917.1000000              0.0018690
   3301.4900000              0.0142300
    754.1460000              0.0696960
    212.7110000              0.2384870
     67.9896000              0.4833070
     23.0515000              0.3380740
SP   6   1.00
    423.7350000             -0.0023767              0.0040610
    100.7100000             -0.0316930              0.0306810
     32.1599000             -0.1133170              0.1304520
     11.8079000              0.0560900              0.3272050
      4.6311000              0.5922550              0.4528510
      1.8702500              0.4550060              0.2560420
SP   3   1.00
      2.6158400             -0.2503740             -0.0145110
      0.9221670              0.0669570              0.3102630
      0.3412870              1.0545100              0.7544830
SP   1   1.00
      0.1171670              1.0000000              1.0000000
D    1   1.00
      1.3000000              1.0000000
D    1   1.00
      0.3250000              1.0000000
F    1   1.00
      0.5500000              1.0000000
****
Cl     0
S    6   1.00
  25180.1000000              0.0018330
   3780.3500000              0.0140340
    860.4740000              0.0690970
    242.1450000              0.2374520
     77.3349000              0.4830340
     26.2470000              0.3398560
SP   6   1.00
    491.7650000             -0.0022974              0.0039894
    116.9840000             -0.0307140              0.0303180
     37.4153000             -0.1125280              0.1298800
     13.7834000              0.0450160              0.3279510
      5.4521500              0.5893530              0.4535270
      2.2258800              0.4652060              0.2521540
SP   3   1.00
      3.1864900             -0.2518300             -0.0142990
      1.1442700              0.0615890              0.3235720
      0.4203770              1.0601800              0.7435070
SP   1   1.00
      0.1426570              1.0000000              1.0000000
D    1   1.00
      1.5000000              1.0000000
D    1   1.00
      0.3750000              1.0000000
F    1   1.00
      0.7000000              1.0000000
****
}

set {
reference uhf
freeze_core true
e_convergence 10
d_convergence 10
dft_spherical_points 1202
dft_radial_points 99
}

e = energy('b3lyp')

print_out('Grab this energy {0}'.format(e))
--------------------------------------------------------------------------

    Molecular point group: c1

    Geometry (in Bohr), charge = 0, multiplicity = 2:

       Center              X                  Y                   Z               Mass
    ------------   -----------------  -----------------  -----------------  -----------------
         C           -0.323119652018     0.000003095604     0.003549146023    12.000000000000
         C            0.061911961382    -1.394670447296    -2.423314536677    12.000000000000
         C            0.061267574782     2.801589663604    -0.007677999977    12.000000000000
         C            0.060867560282    -1.406917729996     2.429171288323    12.000000000000
         H            2.083487913982    -1.635098552996    -2.844435841677     1.007825032230
         H           -0.765723869718    -0.377029831996    -4.021356824677     1.007825032230
         H           -0.763132454118    -3.288381698696    -2.349272460277     1.007825032230
         H            2.082670969582     3.287655906204    -0.012582919977     1.007825032230
         H           -0.762746493618     3.688083007204     1.667938683923     1.007825032230
         H           -0.768266387218     3.672880189704    -1.689726184677     1.007825032230
         H            2.082140990082    -1.652669038396     2.849702727923     1.007825032230
         H           -0.767723387118    -3.299916160796     2.346784795923     1.007825032230
         H           -0.764794188318    -0.395578376296     4.032374241723     1.007825032230

  Charge       = 0
  Multiplicity = 2
  Basis Set: ANONYMOUS08202051
    Blend: 6-31G_2DFP_
  Basis Set: (ANONYMOUS08202051 AUX)
    Blend: DEF2-UNIVERSAL-JKFIT

    Orbital Energies [Eh]
    ---------------------

    Alpha Occupied:

       1A    -10.180284     2A    -10.167283     3A    -10.167012
       4A    -10.166740     5A     -0.797807     6A     -0.686413
       7A     -0.685972     8A     -0.530788     9A     -0.441222
      10A     -0.434893    11A     -0.434363    12A     -0.382879
      13A     -0.382589    14A     -0.363432    15A     -0.338218
      16A     -0.337670    17A     -0.168925

    Alpha Virtual:

      18A      0.075986    19A      0.133905    20A      0.134390
      21A      0.142427    22A      0.142697    23A      0.155046
      24A      0.178732    25A      0.179183    26A      0.203586
      27A      0.214533    28A      0.275842    29A      0.276180
      30A      0.399175    31A      0.399455    32A      0.403498
      33A      0.423778    34A      0.424049    35A      0.456672
      36A      0.494807    37A      0.495606    38A      0.512290
      39A      0.514140    40A      0.578732    41A      0.579203
      42A      0.591872    43A      0.591944    44A      0.603326
      45A      0.624267    46A      0.631382    47A      0.635658
      48A      0.636098    49A      0.663694    50A      0.664125
      51A      0.683360    52A      0.683853    53A      0.734932
      54A      0.824609    55A      0.826256    56A      0.854194
      57A      0.915006    58A      0.915493    59A      0.943768
      60A      0.944375    61A      0.961230    62A      0.961759
      63A      1.003656    64A      1.126707    65A      1.129036
      66A      1.142934    67A      1.162509    68A      1.163488
      69A      1.222919    70A      1.274221    71A      1.275256
      72A      1.279515    73A      1.324477    74A      1.324649
      75A      1.355453    76A      1.365350    77A      1.366829
      78A      1.392483    79A      1.404306    80A      1.405906
      81A      1.415671    82A      1.416635    83A      1.428142
      84A      1.491454    85A      1.500017    86A      1.542842
      87A      1.543576    88A      1.572266    89A      1.575991
      90A      1.668555    91A      1.739191    92A      1.741311
      93A      1.770200    94A      1.829491    95A      1.830518
      96A      1.970706    97A      2.017570    98A      2.018378
      99A      2.020300   100A      2.051445   101A      2.056674
     102A      2.737898   103A      2.738437   104A      2.791315
     105A      2.810983   106A      2.890227   107A      2.890424
     108A      2.895278   109A      2.929115   110A      2.929459
     111A      2.959127   112A      2.963918   113A      2.965718
     114A      3.034712   115A      3.070317   116A      3.072286
     117A      3.082991   118A      3.168157   119A      3.169701
     120A      3.180614   121A      3.284702   122A      3.286108
     123A      3.325589   124A      3.327489   125A      3.375485
     126A      3.489881   127A      3.490838   128A      3.515246
     129A      3.524120   130A      3.567601   131A      3.569858
     132A      3.576186   133A      3.666649   134A      3.666884
     135A      3.679046   136A      3.693487   137A      3.694359
     138A      3.775524   139A      3.777168   140A      3.790066
     141A      3.910246   142A      3.913101   143A      4.034004
     144A      4.110058   145A      4.112773   146A      4.147003
     147A      4.150345   148A      4.174903   149A      4.200536
     150A      4.202811   151A      4.203906   152A      4.212072
     153A      4.316399   154A      4.316437   155A      4.357788
     156A      4.424989   157A      4.425257   158A      4.443322
     159A      4.516720   160A      4.518306   161A      4.576503
     162A      4.578671   163A      4.617631   164A      4.709997
     165A      4.773162   166A      4.775820   167A      4.835576
     168A      4.962556   169A      5.003281   170A      5.005247
     171A      5.230776   172A      5.243668   173A      5.243981
     174A      5.356792   175A      5.358197   176A      5.477383

    Beta Occupied:

       1A    -10.168038     2A    -10.167770     3A    -10.167502
       4A    -10.166455     5A     -0.781126     6A     -0.684208
       7A     -0.683758     8A     -0.511710     9A     -0.431248
      10A     -0.430702    11A     -0.421978    12A     -0.376999
      13A     -0.376690    14A     -0.362407    15A     -0.333349
      16A     -0.332793

    Beta Virtual:

      17A     -0.025616    18A      0.076979    19A      0.134719
      20A      0.135222    21A      0.144325    22A      0.144586
      23A      0.163485    24A      0.182421    25A      0.182891
      26A      0.214770    27A      0.218970    28A      0.282173
      29A      0.282535    30A      0.400397    31A      0.400626
      32A      0.419787    33A      0.426574    34A      0.426876
      35A      0.468682    36A      0.497056    37A      0.497863
      38A      0.514018    39A      0.556520    40A      0.584284
      41A      0.584697    42A      0.598046    43A      0.598143
      44A      0.610607    45A      0.627789    46A      0.631541
      47A      0.638966    48A      0.639437    49A      0.667202
      50A      0.667681    51A      0.685956    52A      0.686554
      53A      0.757458    54A      0.829746    55A      0.831412
      56A      0.855539    57A      0.922945    58A      0.923458
      59A      0.945635    60A      0.953242    61A      0.966518
      62A      0.967148    63A      1.008933    64A      1.130707
      65A      1.133021    66A      1.156226    67A      1.167576
      68A      1.168622    69A      1.231905    70A      1.279837
      71A      1.280880    72A      1.285325    73A      1.329404
      74A      1.329606    75A      1.364889    76A      1.370420
      77A      1.372102    78A      1.393528    79A      1.407858
      80A      1.409391    81A      1.420753    82A      1.421723
      83A      1.428407    84A      1.492532    85A      1.510452
      86A      1.547110    87A      1.548055    88A      1.580307
      89A      1.583732    90A      1.673352    91A      1.744963
      92A      1.747075    93A      1.780991    94A      1.833327
      95A      1.834390    96A      1.971582    97A      2.024060
      98A      2.026898    99A      2.039745   100A      2.058126
     101A      2.063186   102A      2.746180   103A      2.746809
     104A      2.811393   105A      2.816488   106A      2.902978
     107A      2.903102   108A      2.925180   109A      2.931689
     110A      2.931848   111A      2.960197   112A      2.968527
     113A      2.970263   114A      3.042435   115A      3.080064
     116A      3.082191   117A      3.085009   118A      3.183997
     119A      3.185313   120A      3.188311   121A      3.289538
     122A      3.290812   123A      3.329423   124A      3.331339
     125A      3.383327   126A      3.492654   127A      3.493599
     128A      3.513622   129A      3.527187   130A      3.575582
     131A      3.581005   132A      3.583250   133A      3.671466
     134A      3.671756   135A      3.692368   136A      3.725156
     137A      3.725938   138A      3.780130   139A      3.781816
     140A      3.818516   141A      3.920006   142A      3.922861
     143A      4.044829   144A      4.116875   145A      4.119577
     146A      4.154276   147A      4.157507   148A      4.188936
     149A      4.206340   150A      4.209704   151A      4.210878
     152A      4.216440   153A      4.323888   154A      4.323949
     155A      4.361195   156A      4.433188   157A      4.433439
     158A      4.446308   159A      4.524571   160A      4.525959
     161A      4.587066   162A      4.589395   163A      4.624917
     164A      4.720225   165A      4.780129   166A      4.782858
     167A      4.838507   168A      4.967339   169A      5.007296
     170A      5.009260   171A      5.236520   172A      5.245465
     173A      5.245787   174A      5.363281   175A      5.364723
     176A      5.479716

    Final Occupation by Irrep:
              A
    DOCC [    16 ]
    SOCC [     1 ]

  @DF-UKS Final Energy:  -157.81305111571439

   => Energetics <=

    Nuclear Repulsion Energy =            125.4002558284750535
    One-Electron Energy =                -458.7601469102500573
    Two-Electron Energy =                 195.8541001509246939
    DFT Exchange-Correlation Energy =     -20.3072601848640737
    Empirical Dispersion Energy =           0.0000000000000000
    VV10 Nonlocal Energy =                  0.0000000000000000
    Total Energy =                       -157.8130511157143872

  UHF NO Occupations:
  HONO-2 :   15  A 1.9996032
  HONO-1 :   16  A 1.9989813
  HONO-0 :   17  A 1.0000000
  LUNO+0 :   18  A 0.0010187
  LUNO+1 :   19  A 0.0003968
  LUNO+2 :   20  A 0.0001979
  LUNO+3 :   21  A 0.0001972

Computation Completed

Properties will be evaluated at   0.000000,   0.000000,   0.000000 [a0]

Properties computed using the SCF density matrix

  Nuclear Dipole Moment: [e a0]
     X:     0.8215      Y:    -0.0000      Z:    -0.0102

  Electronic Dipole Moment: [e a0]
     X:    -0.7404      Y:     0.0000      Z:     0.0110

  Dipole Moment: [e a0]
     X:     0.0811      Y:    -0.0000      Z:     0.0007     Total:     0.0811

  Dipole Moment: [D]
     X:     0.2061      Y:    -0.0000      Z:     0.0019     Total:     0.2062

*** tstop() called on n054 at Fri Nov  5 14:54:23 2021
Module time:
	user time   =     545.96 seconds =       9.10 minutes
	system time =      12.55 seconds =       0.21 minutes
	total time  =        141 seconds =       2.35 minutes
Total time:
	user time   =     545.96 seconds =       9.10 minutes
	system time =      12.55 seconds =       0.21 minutes
	total time  =        141 seconds =       2.35 minutes
Grab this energy -157.8130511157144
    Psi4 stopped on: Friday, 05 November 2021 02:54PM
    Psi4 wall time for execution: 0:02:20.44

*** Psi4 exiting successfully. Buy a developer a beer!
