                               Psi4 1.4a2.dev629

  ==> Input File <==

--------------------------------------------------------------------------
import os
memory 14 GB

molecule {
 C   -0.3236415587   -0.0000020573    0.0000000191
 C    0.0612779827   -1.4042923316   -2.4306966069
 C    0.0611579180    2.8072045751   -0.0007992793
 C    0.0612779087   -1.4029079496    2.4314958996
 H    2.0872283128   -1.6487668345   -2.8523617727
 H   -0.7662420401   -0.3895501253   -4.0265251760
 H   -0.7650600043   -3.2984226068   -2.3573337877
 H    2.0870890221    3.2946987177   -0.0015831524
 H   -0.7664831209    3.6818223404    1.6758711964
 H   -0.7651382234    3.6906936959   -1.6778895033
 H    2.0872281252   -1.6460243603    2.8539440756
 H   -0.7664053979   -3.2922392484    2.3506606765
 H   -0.7648968010   -0.3922381288    4.0352174112
units bohr
0 2
}

basis {

assign 6-31g_2dfp_

[ 6-31g_2dfp_ ]

spherical

!----------------------------------------------------------------------
! Basis Set Exchange
! Version v0.8.13
! https://www.basissetexchange.org
!----------------------------------------------------------------------
!   Basis set: 6-31G(2df,p)
! Description: 6-31G(2df,p)
!        Role: orbital
!     Version: 0  (Data from the original Basis Set Exchange)
!----------------------------------------------------------------------

****
H     0
S    3   1.00
     18.7311370              0.03349460
      2.8253937              0.23472695
      0.6401217              0.81375733
S    1   1.00
      0.1612778              1.00000000
P    1   1.00
      1.5000000              1.0000000
P    1   1.00
      0.3750000              1.0000000
****
B     0
S    6   1.00
   2068.8823000              0.0018663
    310.6495700              0.0142515
     70.6830330              0.0695516
     19.8610800              0.2325729
      6.2993048              0.4670787
      2.1270270              0.3634314
SP   3   1.00
      4.7279710             -0.1303938              0.0745976
      1.1903377             -0.1307889              0.3078467
      0.3594117              1.1309444              0.7434568
SP   1   1.00
      0.1267512              1.0000000              1.0000000
D    1   1.00
      0.8020000              1.0000000
D    1   1.00
      0.2005000              1.0000000
F    1   1.00
      0.5000000              1.0000000
****
C     0
S    6   1.00
   3047.5249000              0.0018347
    457.3695100              0.0140373
    103.9486900              0.0688426
     29.2101550              0.2321844
      9.2866630              0.4679413
      3.1639270              0.3623120
SP   3   1.00
      7.8682724             -0.1193324              0.0689991
      1.8812885             -0.1608542              0.3164240
      0.5442493              1.1434564              0.7443083
SP   1   1.00
      0.1687144              1.0000000              1.0000000
D    1   1.00
      1.2520000              1.0000000
D    1   1.00
      0.3130000              1.0000000
F    1   1.00
      0.8000000              1.0000000
****
N     0
S    6   1.00
   4173.5110000              0.0018348
    627.4579000              0.0139950
    142.9021000              0.0685870
     40.2343300              0.2322410
     12.8202100              0.4690700
      4.3904370              0.3604550
SP   3   1.00
     11.6263580             -0.1149610              0.0675800
      2.7162800             -0.1691180              0.3239070
      0.7722180              1.1458520              0.7408950
SP   1   1.00
      0.2120313              1.0000000              1.0000000
D    1   1.00
      1.8260000              1.0000000
D    1   1.00
      0.4565000              1.0000000
F    1   1.00
      1.0000000              1.0000000
****
O     0
S    6   1.00
   5484.6717000              0.0018311
    825.2349500              0.0139501
    188.0469600              0.0684451
     52.9645000              0.2327143
     16.8975700              0.4701930
      5.7996353              0.3585209
SP   3   1.00
     15.5396160             -0.1107775              0.0708743
      3.5999336             -0.1480263              0.3397528
      1.0137618              1.1307670              0.7271586
SP   1   1.00
      0.2700058              1.0000000              1.0000000
D    1   1.00
      2.5840000              1.0000000
D    1   1.00
      0.6460000              1.0000000
F    1   1.00
      1.4000000              1.0000000
****
F     0
S    6   1.00
   7001.7130900              0.0018196169
   1051.3660900              0.0139160796
    239.2856900              0.0684053245
     67.3974453              0.233185760
     21.5199573              0.471267439
      7.40310130             0.356618546
SP   3   1.00
     20.8479528             -0.108506975            0.0716287243
      4.80830834            -0.146451658            0.3459121030
      1.34406986             1.128688580            0.7224699570
SP   1   1.00
      0.358151393            1.0000000              1.0000000
D    1   1.00
      3.5000000              1.0000000
D    1   1.00
      0.8750000              1.0000000
F    1   1.00
      1.8500000              1.0000000
****
Al     0
S    6   1.00
  13983.1000000              0.00194267
   2098.7500000              0.0148599
    477.7050000              0.0728494
    134.3600000              0.2468300
     42.8709000              0.4872580
     14.5189000              0.3234960
SP   6   1.00
    239.6680000             -0.00292619             0.00460285
     57.4419000             -0.0374080              0.0331990
     18.2859000             -0.1144870              0.1362820
      6.5991400              0.1156350              0.3304760
      2.4904900              0.6125950              0.4491460
      0.9445400              0.3937990              0.2657040
SP   3   1.00
      1.2779000             -0.2276060             -0.0175130
      0.3975900              0.00144583             0.2445330
      0.1600950              1.0927900              0.8049340
SP   1   1.00
      0.0556577              1.0000000              1.0000000
D    1   1.00
      0.6500000              1.0000000
D    1   1.00
      0.1625000              1.0000000
F    1   1.00
      0.2500000              1.0000000
****
Si     0
S    6   1.00
  16115.9000000              0.00195948
   2425.5800000              0.01492880
    553.8670000              0.07284780
    156.3400000              0.24613000
     50.0683000              0.48591400
     17.0178000              0.32500200
SP   6   1.00
    292.7180000             -0.00278094             0.00443826
     69.8731000             -0.03571460             0.03266790
     22.3363000             -0.11498500             0.13472100
      8.1503900              0.09356340             0.32867800
      3.1345800              0.60301700             0.44964000
      1.2254300              0.41895900             0.26137200
SP   3   1.00
      1.7273800             -0.24463000            -0.01779510
      0.5729220              0.00431572             0.25353900
      0.2221920              1.09818000             0.80066900
SP   1   1.00
      0.0778369              1.00000000             1.00000000
D    1   1.00
      0.9000000              1.0000000
D    1   1.00
      0.2250000              1.0000000
F    1   1.00
      0.3200000              1.0000000
****
P     0
S    6   1.00
  19413.3000000              0.0018516
   2909.4200000              0.0142062
    661.3640000              0.0699995
    185.7590000              0.2400790
     59.1943000              0.4847620
     20.0310000              0.3352000
SP   6   1.00
    339.4780000             -0.00278217             0.00456462
     81.0101000             -0.0360499              0.03369360
     25.8780000             -0.1166310              0.13975500
      9.4522100              0.0968328              0.33936200
      3.6656600              0.6144180              0.45092100
      1.4674600              0.4037980              0.23858600
SP   3   1.00
      2.1562300             -0.2529230             -0.01776530
      0.7489970              0.0328517              0.27405800
      0.2831450              1.0812500              0.78542100
SP   1   1.00
      0.0998317              1.0000000              1.00000000
D    1   1.00
      1.1000000              1.0000000
D    1   1.00
      0.2750000              1.0000000
F    1   1.00
      0.4500000              1.0000000
****
S     0
S    6   1.00
  21917.1000000              0.0018690
   3301.4900000              0.0142300
    754.1460000              0.0696960
    212.7110000              0.2384870
     67.9896000              0.4833070
     23.0515000              0.3380740
SP   6   1.00
    423.7350000             -0.0023767              0.0040610
    100.7100000             -0.0316930              0.0306810
     32.1599000             -0.1133170              0.1304520
     11.8079000              0.0560900              0.3272050
      4.6311000              0.5922550              0.4528510
      1.8702500              0.4550060              0.2560420
SP   3   1.00
      2.6158400             -0.2503740             -0.0145110
      0.9221670              0.0669570              0.3102630
      0.3412870              1.0545100              0.7544830
SP   1   1.00
      0.1171670              1.0000000              1.0000000
D    1   1.00
      1.3000000              1.0000000
D    1   1.00
      0.3250000              1.0000000
F    1   1.00
      0.5500000              1.0000000
****
Cl     0
S    6   1.00
  25180.1000000              0.0018330
   3780.3500000              0.0140340
    860.4740000              0.0690970
    242.1450000              0.2374520
     77.3349000              0.4830340
     26.2470000              0.3398560
SP   6   1.00
    491.7650000             -0.0022974              0.0039894
    116.9840000             -0.0307140              0.0303180
     37.4153000             -0.1125280              0.1298800
     13.7834000              0.0450160              0.3279510
      5.4521500              0.5893530              0.4535270
      2.2258800              0.4652060              0.2521540
SP   3   1.00
      3.1864900             -0.2518300             -0.0142990
      1.1442700              0.0615890              0.3235720
      0.4203770              1.0601800              0.7435070
SP   1   1.00
      0.1426570              1.0000000              1.0000000
D    1   1.00
      1.5000000              1.0000000
D    1   1.00
      0.3750000              1.0000000
F    1   1.00
      0.7000000              1.0000000
****
}

set {
reference uhf
freeze_core true
e_convergence 10
d_convergence 10
dft_spherical_points 1202
dft_radial_points 99
}

e = energy('b3lyp')

print_out('Grab this energy {0}'.format(e))
--------------------------------------------------------------------------

    Molecular point group: c1

    Geometry (in Bohr), charge = 0, multiplicity = 2:

       Center              X                  Y                   Z               Mass
    ------------   -----------------  -----------------  -----------------  -----------------
         C           -0.323663176072    -0.000002058725     0.000000012839    12.000000000000
         C            0.061256365328    -1.404292333025    -2.430696613161    12.000000000000
         C            0.061136300628     2.807204573675    -0.000799285561    12.000000000000
         C            0.061256291328    -1.402907951025     2.431495893338    12.000000000000
         H            2.087206695428    -1.648766835925    -2.852361778962     1.007825032230
         H           -0.766263657472    -0.389550126725    -4.026525182261     1.007825032230
         H           -0.765081621672    -3.298422608225    -2.357333793962     1.007825032230
         H            2.087067404728     3.294698716275    -0.001583158661     1.007825032230
         H           -0.766504738272     3.681822338975     1.675871190139     1.007825032230
         H           -0.765159840772     3.690693694475    -1.677889509561     1.007825032230
         H            2.087206507828    -1.646024361725     2.853944069338     1.007825032230
         H           -0.766427015272    -3.292239249825     2.350660670238     1.007825032230
         H           -0.764918418372    -0.392238130225     4.035217404938     1.007825032230

  Charge       = 0
  Multiplicity = 2
  Basis Set: ANONYMOUS3C90304C
    Blend: 6-31G_2DFP_
  Basis Set: (ANONYMOUS3C90304C AUX)
    Blend: DEF2-UNIVERSAL-JKFIT

    Orbital Energies [Eh]
    ---------------------

    Alpha Occupied:

       1A    -10.181114     2A    -10.167391     3A    -10.167391
       4A    -10.167346     5A     -0.796721     6A     -0.685888
       7A     -0.685887     8A     -0.530778     9A     -0.440531
      10A     -0.434194    11A     -0.434193    12A     -0.382524
      13A     -0.382523    14A     -0.363728    15A     -0.337811
      16A     -0.337811    17A     -0.169286

    Alpha Virtual:

      18A      0.076102    19A      0.134113    20A      0.134114
      21A      0.142427    22A      0.142427    23A      0.154818
      24A      0.178604    25A      0.178604    26A      0.202420
      27A      0.214473    28A      0.275452    29A      0.275454
      30A      0.399247    31A      0.399251    32A      0.403547
      33A      0.424383    34A      0.424384    35A      0.456030
      36A      0.495164    37A      0.495165    38A      0.511826
      39A      0.513570    40A      0.578116    41A      0.578124
      42A      0.591090    43A      0.591092    44A      0.602122
      45A      0.624281    46A      0.631499    47A      0.635449
      48A      0.635453    49A      0.662931    50A      0.662931
      51A      0.683411    52A      0.683413    53A      0.735193
      54A      0.825560    55A      0.825563    56A      0.852910
      57A      0.914297    58A      0.914303    59A      0.942765
      60A      0.945204    61A      0.960327    62A      0.960344
      63A      1.002349    64A      1.127209    65A      1.127221
      66A      1.141876    67A      1.162484    68A      1.162496
      69A      1.222435    70A      1.273589    71A      1.273593
      72A      1.278831    73A      1.324018    74A      1.324020
      75A      1.355806    76A      1.364224    77A      1.364228
      78A      1.390950    79A      1.404295    80A      1.404297
      81A      1.416773    82A      1.416780    83A      1.426486
      84A      1.490298    85A      1.498512    86A      1.542091
      87A      1.542093    88A      1.573279    89A      1.573281
      90A      1.669904    91A      1.738782    92A      1.738794
      93A      1.766807    94A      1.830196    95A      1.830197
      96A      1.970358    97A      2.016017    98A      2.017932
      99A      2.017936   100A      2.048186   101A      2.048186
     102A      2.737881   103A      2.737882   104A      2.789758
     105A      2.808707   106A      2.888787   107A      2.888793
     108A      2.893414   109A      2.929324   110A      2.929332
     111A      2.958760   112A      2.964671   113A      2.964685
     114A      3.034043   115A      3.070341   116A      3.070354
     117A      3.082777   118A      3.167931   119A      3.167938
     120A      3.178731   121A      3.284776   122A      3.284776
     123A      3.326756   124A      3.326762   125A      3.376972
     126A      3.488339   127A      3.488359   128A      3.513131
     129A      3.523084   130A      3.568454   131A      3.568474
     132A      3.573031   133A      3.666430   134A      3.666437
     135A      3.677726   136A      3.692672   137A      3.692687
     138A      3.772343   139A      3.772369   140A      3.788412
     141A      3.910149   142A      3.910155   143A      4.032626
     144A      4.108473   145A      4.108478   146A      4.147424
     147A      4.147432   148A      4.172017   149A      4.200743
     150A      4.200746   151A      4.201214   152A      4.209245
     153A      4.314414   154A      4.314434   155A      4.356467
     156A      4.422402   157A      4.422405   158A      4.441024
     159A      4.513866   160A      4.513867   161A      4.574713
     162A      4.574725   163A      4.610254   164A      4.704664
     165A      4.768160   166A      4.768167   167A      4.832959
     168A      4.959872   169A      5.001335   170A      5.001346
     171A      5.227026   172A      5.245406   173A      5.245406
     174A      5.352901   175A      5.352914   176A      5.473649

    Beta Occupied:

       1A    -10.168142     2A    -10.168142     3A    -10.168124
       4A    -10.167260     5A     -0.780069     6A     -0.683711
       7A     -0.683710     8A     -0.511648     9A     -0.430583
      10A     -0.430583    11A     -0.421326    12A     -0.376646
      13A     -0.376645    14A     -0.362723    15A     -0.332929
      16A     -0.332929

    Beta Virtual:

      17A     -0.025775    18A      0.077100    19A      0.135009
      20A      0.135010    21A      0.144269    22A      0.144269
      23A      0.163234    24A      0.182248    25A      0.182249
      26A      0.214623    27A      0.218055    28A      0.281869
      29A      0.281871    30A      0.400384    31A      0.400388
      32A      0.420090    33A      0.427203    34A      0.427204
      35A      0.467584    36A      0.497411    37A      0.497411
      38A      0.513547    39A      0.555987    40A      0.583660
      41A      0.583668    42A      0.597329    43A      0.597330
      44A      0.609509    45A      0.627544    46A      0.631698
      47A      0.638662    48A      0.638666    49A      0.666535
      50A      0.666535    51A      0.685968    52A      0.685970
      53A      0.757894    54A      0.830712    55A      0.830714
      56A      0.854227    57A      0.922255    58A      0.922262
      59A      0.944613    60A      0.954211    61A      0.965608
      62A      0.965624    63A      1.007666    64A      1.131236
      65A      1.131248    66A      1.155243    67A      1.167556
      68A      1.167569    69A      1.231267    70A      1.279146
      71A      1.279150    72A      1.284650    73A      1.329011
      74A      1.329012    75A      1.365191    76A      1.369473
      77A      1.369478    78A      1.392000    79A      1.407799
      80A      1.407801    81A      1.421763    82A      1.421769
      83A      1.426722    84A      1.491349    85A      1.508892
      86A      1.546556    87A      1.546556    88A      1.581083
      89A      1.581083    90A      1.674743    91A      1.744540
      92A      1.744552    93A      1.777565    94A      1.834034
      95A      1.834035    96A      1.971216    97A      2.024327
      98A      2.024331    99A      2.037323   100A      2.054870
     101A      2.054870   102A      2.746312   103A      2.746313
     104A      2.809106   105A      2.814920   106A      2.901691
     107A      2.901697   108A      2.923057   109A      2.931645
     110A      2.931654   111A      2.959814   112A      2.969159
     113A      2.969173   114A      3.041889   115A      3.080166
     116A      3.080177   117A      3.084574   118A      3.183795
     119A      3.183799   120A      3.186459   121A      3.289398
     122A      3.289398   123A      3.330637   124A      3.330643
     125A      3.384806   126A      3.491087   127A      3.491107
     128A      3.511536   129A      3.526150   130A      3.572872
     131A      3.581770   132A      3.581792   133A      3.671278
     134A      3.671289   135A      3.691035   136A      3.724488
     137A      3.724503   138A      3.776830   139A      3.776856
     140A      3.817091   141A      3.919958   142A      3.919965
     143A      4.043582   144A      4.115563   145A      4.115566
     146A      4.154448   147A      4.154456   148A      4.185963
     149A      4.206682   150A      4.206685   151A      4.209114
     152A      4.213651   153A      4.321823   154A      4.321843
     155A      4.359852   156A      4.430514   157A      4.430516
     158A      4.443889   159A      4.521529   160A      4.521531
     161A      4.585296   162A      4.585307   163A      4.617460
     164A      4.714924   165A      4.775110   166A      4.775118
     167A      4.835880   168A      4.964643   169A      5.005334
     170A      5.005347   171A      5.232703   172A      5.247178
     173A      5.247179   174A      5.359326   175A      5.359340
     176A      5.475948

    Final Occupation by Irrep:
              A
    DOCC [    16 ]
    SOCC [     1 ]

  @DF-UKS Final Energy:  -157.81306820508956

   => Energetics <=

    Nuclear Repulsion Energy =            125.2136548913303642
    One-Electron Energy =                -458.3925742913231716
    Two-Electron Energy =                 195.6692018645097448
    DFT Exchange-Correlation Energy =     -20.3033506696064876
    Empirical Dispersion Energy =           0.0000000000000000
    VV10 Nonlocal Energy =                  0.0000000000000000
    Total Energy =                       -157.8130682050895643

  UHF NO Occupations:
  HONO-2 :   15  A 1.9996026
  HONO-1 :   16  A 1.9989734
  HONO-0 :   17  A 1.0000000
  LUNO+0 :   18  A 0.0010266
  LUNO+1 :   19  A 0.0003974
  LUNO+2 :   20  A 0.0001997
  LUNO+3 :   21  A 0.0001997

Computation Completed

Properties will be evaluated at   0.000000,   0.000000,   0.000000 [a0]

Properties computed using the SCF density matrix

  Nuclear Dipole Moment: [e a0]
     X:     0.8270      Y:    -0.0000      Z:    -0.0000

  Electronic Dipole Moment: [e a0]
     X:    -0.7483      Y:     0.0000      Z:     0.0000

  Dipole Moment: [e a0]
     X:     0.0788      Y:     0.0000      Z:     0.0000     Total:     0.0788

  Dipole Moment: [D]
     X:     0.2002      Y:     0.0000      Z:     0.0000     Total:     0.2002

*** tstop() called on n082 at Fri Nov  5 15:28:45 2021
Module time:
	user time   =     466.02 seconds =       7.77 minutes
	system time =       4.30 seconds =       0.07 minutes
	total time  =        118 seconds =       1.97 minutes
Total time:
	user time   =     466.02 seconds =       7.77 minutes
	system time =       4.30 seconds =       0.07 minutes
	total time  =        118 seconds =       1.97 minutes
Grab this energy -157.81306820508956
    Psi4 stopped on: Friday, 05 November 2021 03:28PM
    Psi4 wall time for execution: 0:01:58.29

*** Psi4 exiting successfully. Buy a developer a beer!
