                               Psi4 1.4a2.dev629

  ==> Input File <==

--------------------------------------------------------------------------
import os
memory 14 GB

molecule {
 C   -0.3233400090    0.0004958286    0.0010204712
 C    0.0611798779   -1.3999545772   -2.4272519173
 C    0.0596420231    2.8018558402   -0.0018021689
 C    0.0624766366   -1.4011730170    2.4257583701
 H    2.0849459508   -1.6443414265   -2.8474862629
 H   -0.7633045008   -0.3869199811   -4.0257131672
 H   -0.7653923177   -3.2939045818   -2.3481902667
 H    2.0909200453    3.2876064635    0.0007077705
 H   -0.7674111104    3.6802124098    1.6736551073
 H   -0.7676976515    3.6803875276   -1.6730945493
 H    2.0848057000   -1.6438209406    2.8479735136
 H   -0.7659110650   -3.2936303123    2.3486111851
 H   -0.7635214561   -0.3868375469    4.0258119145
units bohr
0 2
}

basis {

assign 6-31g_2dfp_

[ 6-31g_2dfp_ ]

spherical

!----------------------------------------------------------------------
! Basis Set Exchange
! Version v0.8.13
! https://www.basissetexchange.org
!----------------------------------------------------------------------
!   Basis set: 6-31G(2df,p)
! Description: 6-31G(2df,p)
!        Role: orbital
!     Version: 0  (Data from the original Basis Set Exchange)
!----------------------------------------------------------------------

****
H     0
S    3   1.00
     18.7311370              0.03349460
      2.8253937              0.23472695
      0.6401217              0.81375733
S    1   1.00
      0.1612778              1.00000000
P    1   1.00
      1.5000000              1.0000000
P    1   1.00
      0.3750000              1.0000000
****
B     0
S    6   1.00
   2068.8823000              0.0018663
    310.6495700              0.0142515
     70.6830330              0.0695516
     19.8610800              0.2325729
      6.2993048              0.4670787
      2.1270270              0.3634314
SP   3   1.00
      4.7279710             -0.1303938              0.0745976
      1.1903377             -0.1307889              0.3078467
      0.3594117              1.1309444              0.7434568
SP   1   1.00
      0.1267512              1.0000000              1.0000000
D    1   1.00
      0.8020000              1.0000000
D    1   1.00
      0.2005000              1.0000000
F    1   1.00
      0.5000000              1.0000000
****
C     0
S    6   1.00
   3047.5249000              0.0018347
    457.3695100              0.0140373
    103.9486900              0.0688426
     29.2101550              0.2321844
      9.2866630              0.4679413
      3.1639270              0.3623120
SP   3   1.00
      7.8682724             -0.1193324              0.0689991
      1.8812885             -0.1608542              0.3164240
      0.5442493              1.1434564              0.7443083
SP   1   1.00
      0.1687144              1.0000000              1.0000000
D    1   1.00
      1.2520000              1.0000000
D    1   1.00
      0.3130000              1.0000000
F    1   1.00
      0.8000000              1.0000000
****
N     0
S    6   1.00
   4173.5110000              0.0018348
    627.4579000              0.0139950
    142.9021000              0.0685870
     40.2343300              0.2322410
     12.8202100              0.4690700
      4.3904370              0.3604550
SP   3   1.00
     11.6263580             -0.1149610              0.0675800
      2.7162800             -0.1691180              0.3239070
      0.7722180              1.1458520              0.7408950
SP   1   1.00
      0.2120313              1.0000000              1.0000000
D    1   1.00
      1.8260000              1.0000000
D    1   1.00
      0.4565000              1.0000000
F    1   1.00
      1.0000000              1.0000000
****
O     0
S    6   1.00
   5484.6717000              0.0018311
    825.2349500              0.0139501
    188.0469600              0.0684451
     52.9645000              0.2327143
     16.8975700              0.4701930
      5.7996353              0.3585209
SP   3   1.00
     15.5396160             -0.1107775              0.0708743
      3.5999336             -0.1480263              0.3397528
      1.0137618              1.1307670              0.7271586
SP   1   1.00
      0.2700058              1.0000000              1.0000000
D    1   1.00
      2.5840000              1.0000000
D    1   1.00
      0.6460000              1.0000000
F    1   1.00
      1.4000000              1.0000000
****
F     0
S    6   1.00
   7001.7130900              0.0018196169
   1051.3660900              0.0139160796
    239.2856900              0.0684053245
     67.3974453              0.233185760
     21.5199573              0.471267439
      7.40310130             0.356618546
SP   3   1.00
     20.8479528             -0.108506975            0.0716287243
      4.80830834            -0.146451658            0.3459121030
      1.34406986             1.128688580            0.7224699570
SP   1   1.00
      0.358151393            1.0000000              1.0000000
D    1   1.00
      3.5000000              1.0000000
D    1   1.00
      0.8750000              1.0000000
F    1   1.00
      1.8500000              1.0000000
****
Al     0
S    6   1.00
  13983.1000000              0.00194267
   2098.7500000              0.0148599
    477.7050000              0.0728494
    134.3600000              0.2468300
     42.8709000              0.4872580
     14.5189000              0.3234960
SP   6   1.00
    239.6680000             -0.00292619             0.00460285
     57.4419000             -0.0374080              0.0331990
     18.2859000             -0.1144870              0.1362820
      6.5991400              0.1156350              0.3304760
      2.4904900              0.6125950              0.4491460
      0.9445400              0.3937990              0.2657040
SP   3   1.00
      1.2779000             -0.2276060             -0.0175130
      0.3975900              0.00144583             0.2445330
      0.1600950              1.0927900              0.8049340
SP   1   1.00
      0.0556577              1.0000000              1.0000000
D    1   1.00
      0.6500000              1.0000000
D    1   1.00
      0.1625000              1.0000000
F    1   1.00
      0.2500000              1.0000000
****
Si     0
S    6   1.00
  16115.9000000              0.00195948
   2425.5800000              0.01492880
    553.8670000              0.07284780
    156.3400000              0.24613000
     50.0683000              0.48591400
     17.0178000              0.32500200
SP   6   1.00
    292.7180000             -0.00278094             0.00443826
     69.8731000             -0.03571460             0.03266790
     22.3363000             -0.11498500             0.13472100
      8.1503900              0.09356340             0.32867800
      3.1345800              0.60301700             0.44964000
      1.2254300              0.41895900             0.26137200
SP   3   1.00
      1.7273800             -0.24463000            -0.01779510
      0.5729220              0.00431572             0.25353900
      0.2221920              1.09818000             0.80066900
SP   1   1.00
      0.0778369              1.00000000             1.00000000
D    1   1.00
      0.9000000              1.0000000
D    1   1.00
      0.2250000              1.0000000
F    1   1.00
      0.3200000              1.0000000
****
P     0
S    6   1.00
  19413.3000000              0.0018516
   2909.4200000              0.0142062
    661.3640000              0.0699995
    185.7590000              0.2400790
     59.1943000              0.4847620
     20.0310000              0.3352000
SP   6   1.00
    339.4780000             -0.00278217             0.00456462
     81.0101000             -0.0360499              0.03369360
     25.8780000             -0.1166310              0.13975500
      9.4522100              0.0968328              0.33936200
      3.6656600              0.6144180              0.45092100
      1.4674600              0.4037980              0.23858600
SP   3   1.00
      2.1562300             -0.2529230             -0.01776530
      0.7489970              0.0328517              0.27405800
      0.2831450              1.0812500              0.78542100
SP   1   1.00
      0.0998317              1.0000000              1.00000000
D    1   1.00
      1.1000000              1.0000000
D    1   1.00
      0.2750000              1.0000000
F    1   1.00
      0.4500000              1.0000000
****
S     0
S    6   1.00
  21917.1000000              0.0018690
   3301.4900000              0.0142300
    754.1460000              0.0696960
    212.7110000              0.2384870
     67.9896000              0.4833070
     23.0515000              0.3380740
SP   6   1.00
    423.7350000             -0.0023767              0.0040610
    100.7100000             -0.0316930              0.0306810
     32.1599000             -0.1133170              0.1304520
     11.8079000              0.0560900              0.3272050
      4.6311000              0.5922550              0.4528510
      1.8702500              0.4550060              0.2560420
SP   3   1.00
      2.6158400             -0.2503740             -0.0145110
      0.9221670              0.0669570              0.3102630
      0.3412870              1.0545100              0.7544830
SP   1   1.00
      0.1171670              1.0000000              1.0000000
D    1   1.00
      1.3000000              1.0000000
D    1   1.00
      0.3250000              1.0000000
F    1   1.00
      0.5500000              1.0000000
****
Cl     0
S    6   1.00
  25180.1000000              0.0018330
   3780.3500000              0.0140340
    860.4740000              0.0690970
    242.1450000              0.2374520
     77.3349000              0.4830340
     26.2470000              0.3398560
SP   6   1.00
    491.7650000             -0.0022974              0.0039894
    116.9840000             -0.0307140              0.0303180
     37.4153000             -0.1125280              0.1298800
     13.7834000              0.0450160              0.3279510
      5.4521500              0.5893530              0.4535270
      2.2258800              0.4652060              0.2521540
SP   3   1.00
      3.1864900             -0.2518300             -0.0142990
      1.1442700              0.0615890              0.3235720
      0.4203770              1.0601800              0.7435070
SP   1   1.00
      0.1426570              1.0000000              1.0000000
D    1   1.00
      1.5000000              1.0000000
D    1   1.00
      0.3750000              1.0000000
F    1   1.00
      0.7000000              1.0000000
****
}

set {
reference uhf
freeze_core true
e_convergence 10
d_convergence 10
dft_spherical_points 1202
dft_radial_points 99
}

e = energy('b3lyp')

print_out('Grab this energy {0}'.format(e))
--------------------------------------------------------------------------

    Molecular point group: c1

    Geometry (in Bohr), charge = 0, multiplicity = 2:

       Center              X                  Y                   Z               Mass
    ------------   -----------------  -----------------  -----------------  -----------------
         C           -0.323339722677     0.000260492379     0.001458699755    12.000000000000
         C            0.061180164223    -1.400189913421    -2.426813688745    12.000000000000
         C            0.059642309423     2.801620503979    -0.001363940345    12.000000000000
         C            0.062476922923    -1.401408353221     2.426196598655    12.000000000000
         H            2.084946237123    -1.644576762721    -2.847048034345     1.007825032230
         H           -0.763304214477    -0.387155317321    -4.025274938645     1.007825032230
         H           -0.765392031377    -3.294139918021    -2.347752038145     1.007825032230
         H            2.090920331623     3.287371127279     0.001145999055     1.007825032230
         H           -0.767410824077     3.679977073579     1.674093335855     1.007825032230
         H           -0.767697365177     3.680152191379    -1.672656320745     1.007825032230
         H            2.084805986323    -1.644056276821     2.848411742155     1.007825032230
         H           -0.765910778677    -3.293865648521     2.349049413655     1.007825032230
         H           -0.763521169777    -0.387072883121     4.026250143055     1.007825032230

  Charge       = 0
  Multiplicity = 2
  Basis Set: ANONYMOUSD7E41AA7
    Blend: 6-31G_2DFP_
  Basis Set: (ANONYMOUSD7E41AA7 AUX)
    Blend: DEF2-UNIVERSAL-JKFIT

    Orbital Energies [Eh]
    ---------------------

    Alpha Occupied:

       1A    -10.180342     2A    -10.167051     3A    -10.167027
       4A    -10.166966     5A     -0.797766     6A     -0.686267
       7A     -0.686108     8A     -0.530778     9A     -0.441128
      10A     -0.434694    11A     -0.434646    12A     -0.382642
      13A     -0.382555    14A     -0.363609    15A     -0.338295
      16A     -0.337704    17A     -0.168961

    Alpha Virtual:

      18A      0.076071    19A      0.133982    20A      0.134326
      21A      0.142536    22A      0.142716    23A      0.154881
      24A      0.178680    25A      0.178877    26A      0.203548
      27A      0.214803    28A      0.275839    29A      0.276133
      30A      0.399115    31A      0.399342    32A      0.403342
      33A      0.424013    34A      0.424183    35A      0.456592
      36A      0.495241    37A      0.495536    38A      0.512161
      39A      0.513981    40A      0.578632    41A      0.578999
      42A      0.591475    43A      0.591783    44A      0.602581
      45A      0.624760    46A      0.631750    47A      0.636150
      48A      0.636371    49A      0.663039    50A      0.663797
      51A      0.683680    52A      0.684031    53A      0.734995
      54A      0.825380    55A      0.825426    56A      0.853922
      57A      0.914789    58A      0.915261    59A      0.944126
      60A      0.944610    61A      0.961160    62A      0.961431
      63A      1.003452    64A      1.128051    65A      1.128169
      66A      1.142204    67A      1.163141    68A      1.163408
      69A      1.223326    70A      1.274247    71A      1.274713
      72A      1.279372    73A      1.324285    74A      1.324430
      75A      1.355960    76A      1.365810    77A      1.366290
      78A      1.392434    79A      1.403556    80A      1.404572
      81A      1.416518    82A      1.417718    83A      1.427918
      84A      1.491490    85A      1.499078    86A      1.542352
      87A      1.543325    88A      1.574093    89A      1.574802
      90A      1.669810    91A      1.739171    92A      1.739616
      93A      1.768371    94A      1.830595    95A      1.832205
      96A      1.971710    97A      2.017853    98A      2.018860
      99A      2.019686   100A      2.051537   101A      2.053771
     102A      2.738074   103A      2.738898   104A      2.790924
     105A      2.811425   106A      2.889269   107A      2.890610
     108A      2.894966   109A      2.929329   110A      2.929666
     111A      2.958995   112A      2.963937   113A      2.964822
     114A      3.034017   115A      3.071146   116A      3.071413
     117A      3.084365   118A      3.168510   119A      3.169029
     120A      3.180620   121A      3.284923   122A      3.285706
     123A      3.326952   124A      3.327363   125A      3.375628
     126A      3.489982   127A      3.490326   128A      3.514017
     129A      3.525326   130A      3.568221   131A      3.568558
     132A      3.575158   133A      3.665630   134A      3.667113
     135A      3.679679   136A      3.693964   137A      3.694300
     138A      3.776796   139A      3.776812   140A      3.789126
     141A      3.911856   142A      3.912592   143A      4.034442
     144A      4.110850   145A      4.111870   146A      4.147495
     147A      4.148699   148A      4.173235   149A      4.202108
     150A      4.202424   151A      4.204232   152A      4.210913
     153A      4.314825   154A      4.317152   155A      4.358974
     156A      4.423806   157A      4.425088   158A      4.443458
     159A      4.516128   160A      4.517565   161A      4.577949
     162A      4.578582   163A      4.617553   164A      4.709460
     165A      4.774113   166A      4.775077   167A      4.836906
     168A      4.962866   169A      5.002147   170A      5.003740
     171A      5.227999   172A      5.244733   173A      5.248891
     174A      5.354343   175A      5.356731   176A      5.479380

    Beta Occupied:

       1A    -10.167807     2A    -10.167786     3A    -10.167731
       4A    -10.166519     5A     -0.781091     6A     -0.684068
       7A     -0.683913     8A     -0.511749     9A     -0.431067
      10A     -0.431021    11A     -0.421818    12A     -0.376746
      13A     -0.376621    14A     -0.362593    15A     -0.333416
      16A     -0.332828

    Beta Virtual:

      17A     -0.025743    18A      0.077080    19A      0.134880
      20A      0.135209    21A      0.144438    22A      0.144556
      23A      0.163337    24A      0.182340    25A      0.182561
      26A      0.215033    27A      0.218930    28A      0.282196
      29A      0.282471    30A      0.400284    31A      0.400511
      32A      0.419788    33A      0.426825    34A      0.426995
      35A      0.468500    36A      0.497495    37A      0.497804
      38A      0.513896    39A      0.556326    40A      0.584198
      41A      0.584534    42A      0.597633    43A      0.597988
      44A      0.610001    45A      0.628137    46A      0.631917
      47A      0.639432    48A      0.639647    49A      0.666633
      50A      0.667332    51A      0.686333    52A      0.686647
      53A      0.757518    54A      0.830545    55A      0.830596
      56A      0.855276    57A      0.922773    58A      0.923220
      59A      0.945963    60A      0.953539    61A      0.966443
      62A      0.966759    63A      1.008692    64A      1.132132
      65A      1.132144    66A      1.155572    67A      1.168180
      68A      1.168528    69A      1.232298    70A      1.279817
      71A      1.280334    72A      1.285130    73A      1.329267
      74A      1.329427    75A      1.365371    76A      1.371029
      77A      1.371559    78A      1.393495    79A      1.406979
      80A      1.408081    81A      1.421561    82A      1.422773
      83A      1.428190    84A      1.492538    85A      1.509521
      86A      1.546767    87A      1.547724    88A      1.581978
      89A      1.582662    90A      1.674658    91A      1.744943
      92A      1.745375    93A      1.779141    94A      1.834443
      95A      1.836068    96A      1.972571    97A      2.024808
      98A      2.026084    99A      2.039675   100A      2.058281
     101A      2.060465   102A      2.746419   103A      2.747223
     104A      2.811837   105A      2.816060   106A      2.901979
     107A      2.903299   108A      2.924646   109A      2.931770
     110A      2.932190   111A      2.960059   112A      2.968481
     113A      2.969369   114A      3.041950   115A      3.081010
     116A      3.081348   117A      3.086204   118A      3.184119
     119A      3.184882   120A      3.188341   121A      3.289729
     122A      3.290497   123A      3.330731   124A      3.331196
     125A      3.383445   126A      3.492745   127A      3.493024
     128A      3.512383   129A      3.528372   130A      3.574985
     131A      3.581567   132A      3.581923   133A      3.670305
     134A      3.671952   135A      3.692967   136A      3.725510
     137A      3.726004   138A      3.781248   139A      3.781420
     140A      3.817665   141A      3.921646   142A      3.922435
     143A      4.045329   144A      4.117683   145A      4.118665
     146A      4.154765   147A      4.155855   148A      4.187286
     149A      4.208105   150A      4.209424   151A      4.211090
     152A      4.215384   153A      4.322241   154A      4.324614
     155A      4.362337   156A      4.432018   157A      4.433294
     158A      4.446352   159A      4.523920   160A      4.525354
     161A      4.588565   162A      4.589167   163A      4.624748
     164A      4.719805   165A      4.781072   166A      4.782025
     167A      4.839822   168A      4.967661   169A      5.006204
     170A      5.007762   171A      5.233712   172A      5.246530
     173A      5.250664   174A      5.360812   175A      5.363221
     176A      5.481701

    Final Occupation by Irrep:
              A
    DOCC [    16 ]
    SOCC [     1 ]

  @DF-UKS Final Energy:  -157.81306071384364

   => Energetics <=

    Nuclear Repulsion Energy =            125.3946414819715471
    One-Electron Energy =                -458.7489208064253035
    Two-Electron Energy =                 195.8483641106144546
    DFT Exchange-Correlation Energy =     -20.3071455000043670
    Empirical Dispersion Energy =           0.0000000000000000
    VV10 Nonlocal Energy =                  0.0000000000000000
    Total Energy =                       -157.8130607138436403

  UHF NO Occupations:
  HONO-2 :   15  A 1.9996008
  HONO-1 :   16  A 1.9989805
  HONO-0 :   17  A 1.0000000
  LUNO+0 :   18  A 0.0010195
  LUNO+1 :   19  A 0.0003992
  LUNO+2 :   20  A 0.0001980
  LUNO+3 :   21  A 0.0001971

Computation Completed

Properties will be evaluated at   0.000000,   0.000000,   0.000000 [a0]

Properties computed using the SCF density matrix

  Nuclear Dipole Moment: [e a0]
     X:     0.8272      Y:    -0.0017      Z:     0.0031

  Electronic Dipole Moment: [e a0]
     X:    -0.7493      Y:     0.0023      Z:    -0.0030

  Dipole Moment: [e a0]
     X:     0.0779      Y:     0.0006      Z:     0.0001     Total:     0.0779

  Dipole Moment: [D]
     X:     0.1980      Y:     0.0016      Z:     0.0001     Total:     0.1980

*** tstop() called on n082 at Fri Nov  5 12:03:38 2021
Module time:
	user time   =     497.35 seconds =       8.29 minutes
	system time =       4.54 seconds =       0.08 minutes
	total time  =        126 seconds =       2.10 minutes
Total time:
	user time   =     497.35 seconds =       8.29 minutes
	system time =       4.54 seconds =       0.08 minutes
	total time  =        126 seconds =       2.10 minutes
Grab this energy -157.81306071384364
    Psi4 stopped on: Friday, 05 November 2021 12:03PM
    Psi4 wall time for execution: 0:02:06.21

*** Psi4 exiting successfully. Buy a developer a beer!
