                               Psi4 1.4a2.dev629

  ==> Input File <==

--------------------------------------------------------------------------
import os
memory 14 GB

molecule {
 C   -0.3233631443   -0.0019993711    0.0000000000
 C    0.0609690936   -1.4012029830   -2.4249435262
 C    0.0610813591    2.8019476574    0.0000000000
 C    0.0609690936   -1.4012029830    2.4249435262
 H    2.0902007830   -1.6458476564   -2.8433653193
 H   -0.7654865041   -0.3832616533   -4.0230738320
 H   -0.7680284245   -3.2960717879   -2.3526260568
 H    2.0897226631    3.2923368866    0.0000000000
 H   -0.7676793253    3.6802293373    1.6800557828
 H   -0.7676793253    3.6802293373   -1.6800557828
 H    2.0902007830   -1.6458476564    2.8433653193
 H   -0.7680284245   -3.2960717879    2.3526260568
 H   -0.7654865041   -0.3832616533    4.0230738320
units bohr
0 2
}

basis {

assign 6-31g_2dfp_

[ 6-31g_2dfp_ ]

spherical

!----------------------------------------------------------------------
! Basis Set Exchange
! Version v0.8.13
! https://www.basissetexchange.org
!----------------------------------------------------------------------
!   Basis set: 6-31G(2df,p)
! Description: 6-31G(2df,p)
!        Role: orbital
!     Version: 0  (Data from the original Basis Set Exchange)
!----------------------------------------------------------------------

****
H     0
S    3   1.00
     18.7311370              0.03349460
      2.8253937              0.23472695
      0.6401217              0.81375733
S    1   1.00
      0.1612778              1.00000000
P    1   1.00
      1.5000000              1.0000000
P    1   1.00
      0.3750000              1.0000000
****
B     0
S    6   1.00
   2068.8823000              0.0018663
    310.6495700              0.0142515
     70.6830330              0.0695516
     19.8610800              0.2325729
      6.2993048              0.4670787
      2.1270270              0.3634314
SP   3   1.00
      4.7279710             -0.1303938              0.0745976
      1.1903377             -0.1307889              0.3078467
      0.3594117              1.1309444              0.7434568
SP   1   1.00
      0.1267512              1.0000000              1.0000000
D    1   1.00
      0.8020000              1.0000000
D    1   1.00
      0.2005000              1.0000000
F    1   1.00
      0.5000000              1.0000000
****
C     0
S    6   1.00
   3047.5249000              0.0018347
    457.3695100              0.0140373
    103.9486900              0.0688426
     29.2101550              0.2321844
      9.2866630              0.4679413
      3.1639270              0.3623120
SP   3   1.00
      7.8682724             -0.1193324              0.0689991
      1.8812885             -0.1608542              0.3164240
      0.5442493              1.1434564              0.7443083
SP   1   1.00
      0.1687144              1.0000000              1.0000000
D    1   1.00
      1.2520000              1.0000000
D    1   1.00
      0.3130000              1.0000000
F    1   1.00
      0.8000000              1.0000000
****
N     0
S    6   1.00
   4173.5110000              0.0018348
    627.4579000              0.0139950
    142.9021000              0.0685870
     40.2343300              0.2322410
     12.8202100              0.4690700
      4.3904370              0.3604550
SP   3   1.00
     11.6263580             -0.1149610              0.0675800
      2.7162800             -0.1691180              0.3239070
      0.7722180              1.1458520              0.7408950
SP   1   1.00
      0.2120313              1.0000000              1.0000000
D    1   1.00
      1.8260000              1.0000000
D    1   1.00
      0.4565000              1.0000000
F    1   1.00
      1.0000000              1.0000000
****
O     0
S    6   1.00
   5484.6717000              0.0018311
    825.2349500              0.0139501
    188.0469600              0.0684451
     52.9645000              0.2327143
     16.8975700              0.4701930
      5.7996353              0.3585209
SP   3   1.00
     15.5396160             -0.1107775              0.0708743
      3.5999336             -0.1480263              0.3397528
      1.0137618              1.1307670              0.7271586
SP   1   1.00
      0.2700058              1.0000000              1.0000000
D    1   1.00
      2.5840000              1.0000000
D    1   1.00
      0.6460000              1.0000000
F    1   1.00
      1.4000000              1.0000000
****
F     0
S    6   1.00
   7001.7130900              0.0018196169
   1051.3660900              0.0139160796
    239.2856900              0.0684053245
     67.3974453              0.233185760
     21.5199573              0.471267439
      7.40310130             0.356618546
SP   3   1.00
     20.8479528             -0.108506975            0.0716287243
      4.80830834            -0.146451658            0.3459121030
      1.34406986             1.128688580            0.7224699570
SP   1   1.00
      0.358151393            1.0000000              1.0000000
D    1   1.00
      3.5000000              1.0000000
D    1   1.00
      0.8750000              1.0000000
F    1   1.00
      1.8500000              1.0000000
****
Al     0
S    6   1.00
  13983.1000000              0.00194267
   2098.7500000              0.0148599
    477.7050000              0.0728494
    134.3600000              0.2468300
     42.8709000              0.4872580
     14.5189000              0.3234960
SP   6   1.00
    239.6680000             -0.00292619             0.00460285
     57.4419000             -0.0374080              0.0331990
     18.2859000             -0.1144870              0.1362820
      6.5991400              0.1156350              0.3304760
      2.4904900              0.6125950              0.4491460
      0.9445400              0.3937990              0.2657040
SP   3   1.00
      1.2779000             -0.2276060             -0.0175130
      0.3975900              0.00144583             0.2445330
      0.1600950              1.0927900              0.8049340
SP   1   1.00
      0.0556577              1.0000000              1.0000000
D    1   1.00
      0.6500000              1.0000000
D    1   1.00
      0.1625000              1.0000000
F    1   1.00
      0.2500000              1.0000000
****
Si     0
S    6   1.00
  16115.9000000              0.00195948
   2425.5800000              0.01492880
    553.8670000              0.07284780
    156.3400000              0.24613000
     50.0683000              0.48591400
     17.0178000              0.32500200
SP   6   1.00
    292.7180000             -0.00278094             0.00443826
     69.8731000             -0.03571460             0.03266790
     22.3363000             -0.11498500             0.13472100
      8.1503900              0.09356340             0.32867800
      3.1345800              0.60301700             0.44964000
      1.2254300              0.41895900             0.26137200
SP   3   1.00
      1.7273800             -0.24463000            -0.01779510
      0.5729220              0.00431572             0.25353900
      0.2221920              1.09818000             0.80066900
SP   1   1.00
      0.0778369              1.00000000             1.00000000
D    1   1.00
      0.9000000              1.0000000
D    1   1.00
      0.2250000              1.0000000
F    1   1.00
      0.3200000              1.0000000
****
P     0
S    6   1.00
  19413.3000000              0.0018516
   2909.4200000              0.0142062
    661.3640000              0.0699995
    185.7590000              0.2400790
     59.1943000              0.4847620
     20.0310000              0.3352000
SP   6   1.00
    339.4780000             -0.00278217             0.00456462
     81.0101000             -0.0360499              0.03369360
     25.8780000             -0.1166310              0.13975500
      9.4522100              0.0968328              0.33936200
      3.6656600              0.6144180              0.45092100
      1.4674600              0.4037980              0.23858600
SP   3   1.00
      2.1562300             -0.2529230             -0.01776530
      0.7489970              0.0328517              0.27405800
      0.2831450              1.0812500              0.78542100
SP   1   1.00
      0.0998317              1.0000000              1.00000000
D    1   1.00
      1.1000000              1.0000000
D    1   1.00
      0.2750000              1.0000000
F    1   1.00
      0.4500000              1.0000000
****
S     0
S    6   1.00
  21917.1000000              0.0018690
   3301.4900000              0.0142300
    754.1460000              0.0696960
    212.7110000              0.2384870
     67.9896000              0.4833070
     23.0515000              0.3380740
SP   6   1.00
    423.7350000             -0.0023767              0.0040610
    100.7100000             -0.0316930              0.0306810
     32.1599000             -0.1133170              0.1304520
     11.8079000              0.0560900              0.3272050
      4.6311000              0.5922550              0.4528510
      1.8702500              0.4550060              0.2560420
SP   3   1.00
      2.6158400             -0.2503740             -0.0145110
      0.9221670              0.0669570              0.3102630
      0.3412870              1.0545100              0.7544830
SP   1   1.00
      0.1171670              1.0000000              1.0000000
D    1   1.00
      1.3000000              1.0000000
D    1   1.00
      0.3250000              1.0000000
F    1   1.00
      0.5500000              1.0000000
****
Cl     0
S    6   1.00
  25180.1000000              0.0018330
   3780.3500000              0.0140340
    860.4740000              0.0690970
    242.1450000              0.2374520
     77.3349000              0.4830340
     26.2470000              0.3398560
SP   6   1.00
    491.7650000             -0.0022974              0.0039894
    116.9840000             -0.0307140              0.0303180
     37.4153000             -0.1125280              0.1298800
     13.7834000              0.0450160              0.3279510
      5.4521500              0.5893530              0.4535270
      2.2258800              0.4652060              0.2521540
SP   3   1.00
      3.1864900             -0.2518300             -0.0142990
      1.1442700              0.0615890              0.3235720
      0.4203770              1.0601800              0.7435070
SP   1   1.00
      0.1426570              1.0000000              1.0000000
D    1   1.00
      1.5000000              1.0000000
D    1   1.00
      0.3750000              1.0000000
F    1   1.00
      0.7000000              1.0000000
****
}

set {
reference uhf
freeze_core true
e_convergence 10
d_convergence 10
dft_spherical_points 1202
dft_radial_points 99
}

e = energy('b3lyp')

print_out('Grab this energy {0}'.format(e))
--------------------------------------------------------------------------

    Molecular point group: cs

    Geometry (in Bohr), charge = 0, multiplicity = 2:

       Center              X                  Y                   Z               Mass
    ------------   -----------------  -----------------  -----------------  -----------------
         C           -0.323304666219    -0.001525574925     0.000000000000    12.000000000000
         C            0.061027571681    -1.400729186825    -2.424943526200    12.000000000000
         C            0.061139837181     2.802421453575     0.000000000000    12.000000000000
         C            0.061027571681    -1.400729186825     2.424943526200    12.000000000000
         H            2.090259261081    -1.645373860225    -2.843365319300     1.007825032230
         H           -0.765428026019    -0.382787857125    -4.023073832000     1.007825032230
         H           -0.767969946419    -3.295597991725    -2.352626056800     1.007825032230
         H            2.089781141181     3.292810682775     0.000000000000     1.007825032230
         H           -0.767620847219     3.680703133475     1.680055782800     1.007825032230
         H           -0.767620847219     3.680703133475    -1.680055782800     1.007825032230
         H            2.090259261081    -1.645373860225     2.843365319300     1.007825032230
         H           -0.767969946419    -3.295597991725     2.352626056800     1.007825032230
         H           -0.765428026019    -0.382787857125     4.023073832000     1.007825032230

  Charge       = 0
  Multiplicity = 2
  Basis Set: ANONYMOUSF5D793EA
    Blend: 6-31G_2DFP_
  Basis Set: (ANONYMOUSF5D793EA AUX)
    Blend: DEF2-UNIVERSAL-JKFIT

    Orbital Energies [Eh]
    ---------------------

    Alpha Occupied:

       1Ap   -10.180410     2Ap   -10.167734     1App  -10.167474
       3Ap   -10.167442     4Ap    -0.797807     2App   -0.685950
       5Ap    -0.685706     6Ap    -0.530465     7Ap    -0.441028
       3App   -0.434603     8Ap    -0.434458     4App   -0.382375
       9Ap    -0.382305     5App   -0.363296     6App   -0.338058
      10Ap    -0.337928    11Ap    -0.169023

    Alpha Virtual:

      12Ap     0.075740    13Ap     0.133756     7App    0.133819
       8App    0.142158    14Ap     0.142275    15Ap     0.154581
       9App    0.178231    16Ap     0.178311    17Ap     0.203658
      10App    0.214349    18Ap     0.275695    11App    0.276230
      19Ap     0.399236    12App    0.399322    20Ap     0.403144
      13App    0.423767    21Ap     0.423881    22Ap     0.456459
      14App    0.495107    23Ap     0.495226    15App    0.511890
      24Ap     0.513846    25Ap     0.578190    16App    0.578772
      26Ap     0.590735    17App    0.591324    27Ap     0.601927
      28Ap     0.623786    18App    0.631077    29Ap     0.635654
      19App    0.635729    20App    0.663045    30Ap     0.663111
      31Ap     0.683276    21App    0.683337    32Ap     0.734684
      22App    0.824372    33Ap     0.824807    23App    0.853398
      34Ap     0.914167    24App    0.914449    25App    0.943500
      35Ap     0.943823    26App    0.959948    36Ap     0.961337
      37Ap     1.003364    27App    1.127479    38Ap     1.127886
      39Ap     1.141348    28App    1.162919    40Ap     1.163124
      41Ap     1.222882    42Ap     1.273798    29App    1.274109
      43Ap     1.279798    30App    1.323641    44Ap     1.323649
      45Ap     1.355142    46Ap     1.365394    31App    1.365706
      32App    1.391872    47Ap     1.402713    33App    1.403340
      48Ap     1.415783    34App    1.416565    35App    1.427155
      36App    1.490606    49Ap     1.497720    37App    1.542043
      50Ap     1.542582    38App    1.574273    51Ap     1.574285
      52Ap     1.667668    53Ap     1.737611    39App    1.738365
      54Ap     1.766799    55Ap     1.828438    40App    1.829413
      41App    1.970099    56Ap     2.016923    42App    2.017804
      57Ap     2.018185    58Ap     2.050752    43App    2.052369
      44App    2.737232    59Ap     2.737783    60Ap     2.790718
      45App    2.810905    61Ap     2.889082    46App    2.889670
      62Ap     2.894907    63Ap     2.929095    47App    2.929140
      48App    2.958376    49App    2.963585    64Ap     2.963874
      65Ap     3.033109    50App    3.070201    66Ap     3.070475
      51App    3.083430    67Ap     3.169243    52App    3.169662
      68Ap     3.180288    69Ap     3.285309    53App    3.285397
      70Ap     3.327339    54App    3.328001    71Ap     3.376315
      72Ap     3.490989    55App    3.491293    56App    3.514318
      73Ap     3.525933    74Ap     3.567926    57App    3.568424
      58App    3.576898    59App    3.665499    75Ap     3.665741
      76Ap     3.677797    77Ap     3.692963    60App    3.693703
      61App    3.775049    78Ap     3.777473    79Ap     3.788591
      80Ap     3.911038    62App    3.911541    81Ap     4.032098
      82Ap     4.107650    63App    4.110129    83Ap     4.143886
      64App    4.145701    84Ap     4.170330    85Ap     4.201231
      86Ap     4.201660    65App    4.201702    66App    4.207179
      87Ap     4.312930    67App    4.314482    68App    4.356621
      69App    4.421629    88Ap     4.422135    70App    4.441421
      89Ap     4.513991    71App    4.514817    90Ap     4.576452
      72App    4.577105    91Ap     4.616840    92Ap     4.707435
      73App    4.771732    93Ap     4.773910    74App    4.834599
      94Ap     4.962085    95Ap     5.001530    75App    5.002204
      96Ap     5.222747    76App    5.241035    97Ap     5.241999
      98Ap     5.350188    77App    5.351644    78App    5.476138

    Beta Occupied:

       1Ap   -10.168495     1App  -10.168230     2Ap   -10.168210
       3Ap   -10.166602     4Ap    -0.781105     2App   -0.683746
       5Ap    -0.683518     6Ap    -0.511494     3App   -0.430955
       7Ap    -0.430838     8Ap    -0.421683     4App   -0.376447
       9Ap    -0.376387     5App   -0.362277     6App   -0.333186
      10Ap    -0.333064

    Beta Virtual:

      11Ap    -0.025976    12Ap     0.076753    13Ap     0.134646
       7App    0.134692     8App    0.144055    14Ap     0.144176
      15Ap     0.163104     9App    0.181930    16Ap     0.181974
      10App    0.214580    17Ap     0.219020    18Ap     0.282044
      11App    0.282558    19Ap     0.400419    12App    0.400496
      20Ap     0.419567    13App    0.426575    21Ap     0.426694
      22Ap     0.468385    14App    0.497371    23Ap     0.497485
      15App    0.513631    24Ap     0.556133    25Ap     0.583722
      16App    0.584305    26Ap     0.596909    17App    0.597469
      27Ap     0.609362    28Ap     0.627175    18App    0.631238
      29Ap     0.638941    19App    0.639057    20App    0.666602
      30Ap     0.666671    31Ap     0.685925    21App    0.686030
      32Ap     0.757182    22App    0.829521    33Ap     0.829999
      23App    0.854776    34Ap     0.922188    24App    0.922398
      25App    0.945339    35Ap     0.952725    26App    0.965318
      36Ap     0.966600    37Ap     1.008592    27App    1.131447
      38Ap     1.132003    39Ap     1.154738    28App    1.168043
      40Ap     1.168085    41Ap     1.231871    42Ap     1.279408
      29App    1.279717    43Ap     1.285565    44Ap     1.328595
      30App    1.328621    45Ap     1.364535    46Ap     1.370668
      31App    1.370920    32App    1.392937    47Ap     1.406155
      33App    1.406833    48Ap     1.420839    34App    1.421610
      35App    1.427435    36App    1.491648    49Ap     1.508163
      37App    1.546582    50Ap     1.547122    38App    1.582037
      51Ap     1.582048    52Ap     1.672441    53Ap     1.743358
      39App    1.744128    54Ap     1.777634    55Ap     1.832327
      40App    1.833295    41App    1.970962    42App    2.024212
      56Ap     2.024306    57Ap     2.038630    58Ap     2.057441
      43App    2.059111    44App    2.745571    59Ap     2.746093
      45App    2.811315    60Ap     2.815826    61Ap     2.901812
      46App    2.902251    62Ap     2.924551    63Ap     2.931640
      47App    2.931658    48App    2.959432    49App    2.968106
      64Ap     2.968361    65Ap     3.041124    50App    3.080064
      66Ap     3.080317    51App    3.085241    67Ap     3.185010
      52App    3.185492    68Ap     3.187908    69Ap     3.290138
      53App    3.290275    70Ap     3.331153    54App    3.331780
      71Ap     3.384110    72Ap     3.493692    55App    3.493957
      56App    3.512680    73Ap     3.528971    57App    3.576562
      74Ap     3.581188    58App    3.581983    75Ap     3.670060
      59App    3.670200    76Ap     3.691033    77Ap     3.724994
      60App    3.725182    61App    3.779635    78Ap     3.781969
      79Ap     3.817110    80Ap     3.920886    62App    3.921355
      81Ap     4.042862    82Ap     4.114502    63App    4.116755
      83Ap     4.151115    64App    4.152974    84Ap     4.184526
      85Ap     4.207553    65App    4.207652    86Ap     4.209304
      66App    4.211683    87Ap     4.320428    67App    4.322018
      68App    4.359999    69App    4.429918    88Ap     4.430334
      70App    4.444323    89Ap     4.521803    71App    4.522608
      90Ap     4.587085    72App    4.587737    91Ap     4.624044
      92Ap     4.717784    73App    4.778730    93Ap     4.780825
      74App    4.837512    94Ap     4.966906    95Ap     5.005580
      75App    5.006272    96Ap     5.228488    76App    5.242817
      97Ap     5.243797    98Ap     5.356675    77App    5.358173
      78App    5.478472

    Final Occupation by Irrep:
             Ap   App
    DOCC [    10,    6 ]
    SOCC [     1,    0 ]

  @DF-UKS Final Energy:  -157.81308867182710

   => Energetics <=

    Nuclear Repulsion Energy =            125.3573015153220780
    One-Electron Energy =                -458.6781253591882432
    Two-Electron Energy =                 195.8108584914475330
    DFT Exchange-Correlation Energy =     -20.3031233194084955
    Empirical Dispersion Energy =           0.0000000000000000
    VV10 Nonlocal Energy =                  0.0000000000000000
    Total Energy =                       -157.8130886718271029

  UHF NO Occupations:
  HONO-2 :    9 Ap 1.9995983
  HONO-1 :   10 Ap 1.9989811
  HONO-0 :   11 Ap 1.0000000
  LUNO+0 :   12 Ap 0.0010189
  LUNO+1 :   13 Ap 0.0004017
  LUNO+2 :   14 Ap 0.0001975
  LUNO+3 :    7App 0.0001969

Computation Completed

Properties will be evaluated at   0.000000,   0.000000,   0.000000 [a0]

Properties computed using the SCF density matrix

  Nuclear Dipole Moment: [e a0]
     X:     0.8276      Y:     0.0033      Z:     0.0000

  Electronic Dipole Moment: [e a0]
     X:    -0.7503      Y:    -0.0033      Z:     0.0000

  Dipole Moment: [e a0]
     X:     0.0773      Y:    -0.0000      Z:     0.0000     Total:     0.0773

  Dipole Moment: [D]
     X:     0.1964      Y:    -0.0001      Z:     0.0000     Total:     0.1964

*** tstop() called on n032 at Fri Nov  5 14:58:18 2021
Module time:
	user time   =     635.95 seconds =      10.60 minutes
	system time =      12.63 seconds =       0.21 minutes
	total time  =        163 seconds =       2.72 minutes
Total time:
	user time   =     635.95 seconds =      10.60 minutes
	system time =      12.63 seconds =       0.21 minutes
	total time  =        163 seconds =       2.72 minutes
Grab this energy -157.8130886718271
    Psi4 stopped on: Friday, 05 November 2021 02:58PM
    Psi4 wall time for execution: 0:02:43.10

*** Psi4 exiting successfully. Buy a developer a beer!
