                               Psi4 1.4a2.dev629

  ==> Input File <==

--------------------------------------------------------------------------
import os
memory 14 GB

molecule {
 C   -0.3233409301    0.0004792430    0.0000000000
 C    0.0622489331   -1.4016564196   -2.4272354320
 C    0.0588042908    2.7994971685    0.0000000000
 C    0.0622489331   -1.4016564196    2.4272354320
 H    2.0868767893   -1.6438925001   -2.8471711245
 H   -0.7657263017   -0.3880077411   -4.0251815807
 H   -0.7660197928   -3.2917654048   -2.3487660639
 H    2.0869179092    3.2887879553   -0.0000000000
 H   -0.7648742011    3.6809277254    1.6765510091
 H   -0.7648742011    3.6809277254   -1.6765510091
 H    2.0868767893   -1.6438925001    2.8471711245
 H   -0.7660197928   -3.2917654048    2.3487660639
 H   -0.7657263017   -0.3880077411    4.0251815807
units bohr
0 2
}

basis {

assign 6-31g_2dfp_

[ 6-31g_2dfp_ ]

spherical

!----------------------------------------------------------------------
! Basis Set Exchange
! Version v0.8.13
! https://www.basissetexchange.org
!----------------------------------------------------------------------
!   Basis set: 6-31G(2df,p)
! Description: 6-31G(2df,p)
!        Role: orbital
!     Version: 0  (Data from the original Basis Set Exchange)
!----------------------------------------------------------------------

****
H     0
S    3   1.00
     18.7311370              0.03349460
      2.8253937              0.23472695
      0.6401217              0.81375733
S    1   1.00
      0.1612778              1.00000000
P    1   1.00
      1.5000000              1.0000000
P    1   1.00
      0.3750000              1.0000000
****
B     0
S    6   1.00
   2068.8823000              0.0018663
    310.6495700              0.0142515
     70.6830330              0.0695516
     19.8610800              0.2325729
      6.2993048              0.4670787
      2.1270270              0.3634314
SP   3   1.00
      4.7279710             -0.1303938              0.0745976
      1.1903377             -0.1307889              0.3078467
      0.3594117              1.1309444              0.7434568
SP   1   1.00
      0.1267512              1.0000000              1.0000000
D    1   1.00
      0.8020000              1.0000000
D    1   1.00
      0.2005000              1.0000000
F    1   1.00
      0.5000000              1.0000000
****
C     0
S    6   1.00
   3047.5249000              0.0018347
    457.3695100              0.0140373
    103.9486900              0.0688426
     29.2101550              0.2321844
      9.2866630              0.4679413
      3.1639270              0.3623120
SP   3   1.00
      7.8682724             -0.1193324              0.0689991
      1.8812885             -0.1608542              0.3164240
      0.5442493              1.1434564              0.7443083
SP   1   1.00
      0.1687144              1.0000000              1.0000000
D    1   1.00
      1.2520000              1.0000000
D    1   1.00
      0.3130000              1.0000000
F    1   1.00
      0.8000000              1.0000000
****
N     0
S    6   1.00
   4173.5110000              0.0018348
    627.4579000              0.0139950
    142.9021000              0.0685870
     40.2343300              0.2322410
     12.8202100              0.4690700
      4.3904370              0.3604550
SP   3   1.00
     11.6263580             -0.1149610              0.0675800
      2.7162800             -0.1691180              0.3239070
      0.7722180              1.1458520              0.7408950
SP   1   1.00
      0.2120313              1.0000000              1.0000000
D    1   1.00
      1.8260000              1.0000000
D    1   1.00
      0.4565000              1.0000000
F    1   1.00
      1.0000000              1.0000000
****
O     0
S    6   1.00
   5484.6717000              0.0018311
    825.2349500              0.0139501
    188.0469600              0.0684451
     52.9645000              0.2327143
     16.8975700              0.4701930
      5.7996353              0.3585209
SP   3   1.00
     15.5396160             -0.1107775              0.0708743
      3.5999336             -0.1480263              0.3397528
      1.0137618              1.1307670              0.7271586
SP   1   1.00
      0.2700058              1.0000000              1.0000000
D    1   1.00
      2.5840000              1.0000000
D    1   1.00
      0.6460000              1.0000000
F    1   1.00
      1.4000000              1.0000000
****
F     0
S    6   1.00
   7001.7130900              0.0018196169
   1051.3660900              0.0139160796
    239.2856900              0.0684053245
     67.3974453              0.233185760
     21.5199573              0.471267439
      7.40310130             0.356618546
SP   3   1.00
     20.8479528             -0.108506975            0.0716287243
      4.80830834            -0.146451658            0.3459121030
      1.34406986             1.128688580            0.7224699570
SP   1   1.00
      0.358151393            1.0000000              1.0000000
D    1   1.00
      3.5000000              1.0000000
D    1   1.00
      0.8750000              1.0000000
F    1   1.00
      1.8500000              1.0000000
****
Al     0
S    6   1.00
  13983.1000000              0.00194267
   2098.7500000              0.0148599
    477.7050000              0.0728494
    134.3600000              0.2468300
     42.8709000              0.4872580
     14.5189000              0.3234960
SP   6   1.00
    239.6680000             -0.00292619             0.00460285
     57.4419000             -0.0374080              0.0331990
     18.2859000             -0.1144870              0.1362820
      6.5991400              0.1156350              0.3304760
      2.4904900              0.6125950              0.4491460
      0.9445400              0.3937990              0.2657040
SP   3   1.00
      1.2779000             -0.2276060             -0.0175130
      0.3975900              0.00144583             0.2445330
      0.1600950              1.0927900              0.8049340
SP   1   1.00
      0.0556577              1.0000000              1.0000000
D    1   1.00
      0.6500000              1.0000000
D    1   1.00
      0.1625000              1.0000000
F    1   1.00
      0.2500000              1.0000000
****
Si     0
S    6   1.00
  16115.9000000              0.00195948
   2425.5800000              0.01492880
    553.8670000              0.07284780
    156.3400000              0.24613000
     50.0683000              0.48591400
     17.0178000              0.32500200
SP   6   1.00
    292.7180000             -0.00278094             0.00443826
     69.8731000             -0.03571460             0.03266790
     22.3363000             -0.11498500             0.13472100
      8.1503900              0.09356340             0.32867800
      3.1345800              0.60301700             0.44964000
      1.2254300              0.41895900             0.26137200
SP   3   1.00
      1.7273800             -0.24463000            -0.01779510
      0.5729220              0.00431572             0.25353900
      0.2221920              1.09818000             0.80066900
SP   1   1.00
      0.0778369              1.00000000             1.00000000
D    1   1.00
      0.9000000              1.0000000
D    1   1.00
      0.2250000              1.0000000
F    1   1.00
      0.3200000              1.0000000
****
P     0
S    6   1.00
  19413.3000000              0.0018516
   2909.4200000              0.0142062
    661.3640000              0.0699995
    185.7590000              0.2400790
     59.1943000              0.4847620
     20.0310000              0.3352000
SP   6   1.00
    339.4780000             -0.00278217             0.00456462
     81.0101000             -0.0360499              0.03369360
     25.8780000             -0.1166310              0.13975500
      9.4522100              0.0968328              0.33936200
      3.6656600              0.6144180              0.45092100
      1.4674600              0.4037980              0.23858600
SP   3   1.00
      2.1562300             -0.2529230             -0.01776530
      0.7489970              0.0328517              0.27405800
      0.2831450              1.0812500              0.78542100
SP   1   1.00
      0.0998317              1.0000000              1.00000000
D    1   1.00
      1.1000000              1.0000000
D    1   1.00
      0.2750000              1.0000000
F    1   1.00
      0.4500000              1.0000000
****
S     0
S    6   1.00
  21917.1000000              0.0018690
   3301.4900000              0.0142300
    754.1460000              0.0696960
    212.7110000              0.2384870
     67.9896000              0.4833070
     23.0515000              0.3380740
SP   6   1.00
    423.7350000             -0.0023767              0.0040610
    100.7100000             -0.0316930              0.0306810
     32.1599000             -0.1133170              0.1304520
     11.8079000              0.0560900              0.3272050
      4.6311000              0.5922550              0.4528510
      1.8702500              0.4550060              0.2560420
SP   3   1.00
      2.6158400             -0.2503740             -0.0145110
      0.9221670              0.0669570              0.3102630
      0.3412870              1.0545100              0.7544830
SP   1   1.00
      0.1171670              1.0000000              1.0000000
D    1   1.00
      1.3000000              1.0000000
D    1   1.00
      0.3250000              1.0000000
F    1   1.00
      0.5500000              1.0000000
****
Cl     0
S    6   1.00
  25180.1000000              0.0018330
   3780.3500000              0.0140340
    860.4740000              0.0690970
    242.1450000              0.2374520
     77.3349000              0.4830340
     26.2470000              0.3398560
SP   6   1.00
    491.7650000             -0.0022974              0.0039894
    116.9840000             -0.0307140              0.0303180
     37.4153000             -0.1125280              0.1298800
     13.7834000              0.0450160              0.3279510
      5.4521500              0.5893530              0.4535270
      2.2258800              0.4652060              0.2521540
SP   3   1.00
      3.1864900             -0.2518300             -0.0142990
      1.1442700              0.0615890              0.3235720
      0.4203770              1.0601800              0.7435070
SP   1   1.00
      0.1426570              1.0000000              1.0000000
D    1   1.00
      1.5000000              1.0000000
D    1   1.00
      0.3750000              1.0000000
F    1   1.00
      0.7000000              1.0000000
****
}

set {
reference uhf
freeze_core true
e_convergence 10
d_convergence 10
dft_spherical_points 1202
dft_radial_points 99
}

e = energy('b3lyp')

print_out('Grab this energy {0}'.format(e))
--------------------------------------------------------------------------

    Molecular point group: cs

    Geometry (in Bohr), charge = 0, multiplicity = 2:

       Center              X                  Y                   Z               Mass
    ------------   -----------------  -----------------  -----------------  -----------------
         C           -0.323341163494     0.001122292368     0.000000000000    12.000000000000
         C            0.062248699706    -1.401013370232    -2.427235432000    12.000000000000
         C            0.058804057406     2.800140217868     0.000000000000    12.000000000000
         C            0.062248699706    -1.401013370232     2.427235432000    12.000000000000
         H            2.086876555906    -1.643249450732    -2.847171124500     1.007825032230
         H           -0.765726535094    -0.387364691732    -4.025181580700     1.007825032230
         H           -0.766020026194    -3.291122355432    -2.348766063900     1.007825032230
         H            2.086917675806     3.289431004668     0.000000000000     1.007825032230
         H           -0.764874434494     3.681570774768     1.676551009100     1.007825032230
         H           -0.764874434494     3.681570774768    -1.676551009100     1.007825032230
         H            2.086876555906    -1.643249450732     2.847171124500     1.007825032230
         H           -0.766020026194    -3.291122355432     2.348766063900     1.007825032230
         H           -0.765726535094    -0.387364691732     4.025181580700     1.007825032230

  Charge       = 0
  Multiplicity = 2
  Basis Set: ANONYMOUS9FD8D9AE
    Blend: 6-31G_2DFP_
  Basis Set: (ANONYMOUS9FD8D9AE AUX)
    Blend: DEF2-UNIVERSAL-JKFIT

    Orbital Energies [Eh]
    ---------------------

    Alpha Occupied:

       1Ap   -10.180342     2Ap   -10.167093     1App  -10.166993
       3Ap   -10.166959     4Ap    -0.797766     5Ap    -0.686197
       2App   -0.686177     6Ap    -0.530777     7Ap    -0.441125
       3App   -0.434690     8Ap    -0.434651     4App   -0.382839
       9Ap    -0.382359     5App   -0.363611    10Ap    -0.338292
       6App   -0.337707    11Ap    -0.168961

    Alpha Virtual:

      12Ap     0.076073    13Ap     0.134103     7App    0.134207
       8App    0.142627    14Ap     0.142630    15Ap     0.154879
      16Ap     0.178582     9App    0.178974    17Ap     0.203545
      10App    0.214801    11App    0.275705    18Ap     0.276267
      12App    0.399063    19Ap     0.399394    20Ap     0.403343
      13App    0.424006    21Ap     0.424189    22Ap     0.456594
      14App    0.495339    23Ap     0.495439    15App    0.512161
      24Ap     0.513979    25Ap     0.578758    16App    0.578868
      26Ap     0.591455    17App    0.591816    27Ap     0.602576
      28Ap     0.624763    18App    0.631776    19App    0.636185
      29Ap     0.636306    30Ap     0.663307    20App    0.663521
      21App    0.683724    31Ap     0.683978    32Ap     0.734995
      33Ap     0.825368    22App    0.825448    23App    0.853916
      34Ap     0.915024    24App    0.915029    25App    0.944126
      35Ap     0.944613    36Ap     0.961190    26App    0.961393
      37Ap     1.003454    38Ap     1.128069    27App    1.128146
      39Ap     1.142223    28App    1.163082    40Ap     1.163454
      41Ap     1.223323    29App    1.274333    42Ap     1.274649
      43Ap     1.279358    44Ap     1.324171    30App    1.324542
      45Ap     1.355992    31App    1.365597    46Ap     1.366521
      32App    1.392437    47Ap     1.403752    33App    1.404368
      48Ap     1.416971    34App    1.417235    35App    1.427922
      36App    1.491490    49Ap     1.499082    37App    1.542794
      50Ap     1.542849    38App    1.574103    51Ap     1.574796
      52Ap     1.669821    53Ap     1.738876    39App    1.739967
      54Ap     1.768324    55Ap     1.831086    40App    1.831700
      41App    1.971736    56Ap     2.018289    57Ap     2.018970
      42App    2.019134    43App    2.052332    58Ap     2.052956
      59Ap     2.738327    44App    2.738644    60Ap     2.790924
      45App    2.811428    46App    2.889612    61Ap     2.890282
      62Ap     2.894960    47App    2.929409    63Ap     2.929582
      48App    2.958994    64Ap     2.964340    49App    2.964407
      65Ap     3.034012    66Ap     3.071274    50App    3.071278
      51App    3.084365    52App    3.168718    67Ap     3.168842
      68Ap     3.180592    69Ap     3.285291    53App    3.285338
      54App    3.327129    70Ap     3.327189    71Ap     3.375615
      55App    3.489512    72Ap     3.490805    56App    3.514013
      73Ap     3.525325    74Ap     3.568375    57App    3.568409
      58App    3.575138    75Ap     3.665384    59App    3.667376
      76Ap     3.679678    77Ap     3.694017    60App    3.694217
      61App    3.776674    78Ap     3.776924    79Ap     3.789120
      62App    3.911398    80Ap     3.913053    81Ap     4.034451
      63App    4.111130    82Ap     4.111622    64App    4.147768
      83Ap     4.148473    84Ap     4.173244    85Ap     4.202173
      65App    4.202850    86Ap     4.203792    66App    4.210850
      67App    4.314777    87Ap     4.317101    68App    4.359005
      69App    4.423281    88Ap     4.425515    70App    4.443571
      89Ap     4.516441    71App    4.517229    72App    4.578038
      90Ap     4.578493    91Ap     4.617540    92Ap     4.709444
      93Ap     4.773759    73App    4.775358    74App    4.836960
      94Ap     4.962813    95Ap     5.001839    75App    5.004111
      96Ap     5.228052    76App    5.246631    97Ap     5.246986
      77App    5.355179    98Ap     5.355830    78App    5.479349

    Beta Occupied:

       1Ap   -10.167855     1App  -10.167743     2Ap   -10.167726
       3Ap   -10.166519     4Ap    -0.781091     5Ap    -0.683994
       2App   -0.683985     6Ap    -0.511748     3App   -0.431064
       7Ap    -0.431019     8Ap    -0.421823     4App   -0.376952
       9Ap    -0.376414     5App   -0.362595    10Ap    -0.333417
       6App   -0.332827

    Beta Virtual:

      11Ap    -0.025743    12Ap     0.077082    13Ap     0.135023
       7App    0.135068    14Ap     0.144488     8App    0.144510
      15Ap     0.163339    16Ap     0.182264     9App    0.182635
      10App    0.215031    17Ap     0.218927    11App    0.282064
      18Ap     0.282604    12App    0.400234    19Ap     0.400562
      20Ap     0.419790    13App    0.426813    21Ap     0.427005
      22Ap     0.468501    14App    0.497597    23Ap     0.497703
      15App    0.513896    24Ap     0.556323    25Ap     0.584320
      16App    0.584408    26Ap     0.597630    17App    0.598000
      27Ap     0.610000    28Ap     0.628137    18App    0.631931
      19App    0.639476    29Ap     0.639587    30Ap     0.666892
      20App    0.667064    21App    0.686344    31Ap     0.686628
      32Ap     0.757518    33Ap     0.830529    22App    0.830623
      23App    0.855270    24App    0.922996    34Ap     0.922999
      25App    0.945963    35Ap     0.953542    36Ap     0.966492
      26App    0.966703    37Ap     1.008694    38Ap     1.132058
      27App    1.132216    39Ap     1.155598    28App    1.168088
      40Ap     1.168595    41Ap     1.232295    29App    1.279931
      42Ap     1.280243    43Ap     1.285113    44Ap     1.329136
      30App    1.329556    45Ap     1.365409    31App    1.370866
      46Ap     1.371737    32App    1.393498    47Ap     1.407256
      33App    1.407792    48Ap     1.422020    34App    1.422286
      35App    1.428193    36App    1.492538    49Ap     1.509524
      37App    1.547124    50Ap     1.547334    38App    1.582022
      51Ap     1.582622    52Ap     1.674668    53Ap     1.744642
      39App    1.745725    54Ap     1.779104    55Ap     1.834951
      40App    1.835545    41App    1.972595    56Ap     2.025358
      42App    2.025550    57Ap     2.039662    43App    2.059018
      58Ap     2.059702    59Ap     2.746690    44App    2.746952
      45App    2.811840    60Ap     2.816060    46App    2.902330
      61Ap     2.902956    62Ap     2.924650    47App    2.931907
      63Ap     2.932048    48App    2.960056    64Ap     2.968903
      49App    2.968933    65Ap     3.041948    50App    3.081161
      66Ap     3.081183    51App    3.086210    52App    3.184436
      67Ap     3.184616    68Ap     3.188283    69Ap     3.290072
      53App    3.290153    54App    3.330955    70Ap     3.330971
      71Ap     3.383434    55App    3.492221    72Ap     3.493556
      56App    3.512377    73Ap     3.528370    57App    3.574999
      58App    3.581666    74Ap     3.581796    75Ap     3.670165
      59App    3.672091    76Ap     3.692966    77Ap     3.725482
      60App    3.726024    61App    3.781144    78Ap     3.781505
      79Ap     3.817666    62App    3.921250    80Ap     3.922834
      81Ap     4.045338    63App    4.117896    82Ap     4.118486
      64App    4.155028    83Ap     4.155629    84Ap     4.187306
      65App    4.208780    85Ap     4.208941    86Ap     4.210939
      66App    4.215324    67App    4.322160    87Ap     4.324595
      68App    4.362374    69App    4.431498    88Ap     4.433688
      70App    4.446492    89Ap     4.524230    71App    4.525021
      72App    4.588639    90Ap     4.589095    91Ap     4.624734
      92Ap     4.719790    93Ap     4.780750    73App    4.782271
      74App    4.839879    94Ap     4.967610    95Ap     5.005909
      75App    5.008117    96Ap     5.233768    76App    5.248422
      97Ap     5.248762    77App    5.361640    98Ap     5.362330
      78App    5.481670

    Final Occupation by Irrep:
             Ap   App
    DOCC [    10,    6 ]
    SOCC [     1,    0 ]

  @DF-UKS Final Energy:  -157.81306981844779

   => Energetics <=

    Nuclear Repulsion Energy =            125.3946117443742310
    One-Electron Energy =                -458.7488872403153550
    Two-Electron Energy =                 195.8483483172300055
    DFT Exchange-Correlation Energy =     -20.3071426397366821
    Empirical Dispersion Energy =           0.0000000000000000
    VV10 Nonlocal Energy =                  0.0000000000000000
    Total Energy =                       -157.8130698184477865

  UHF NO Occupations:
  HONO-2 :    9 Ap 1.9996008
  HONO-1 :   10 Ap 1.9989804
  HONO-0 :   11 Ap 1.0000000
  LUNO+0 :   12 Ap 0.0010196
  LUNO+1 :   13 Ap 0.0003992
  LUNO+2 :    7App 0.0001980
  LUNO+3 :   14 Ap 0.0001971

Computation Completed

Properties will be evaluated at   0.000000,   0.000000,   0.000000 [a0]

Properties computed using the SCF density matrix

  Nuclear Dipole Moment: [e a0]
     X:     0.8272      Y:     0.0045      Z:     0.0000

  Electronic Dipole Moment: [e a0]
     X:    -0.7493      Y:    -0.0045      Z:     0.0000

  Dipole Moment: [e a0]
     X:     0.0779      Y:     0.0000      Z:     0.0000     Total:     0.0779

  Dipole Moment: [D]
     X:     0.1980      Y:     0.0001      Z:     0.0000     Total:     0.1980

*** tstop() called on n083 at Fri Nov  5 12:27:52 2021
Module time:
	user time   =     494.28 seconds =       8.24 minutes
	system time =       4.47 seconds =       0.07 minutes
	total time  =        125 seconds =       2.08 minutes
Total time:
	user time   =     494.28 seconds =       8.24 minutes
	system time =       4.47 seconds =       0.07 minutes
	total time  =        125 seconds =       2.08 minutes
Grab this energy -157.8130698184478
    Psi4 stopped on: Friday, 05 November 2021 12:27PM
    Psi4 wall time for execution: 0:02:05.42

*** Psi4 exiting successfully. Buy a developer a beer!
