                               Psi4 1.4a2.dev629

  ==> Input File <==

--------------------------------------------------------------------------
import os
memory 14 GB

molecule {
 C   -0.3233394480    0.0010182158    0.0002565556
 C    0.0625419752   -1.4019922522   -2.4259561887
 C    0.0617685788    2.8013645449   -0.0007660422
 C    0.0589906496   -1.4026646944    2.4255827270
 H    2.0868035055   -1.6436565296   -2.8476463986
 H   -0.7657969055   -0.3881449816   -4.0254002573
 H   -0.7660768438   -3.2917455047   -2.3491359088
 H    2.0867171575    3.2881977474    0.0002364750
 H   -0.7657233901    3.6802862586    1.6765742283
 H   -0.7659955878    3.6803760805   -1.6762379205
 H    2.0871527587   -1.6434378687    2.8477543974
 H   -0.7651044620   -3.2919504034    2.3490962305
 H   -0.7645458647   -0.3876749263    4.0256421022
units bohr
0 2
}

basis {

assign 6-31g_2dfp_

[ 6-31g_2dfp_ ]

spherical

!----------------------------------------------------------------------
! Basis Set Exchange
! Version v0.8.13
! https://www.basissetexchange.org
!----------------------------------------------------------------------
!   Basis set: 6-31G(2df,p)
! Description: 6-31G(2df,p)
!        Role: orbital
!     Version: 0  (Data from the original Basis Set Exchange)
!----------------------------------------------------------------------

****
H     0
S    3   1.00
     18.7311370              0.03349460
      2.8253937              0.23472695
      0.6401217              0.81375733
S    1   1.00
      0.1612778              1.00000000
P    1   1.00
      1.5000000              1.0000000
P    1   1.00
      0.3750000              1.0000000
****
B     0
S    6   1.00
   2068.8823000              0.0018663
    310.6495700              0.0142515
     70.6830330              0.0695516
     19.8610800              0.2325729
      6.2993048              0.4670787
      2.1270270              0.3634314
SP   3   1.00
      4.7279710             -0.1303938              0.0745976
      1.1903377             -0.1307889              0.3078467
      0.3594117              1.1309444              0.7434568
SP   1   1.00
      0.1267512              1.0000000              1.0000000
D    1   1.00
      0.8020000              1.0000000
D    1   1.00
      0.2005000              1.0000000
F    1   1.00
      0.5000000              1.0000000
****
C     0
S    6   1.00
   3047.5249000              0.0018347
    457.3695100              0.0140373
    103.9486900              0.0688426
     29.2101550              0.2321844
      9.2866630              0.4679413
      3.1639270              0.3623120
SP   3   1.00
      7.8682724             -0.1193324              0.0689991
      1.8812885             -0.1608542              0.3164240
      0.5442493              1.1434564              0.7443083
SP   1   1.00
      0.1687144              1.0000000              1.0000000
D    1   1.00
      1.2520000              1.0000000
D    1   1.00
      0.3130000              1.0000000
F    1   1.00
      0.8000000              1.0000000
****
N     0
S    6   1.00
   4173.5110000              0.0018348
    627.4579000              0.0139950
    142.9021000              0.0685870
     40.2343300              0.2322410
     12.8202100              0.4690700
      4.3904370              0.3604550
SP   3   1.00
     11.6263580             -0.1149610              0.0675800
      2.7162800             -0.1691180              0.3239070
      0.7722180              1.1458520              0.7408950
SP   1   1.00
      0.2120313              1.0000000              1.0000000
D    1   1.00
      1.8260000              1.0000000
D    1   1.00
      0.4565000              1.0000000
F    1   1.00
      1.0000000              1.0000000
****
O     0
S    6   1.00
   5484.6717000              0.0018311
    825.2349500              0.0139501
    188.0469600              0.0684451
     52.9645000              0.2327143
     16.8975700              0.4701930
      5.7996353              0.3585209
SP   3   1.00
     15.5396160             -0.1107775              0.0708743
      3.5999336             -0.1480263              0.3397528
      1.0137618              1.1307670              0.7271586
SP   1   1.00
      0.2700058              1.0000000              1.0000000
D    1   1.00
      2.5840000              1.0000000
D    1   1.00
      0.6460000              1.0000000
F    1   1.00
      1.4000000              1.0000000
****
F     0
S    6   1.00
   7001.7130900              0.0018196169
   1051.3660900              0.0139160796
    239.2856900              0.0684053245
     67.3974453              0.233185760
     21.5199573              0.471267439
      7.40310130             0.356618546
SP   3   1.00
     20.8479528             -0.108506975            0.0716287243
      4.80830834            -0.146451658            0.3459121030
      1.34406986             1.128688580            0.7224699570
SP   1   1.00
      0.358151393            1.0000000              1.0000000
D    1   1.00
      3.5000000              1.0000000
D    1   1.00
      0.8750000              1.0000000
F    1   1.00
      1.8500000              1.0000000
****
Al     0
S    6   1.00
  13983.1000000              0.00194267
   2098.7500000              0.0148599
    477.7050000              0.0728494
    134.3600000              0.2468300
     42.8709000              0.4872580
     14.5189000              0.3234960
SP   6   1.00
    239.6680000             -0.00292619             0.00460285
     57.4419000             -0.0374080              0.0331990
     18.2859000             -0.1144870              0.1362820
      6.5991400              0.1156350              0.3304760
      2.4904900              0.6125950              0.4491460
      0.9445400              0.3937990              0.2657040
SP   3   1.00
      1.2779000             -0.2276060             -0.0175130
      0.3975900              0.00144583             0.2445330
      0.1600950              1.0927900              0.8049340
SP   1   1.00
      0.0556577              1.0000000              1.0000000
D    1   1.00
      0.6500000              1.0000000
D    1   1.00
      0.1625000              1.0000000
F    1   1.00
      0.2500000              1.0000000
****
Si     0
S    6   1.00
  16115.9000000              0.00195948
   2425.5800000              0.01492880
    553.8670000              0.07284780
    156.3400000              0.24613000
     50.0683000              0.48591400
     17.0178000              0.32500200
SP   6   1.00
    292.7180000             -0.00278094             0.00443826
     69.8731000             -0.03571460             0.03266790
     22.3363000             -0.11498500             0.13472100
      8.1503900              0.09356340             0.32867800
      3.1345800              0.60301700             0.44964000
      1.2254300              0.41895900             0.26137200
SP   3   1.00
      1.7273800             -0.24463000            -0.01779510
      0.5729220              0.00431572             0.25353900
      0.2221920              1.09818000             0.80066900
SP   1   1.00
      0.0778369              1.00000000             1.00000000
D    1   1.00
      0.9000000              1.0000000
D    1   1.00
      0.2250000              1.0000000
F    1   1.00
      0.3200000              1.0000000
****
P     0
S    6   1.00
  19413.3000000              0.0018516
   2909.4200000              0.0142062
    661.3640000              0.0699995
    185.7590000              0.2400790
     59.1943000              0.4847620
     20.0310000              0.3352000
SP   6   1.00
    339.4780000             -0.00278217             0.00456462
     81.0101000             -0.0360499              0.03369360
     25.8780000             -0.1166310              0.13975500
      9.4522100              0.0968328              0.33936200
      3.6656600              0.6144180              0.45092100
      1.4674600              0.4037980              0.23858600
SP   3   1.00
      2.1562300             -0.2529230             -0.01776530
      0.7489970              0.0328517              0.27405800
      0.2831450              1.0812500              0.78542100
SP   1   1.00
      0.0998317              1.0000000              1.00000000
D    1   1.00
      1.1000000              1.0000000
D    1   1.00
      0.2750000              1.0000000
F    1   1.00
      0.4500000              1.0000000
****
S     0
S    6   1.00
  21917.1000000              0.0018690
   3301.4900000              0.0142300
    754.1460000              0.0696960
    212.7110000              0.2384870
     67.9896000              0.4833070
     23.0515000              0.3380740
SP   6   1.00
    423.7350000             -0.0023767              0.0040610
    100.7100000             -0.0316930              0.0306810
     32.1599000             -0.1133170              0.1304520
     11.8079000              0.0560900              0.3272050
      4.6311000              0.5922550              0.4528510
      1.8702500              0.4550060              0.2560420
SP   3   1.00
      2.6158400             -0.2503740             -0.0145110
      0.9221670              0.0669570              0.3102630
      0.3412870              1.0545100              0.7544830
SP   1   1.00
      0.1171670              1.0000000              1.0000000
D    1   1.00
      1.3000000              1.0000000
D    1   1.00
      0.3250000              1.0000000
F    1   1.00
      0.5500000              1.0000000
****
Cl     0
S    6   1.00
  25180.1000000              0.0018330
   3780.3500000              0.0140340
    860.4740000              0.0690970
    242.1450000              0.2374520
     77.3349000              0.4830340
     26.2470000              0.3398560
SP   6   1.00
    491.7650000             -0.0022974              0.0039894
    116.9840000             -0.0307140              0.0303180
     37.4153000             -0.1125280              0.1298800
     13.7834000              0.0450160              0.3279510
      5.4521500              0.5893530              0.4535270
      2.2258800              0.4652060              0.2521540
SP   3   1.00
      3.1864900             -0.2518300             -0.0142990
      1.1442700              0.0615890              0.3235720
      0.4203770              1.0601800              0.7435070
SP   1   1.00
      0.1426570              1.0000000              1.0000000
D    1   1.00
      1.5000000              1.0000000
D    1   1.00
      0.3750000              1.0000000
F    1   1.00
      0.7000000              1.0000000
****
}

set {
reference uhf
freeze_core true
e_convergence 10
d_convergence 10
dft_spherical_points 1202
dft_radial_points 99
}

e = energy('b3lyp')

print_out('Grab this energy {0}'.format(e))
--------------------------------------------------------------------------

    Molecular point group: c1

    Geometry (in Bohr), charge = 0, multiplicity = 2:

       Center              X                  Y                   Z               Mass
    ------------   -----------------  -----------------  -----------------  -----------------
         C           -0.323339783224     0.001456669748     0.000426617804    12.000000000000
         C            0.062541639976    -1.401553798252    -2.425786126496    12.000000000000
         C            0.061768243576     2.801802998848    -0.000595979996    12.000000000000
         C            0.058990314376    -1.402226240452     2.425752789204    12.000000000000
         H            2.086803170276    -1.643218075652    -2.847476336396     1.007825032230
         H           -0.765797240724    -0.387706527652    -4.025230195096     1.007825032230
         H           -0.766077179024    -3.291307050752    -2.348965846596     1.007825032230
         H            2.086716822276     3.288636201348     0.000406537204     1.007825032230
         H           -0.765723725324     3.680724712548     1.676744290504     1.007825032230
         H           -0.765995923024     3.680814534448    -1.676067858296     1.007825032230
         H            2.087152423476    -1.642999414752     2.847924459604     1.007825032230
         H           -0.765104797224    -3.291511949452     2.349266292704     1.007825032230
         H           -0.764546199924    -0.387236472352     4.025812164404     1.007825032230

  Charge       = 0
  Multiplicity = 2
  Basis Set: ANONYMOUS73666ADC
    Blend: 6-31G_2DFP_
  Basis Set: (ANONYMOUS73666ADC AUX)
    Blend: DEF2-UNIVERSAL-JKFIT

    Orbital Energies [Eh]
    ---------------------

    Alpha Occupied:

       1A    -10.180342     2A    -10.167055     3A    -10.167027
       4A    -10.166963     5A     -0.797766     6A     -0.686273
       7A     -0.686100     8A     -0.530776     9A     -0.441127
      10A     -0.434770    11A     -0.434570    12A     -0.382755
      13A     -0.382444    14A     -0.363610    15A     -0.338304
      16A     -0.337693    17A     -0.168961

    Alpha Virtual:

      18A      0.076072    19A      0.134106    20A      0.134206
      21A      0.142539    22A      0.142717    23A      0.154879
      24A      0.178654    25A      0.178902    26A      0.203547
      27A      0.214802    28A      0.275847    29A      0.276123
      30A      0.399036    31A      0.399418    32A      0.403346
      33A      0.424049    34A      0.424146    35A      0.456593
      36A      0.495344    37A      0.495435    38A      0.512160
      39A      0.513979    40A      0.578724    41A      0.578911
      42A      0.591509    43A      0.591756    44A      0.602572
      45A      0.624759    46A      0.631769    47A      0.636140
      48A      0.636364    49A      0.663222    50A      0.663604
      51A      0.683703    52A      0.684003    53A      0.734995
      54A      0.825393    55A      0.825421    56A      0.853916
      57A      0.914922    58A      0.915131    59A      0.944126
      60A      0.944613    61A      0.961186    62A      0.961396
      63A      1.003453    64A      1.128004    65A      1.128217
      66A      1.142210    67A      1.163169    68A      1.163375
      69A      1.223323    70A      1.274257    71A      1.274720
      72A      1.279359    73A      1.324097    74A      1.324617
      75A      1.355985    76A      1.365671    77A      1.366439
      78A      1.392433    79A      1.403789    80A      1.404331
      81A      1.416722    82A      1.417507    83A      1.427917
      84A      1.491493    85A      1.499082    86A      1.542648
      87A      1.543005    88A      1.574095    89A      1.574806
      90A      1.669818    91A      1.739004    92A      1.739818
      93A      1.768343    94A      1.831191    95A      1.831603
      96A      1.971725    97A      2.017900    98A      2.018692
      99A      2.019802   100A      2.051934   101A      2.053345
     102A      2.738422   103A      2.738546   104A      2.790925
     105A      2.811427   106A      2.889231   107A      2.890677
     108A      2.894940   109A      2.929330   110A      2.929666
     111A      2.958994   112A      2.964059   113A      2.964696
     114A      3.034009   115A      3.071101   116A      3.071462
     117A      3.084357   118A      3.168586   119A      3.168956
     120A      3.180606   121A      3.285094   122A      3.285535
     123A      3.326996   124A      3.327323   125A      3.375621
     126A      3.489848   127A      3.490471   128A      3.514019
     129A      3.525326   130A      3.568245   131A      3.568529
     132A      3.575146   133A      3.666033   134A      3.666720
     135A      3.679683   136A      3.694099   137A      3.694150
     138A      3.776758   139A      3.776853   140A      3.789116
     141A      3.911860   142A      3.912579   143A      4.034459
     144A      4.111135   145A      4.111614   146A      4.147938
     147A      4.148314   148A      4.173248   149A      4.202463
     150A      4.202912   151A      4.203412   152A      4.210847
     153A      4.315068   154A      4.316839   155A      4.358981
     156A      4.423878   157A      4.424991   158A      4.443452
     159A      4.515776   160A      4.517911   161A      4.577919
     162A      4.578635   163A      4.617529   164A      4.709453
     165A      4.774053   166A      4.775129   167A      4.836918
     168A      4.962861   169A      5.002412   170A      5.003471
     171A      5.228041   172A      5.246571   173A      5.247065
     174A      5.355239   175A      5.355774   176A      5.479352

    Beta Occupied:

       1A    -10.167810     2A    -10.167787     3A    -10.167727
       4A    -10.166519     5A     -0.781091     6A     -0.684073
       7A     -0.683905     8A     -0.511747     9A     -0.431152
      10A     -0.430935    11A     -0.421820    12A     -0.376850
      13A     -0.376520    14A     -0.362593    15A     -0.333426
      16A     -0.332817

    Beta Virtual:

      17A     -0.025742    18A      0.077081    19A      0.134990
      20A      0.135101    21A      0.144425    22A      0.144572
      23A      0.163338    24A      0.182328    25A      0.182571
      26A      0.215032    27A      0.218929    28A      0.282209
      29A      0.282458    30A      0.400207    31A      0.400589
      32A      0.419789    33A      0.426857    34A      0.426962
      35A      0.468501    36A      0.497609    37A      0.497691
      38A      0.513895    39A      0.556325    40A      0.584278
      41A      0.584457    42A      0.597683    43A      0.597941
      44A      0.609995    45A      0.628135    46A      0.631928
      47A      0.639425    48A      0.639647    49A      0.666797
      50A      0.667156    51A      0.686336    52A      0.686641
      53A      0.757518    54A      0.830564    55A      0.830587
      56A      0.855269    57A      0.922894    58A      0.923102
      59A      0.945962    60A      0.953542    61A      0.966493
      62A      0.966701    63A      1.008693    64A      1.131996
      65A      1.132282    66A      1.155582    67A      1.168288
      68A      1.168409    69A      1.232295    70A      1.279831
      71A      1.280339    72A      1.285113    73A      1.329074
      74A      1.329619    75A      1.365401    76A      1.370897
      77A      1.371699    78A      1.393493    79A      1.407238
      80A      1.407811    81A      1.421795    82A      1.422531
      83A      1.428189    84A      1.492541    85A      1.509525
      86A      1.547048    87A      1.547420    88A      1.581996
      89A      1.582648    90A      1.674665    91A      1.744772
      92A      1.745575    93A      1.779120    94A      1.835047
      95A      1.835458    96A      1.972585    97A      2.024679
      98A      2.026209    99A      2.039684   100A      2.058644
     101A      2.060064   102A      2.746766   103A      2.746875
     104A      2.811839   105A      2.816060   106A      2.901936
     107A      2.903348   108A      2.924647   109A      2.931777
     110A      2.932182   111A      2.960057   112A      2.968615
     113A      2.969227   114A      3.041944   115A      3.081008
     116A      3.081365   117A      3.086183   118A      3.184300
     119A      3.184710   120A      3.188321   121A      3.289924
     122A      3.290301   123A      3.330784   124A      3.331145
     125A      3.383439   126A      3.492577   127A      3.493201
     128A      3.512383   129A      3.528372   130A      3.574991
     131A      3.581672   132A      3.581797   133A      3.670763
     134A      3.671494   135A      3.692970   136A      3.725533
     137A      3.725978   138A      3.781278   139A      3.781386
     140A      3.817661   141A      3.921653   142A      3.922420
     143A      4.045346   144A      4.117966   145A      4.118413
     146A      4.155159   147A      4.155509   148A      4.187310
     149A      4.208815   150A      4.209120   151A      4.210697
     152A      4.215319   153A      4.322469   154A      4.324318
     155A      4.362346   156A      4.432097   157A      4.433188
     158A      4.446347   159A      4.523572   160A      4.525695
     161A      4.588548   162A      4.589210   163A      4.624721
     164A      4.719798   165A      4.781030   166A      4.782059
     167A      4.839835   168A      4.967656   169A      5.006466
     170A      5.007495   171A      5.233755   172A      5.248363
     173A      5.248843   174A      5.361719   175A      5.362254
     176A      5.481673

    Final Occupation by Irrep:
              A
    DOCC [    16 ]
    SOCC [     1 ]

  @DF-UKS Final Energy:  -157.81306942797499

   => Energetics <=

    Nuclear Repulsion Energy =            125.3946112411697129
    One-Electron Energy =                -458.7488873398293663
    Two-Electron Energy =                 195.8483492182123484
    DFT Exchange-Correlation Energy =     -20.3071425475277110
    Empirical Dispersion Energy =           0.0000000000000000
    VV10 Nonlocal Energy =                  0.0000000000000000
    Total Energy =                       -157.8130694279749946

  UHF NO Occupations:
  HONO-2 :   15  A 1.9996009
  HONO-1 :   16  A 1.9989805
  HONO-0 :   17  A 1.0000000
  LUNO+0 :   18  A 0.0010195
  LUNO+1 :   19  A 0.0003991
  LUNO+2 :   20  A 0.0001980
  LUNO+3 :   21  A 0.0001971

Computation Completed

Properties will be evaluated at   0.000000,   0.000000,   0.000000 [a0]

Properties computed using the SCF density matrix

  Nuclear Dipole Moment: [e a0]
     X:     0.8272      Y:     0.0031      Z:     0.0012

  Electronic Dipole Moment: [e a0]
     X:    -0.7493      Y:    -0.0030      Z:    -0.0011

  Dipole Moment: [e a0]
     X:     0.0779      Y:     0.0001      Z:     0.0001     Total:     0.0779

  Dipole Moment: [D]
     X:     0.1980      Y:     0.0001      Z:     0.0003     Total:     0.1980

*** tstop() called on n056 at Fri Nov  5 11:45:05 2021
Module time:
	user time   =     537.32 seconds =       8.96 minutes
	system time =      11.92 seconds =       0.20 minutes
	total time  =        138 seconds =       2.30 minutes
Total time:
	user time   =     537.32 seconds =       8.96 minutes
	system time =      11.92 seconds =       0.20 minutes
	total time  =        138 seconds =       2.30 minutes
Grab this energy -157.813069427975
    Psi4 stopped on: Friday, 05 November 2021 11:45AM
    Psi4 wall time for execution: 0:02:18.12

*** Psi4 exiting successfully. Buy a developer a beer!
