                               Psi4 1.4a2.dev629

  ==> Input File <==

--------------------------------------------------------------------------
import os
memory 14 GB

molecule {
 C   -0.3233404253   -0.0002586992    0.0019990591
 C    0.0602492365   -1.4011686183   -2.4270618351
 C    0.0630708425    2.8017505572    0.0011564046
 C    0.0599808727   -1.3994376366    2.4263720568
 H    2.0868401648   -1.6480321691   -2.8497544502
 H   -0.7649518310   -0.3858578519   -4.0234289115
 H   -0.7662552006   -3.2937371672   -2.3509738343
 H    2.0865943767    3.2881114978    0.0040909682
 H   -0.7676585585    3.6858600635    1.6754856934
 H   -0.7649148797    3.6746133170   -1.6770751015
 H    2.0872312288   -1.6405108233    2.8449194722
 H   -0.7640046802   -3.2906569698    2.3467011202
 H   -0.7654490235   -0.3906998138    4.0275693579
units bohr
0 2
}

basis {

assign 6-31g_2dfp_

[ 6-31g_2dfp_ ]

spherical

!----------------------------------------------------------------------
! Basis Set Exchange
! Version v0.8.13
! https://www.basissetexchange.org
!----------------------------------------------------------------------
!   Basis set: 6-31G(2df,p)
! Description: 6-31G(2df,p)
!        Role: orbital
!     Version: 0  (Data from the original Basis Set Exchange)
!----------------------------------------------------------------------

****
H     0
S    3   1.00
     18.7311370              0.03349460
      2.8253937              0.23472695
      0.6401217              0.81375733
S    1   1.00
      0.1612778              1.00000000
P    1   1.00
      1.5000000              1.0000000
P    1   1.00
      0.3750000              1.0000000
****
B     0
S    6   1.00
   2068.8823000              0.0018663
    310.6495700              0.0142515
     70.6830330              0.0695516
     19.8610800              0.2325729
      6.2993048              0.4670787
      2.1270270              0.3634314
SP   3   1.00
      4.7279710             -0.1303938              0.0745976
      1.1903377             -0.1307889              0.3078467
      0.3594117              1.1309444              0.7434568
SP   1   1.00
      0.1267512              1.0000000              1.0000000
D    1   1.00
      0.8020000              1.0000000
D    1   1.00
      0.2005000              1.0000000
F    1   1.00
      0.5000000              1.0000000
****
C     0
S    6   1.00
   3047.5249000              0.0018347
    457.3695100              0.0140373
    103.9486900              0.0688426
     29.2101550              0.2321844
      9.2866630              0.4679413
      3.1639270              0.3623120
SP   3   1.00
      7.8682724             -0.1193324              0.0689991
      1.8812885             -0.1608542              0.3164240
      0.5442493              1.1434564              0.7443083
SP   1   1.00
      0.1687144              1.0000000              1.0000000
D    1   1.00
      1.2520000              1.0000000
D    1   1.00
      0.3130000              1.0000000
F    1   1.00
      0.8000000              1.0000000
****
N     0
S    6   1.00
   4173.5110000              0.0018348
    627.4579000              0.0139950
    142.9021000              0.0685870
     40.2343300              0.2322410
     12.8202100              0.4690700
      4.3904370              0.3604550
SP   3   1.00
     11.6263580             -0.1149610              0.0675800
      2.7162800             -0.1691180              0.3239070
      0.7722180              1.1458520              0.7408950
SP   1   1.00
      0.2120313              1.0000000              1.0000000
D    1   1.00
      1.8260000              1.0000000
D    1   1.00
      0.4565000              1.0000000
F    1   1.00
      1.0000000              1.0000000
****
O     0
S    6   1.00
   5484.6717000              0.0018311
    825.2349500              0.0139501
    188.0469600              0.0684451
     52.9645000              0.2327143
     16.8975700              0.4701930
      5.7996353              0.3585209
SP   3   1.00
     15.5396160             -0.1107775              0.0708743
      3.5999336             -0.1480263              0.3397528
      1.0137618              1.1307670              0.7271586
SP   1   1.00
      0.2700058              1.0000000              1.0000000
D    1   1.00
      2.5840000              1.0000000
D    1   1.00
      0.6460000              1.0000000
F    1   1.00
      1.4000000              1.0000000
****
F     0
S    6   1.00
   7001.7130900              0.0018196169
   1051.3660900              0.0139160796
    239.2856900              0.0684053245
     67.3974453              0.233185760
     21.5199573              0.471267439
      7.40310130             0.356618546
SP   3   1.00
     20.8479528             -0.108506975            0.0716287243
      4.80830834            -0.146451658            0.3459121030
      1.34406986             1.128688580            0.7224699570
SP   1   1.00
      0.358151393            1.0000000              1.0000000
D    1   1.00
      3.5000000              1.0000000
D    1   1.00
      0.8750000              1.0000000
F    1   1.00
      1.8500000              1.0000000
****
Al     0
S    6   1.00
  13983.1000000              0.00194267
   2098.7500000              0.0148599
    477.7050000              0.0728494
    134.3600000              0.2468300
     42.8709000              0.4872580
     14.5189000              0.3234960
SP   6   1.00
    239.6680000             -0.00292619             0.00460285
     57.4419000             -0.0374080              0.0331990
     18.2859000             -0.1144870              0.1362820
      6.5991400              0.1156350              0.3304760
      2.4904900              0.6125950              0.4491460
      0.9445400              0.3937990              0.2657040
SP   3   1.00
      1.2779000             -0.2276060             -0.0175130
      0.3975900              0.00144583             0.2445330
      0.1600950              1.0927900              0.8049340
SP   1   1.00
      0.0556577              1.0000000              1.0000000
D    1   1.00
      0.6500000              1.0000000
D    1   1.00
      0.1625000              1.0000000
F    1   1.00
      0.2500000              1.0000000
****
Si     0
S    6   1.00
  16115.9000000              0.00195948
   2425.5800000              0.01492880
    553.8670000              0.07284780
    156.3400000              0.24613000
     50.0683000              0.48591400
     17.0178000              0.32500200
SP   6   1.00
    292.7180000             -0.00278094             0.00443826
     69.8731000             -0.03571460             0.03266790
     22.3363000             -0.11498500             0.13472100
      8.1503900              0.09356340             0.32867800
      3.1345800              0.60301700             0.44964000
      1.2254300              0.41895900             0.26137200
SP   3   1.00
      1.7273800             -0.24463000            -0.01779510
      0.5729220              0.00431572             0.25353900
      0.2221920              1.09818000             0.80066900
SP   1   1.00
      0.0778369              1.00000000             1.00000000
D    1   1.00
      0.9000000              1.0000000
D    1   1.00
      0.2250000              1.0000000
F    1   1.00
      0.3200000              1.0000000
****
P     0
S    6   1.00
  19413.3000000              0.0018516
   2909.4200000              0.0142062
    661.3640000              0.0699995
    185.7590000              0.2400790
     59.1943000              0.4847620
     20.0310000              0.3352000
SP   6   1.00
    339.4780000             -0.00278217             0.00456462
     81.0101000             -0.0360499              0.03369360
     25.8780000             -0.1166310              0.13975500
      9.4522100              0.0968328              0.33936200
      3.6656600              0.6144180              0.45092100
      1.4674600              0.4037980              0.23858600
SP   3   1.00
      2.1562300             -0.2529230             -0.01776530
      0.7489970              0.0328517              0.27405800
      0.2831450              1.0812500              0.78542100
SP   1   1.00
      0.0998317              1.0000000              1.00000000
D    1   1.00
      1.1000000              1.0000000
D    1   1.00
      0.2750000              1.0000000
F    1   1.00
      0.4500000              1.0000000
****
S     0
S    6   1.00
  21917.1000000              0.0018690
   3301.4900000              0.0142300
    754.1460000              0.0696960
    212.7110000              0.2384870
     67.9896000              0.4833070
     23.0515000              0.3380740
SP   6   1.00
    423.7350000             -0.0023767              0.0040610
    100.7100000             -0.0316930              0.0306810
     32.1599000             -0.1133170              0.1304520
     11.8079000              0.0560900              0.3272050
      4.6311000              0.5922550              0.4528510
      1.8702500              0.4550060              0.2560420
SP   3   1.00
      2.6158400             -0.2503740             -0.0145110
      0.9221670              0.0669570              0.3102630
      0.3412870              1.0545100              0.7544830
SP   1   1.00
      0.1171670              1.0000000              1.0000000
D    1   1.00
      1.3000000              1.0000000
D    1   1.00
      0.3250000              1.0000000
F    1   1.00
      0.5500000              1.0000000
****
Cl     0
S    6   1.00
  25180.1000000              0.0018330
   3780.3500000              0.0140340
    860.4740000              0.0690970
    242.1450000              0.2374520
     77.3349000              0.4830340
     26.2470000              0.3398560
SP   6   1.00
    491.7650000             -0.0022974              0.0039894
    116.9840000             -0.0307140              0.0303180
     37.4153000             -0.1125280              0.1298800
     13.7834000              0.0450160              0.3279510
      5.4521500              0.5893530              0.4535270
      2.2258800              0.4652060              0.2521540
SP   3   1.00
      3.1864900             -0.2518300             -0.0142990
      1.1442700              0.0615890              0.3235720
      0.4203770              1.0601800              0.7435070
SP   1   1.00
      0.1426570              1.0000000              1.0000000
D    1   1.00
      1.5000000              1.0000000
D    1   1.00
      0.3750000              1.0000000
F    1   1.00
      0.7000000              1.0000000
****
}

set {
reference uhf
freeze_core true
e_convergence 10
d_convergence 10
dft_spherical_points 1202
dft_radial_points 99
}

e = energy('b3lyp')

print_out('Grab this energy {0}'.format(e))
--------------------------------------------------------------------------

    Molecular point group: c1

    Geometry (in Bohr), charge = 0, multiplicity = 2:

       Center              X                  Y                   Z               Mass
    ------------   -----------------  -----------------  -----------------  -----------------
         C           -0.323340523768    -0.000428843372     0.001524150336    12.000000000000
         C            0.060249138032    -1.401338762472    -2.427536743864    12.000000000000
         C            0.063070744032     2.801580413028     0.000681495836    12.000000000000
         C            0.059980774232    -1.399607780772     2.425897148036    12.000000000000
         H            2.086840066332    -1.648202313272    -2.850229358964     1.007825032230
         H           -0.764951929468    -0.386027996072    -4.023903820264     1.007825032230
         H           -0.766255299068    -3.293907311372    -2.351448743064     1.007825032230
         H            2.086594278232     3.287941353628     0.003616059436     1.007825032230
         H           -0.767658656968     3.685689919328     1.675010784636     1.007825032230
         H           -0.764914978168     3.674443172828    -1.677550010264     1.007825032230
         H            2.087231130332    -1.640680967472     2.844444563436     1.007825032230
         H           -0.764004778668    -3.290827113972     2.346226211436     1.007825032230
         H           -0.765449121968    -0.390869957972     4.027094449136     1.007825032230

  Charge       = 0
  Multiplicity = 2
  Basis Set: ANONYMOUS44979192
    Blend: 6-31G_2DFP_
  Basis Set: (ANONYMOUS44979192 AUX)
    Blend: DEF2-UNIVERSAL-JKFIT

    Orbital Energies [Eh]
    ---------------------

    Alpha Occupied:

       1A    -10.180342     2A    -10.167191     3A    -10.166984
       4A    -10.166871     5A     -0.797767     6A     -0.686313
       7A     -0.686061     8A     -0.530776     9A     -0.441131
      10A     -0.434790    11A     -0.434547    12A     -0.382755
      13A     -0.382443    14A     -0.363612    15A     -0.338104
      16A     -0.337891    17A     -0.168961

    Alpha Virtual:

      18A      0.076073    19A      0.134110    20A      0.134201
      21A      0.142538    22A      0.142714    23A      0.154880
      24A      0.178658    25A      0.178898    26A      0.203548
      27A      0.214804    28A      0.275711    29A      0.276259
      30A      0.399060    31A      0.399386    32A      0.403356
      33A      0.424024    34A      0.424172    35A      0.456593
      36A      0.495324    37A      0.495455    38A      0.512159
      39A      0.513979    40A      0.578518    41A      0.579116
      42A      0.591309    43A      0.591952    44A      0.602577
      45A      0.624757    46A      0.631775    47A      0.636138
      48A      0.636366    49A      0.663239    50A      0.663586
      51A      0.683701    52A      0.684004    53A      0.734994
      54A      0.825190    55A      0.825622    56A      0.853916
      57A      0.914878    58A      0.915161    59A      0.944123
      60A      0.944612    61A      0.960603    62A      0.961987
      63A      1.003462    64A      1.127864    65A      1.128339
      66A      1.142219    67A      1.163142    68A      1.163414
      69A      1.223325    70A      1.274283    71A      1.274694
      72A      1.279353    73A      1.324102    74A      1.324612
      75A      1.355988    76A      1.365707    77A      1.366398
      78A      1.392452    79A      1.403716    80A      1.404395
      81A      1.416616    82A      1.417614    83A      1.427911
      84A      1.491494    85A      1.499079    86A      1.542550
      87A      1.543103    88A      1.574291    89A      1.574604
      90A      1.669833    91A      1.738877    92A      1.739959
      93A      1.768321    94A      1.830866    95A      1.831930
      96A      1.971730    97A      2.017825    98A      2.018846
      99A      2.019722   100A      2.051753   101A      2.053527
     102A      2.738205   103A      2.738759   104A      2.790930
     105A      2.811416   106A      2.889582   107A      2.890289
     108A      2.894994   109A      2.929457   110A      2.929541
     111A      2.958995   112A      2.964192   113A      2.964555
     114A      3.034009   115A      3.071106   116A      3.071454
     117A      3.084357   118A      3.168548   119A      3.169022
     120A      3.180585   121A      3.285261   122A      3.285369
     123A      3.326800   124A      3.327517   125A      3.375621
     126A      3.489802   127A      3.490497   128A      3.514026
     129A      3.525305   130A      3.568025   131A      3.568677
     132A      3.575241   133A      3.666023   134A      3.666716
     135A      3.679624   136A      3.693727   137A      3.694568
     138A      3.775568   139A      3.778043   140A      3.789153
     141A      3.911952   142A      3.912509   143A      4.034450
     144A      4.110101   145A      4.112622   146A      4.147232
     147A      4.148984   148A      4.173283   149A      4.202485
     150A      4.202928   151A      4.203369   152A      4.210861
     153A      4.315039   154A      4.316828   155A      4.359040
     156A      4.424166   157A      4.424746   158A      4.443437
     159A      4.515705   160A      4.517966   161A      4.577883
     162A      4.578642   163A      4.617527   164A      4.709449
     165A      4.773445   166A      4.775736   167A      4.836961
     168A      4.962858   169A      5.002377   170A      5.003517
     171A      5.228045   172A      5.246347   173A      5.247278
     174A      5.354736   175A      5.356272   176A      5.479356

    Beta Occupied:

       1A    -10.167949     2A    -10.167741     3A    -10.167634
       4A    -10.166519     5A     -0.781092     6A     -0.684108
       7A     -0.683871     8A     -0.511747     9A     -0.431166
      10A     -0.430923    11A     -0.421818    12A     -0.376847
      13A     -0.376521    14A     -0.362596    15A     -0.333226
      16A     -0.333015

    Beta Virtual:

      17A     -0.025742    18A      0.077082    19A      0.135011
      20A      0.135079    21A      0.144411    22A      0.144583
      23A      0.163339    24A      0.182333    25A      0.182567
      26A      0.215033    27A      0.218930    28A      0.282070
      29A      0.282596    30A      0.400233    31A      0.400562
      32A      0.419789    33A      0.426832    34A      0.426989
      35A      0.468500    36A      0.497588    37A      0.497712
      38A      0.513895    39A      0.556324    40A      0.584068
      41A      0.584666    42A      0.597501    43A      0.598121
      44A      0.609999    45A      0.628134    46A      0.631932
      47A      0.639414    48A      0.639661    49A      0.666818
      50A      0.667135    51A      0.686329    52A      0.686647
      53A      0.757517    54A      0.830337    55A      0.830812
      56A      0.855269    57A      0.922883    58A      0.923098
      59A      0.945961    60A      0.953536    61A      0.965965
      62A      0.967242    63A      1.008703    64A      1.131809
      65A      1.132452    66A      1.155599    67A      1.168303
      68A      1.168397    69A      1.232297    70A      1.279878
      71A      1.280294    72A      1.285106    73A      1.329080
      74A      1.329611    75A      1.365404    76A      1.370963
      77A      1.371629    78A      1.393512    79A      1.407152
      80A      1.407887    81A      1.421680    82A      1.422651
      83A      1.428180    84A      1.492542    85A      1.509522
      86A      1.546959    87A      1.547508    88A      1.582217
      89A      1.582421    90A      1.674679    91A      1.744638
      92A      1.745723    93A      1.779099    94A      1.834724
      95A      1.835783    96A      1.972589    97A      2.024794
      98A      2.026084    99A      2.039697   100A      2.058453
     101A      2.060255   102A      2.746557   103A      2.747080
     104A      2.811829   105A      2.816063   106A      2.902315
     107A      2.902970   108A      2.924665   109A      2.931943
     110A      2.932015   111A      2.960057   112A      2.968754
     113A      2.969082   114A      3.041944   115A      3.081022
     116A      3.081346   117A      3.086184   118A      3.184274
     119A      3.184793   120A      3.188269   121A      3.290043
     122A      3.290184   123A      3.330613   124A      3.331312
     125A      3.383439   126A      3.492538   127A      3.493219
     128A      3.512394   129A      3.528357   130A      3.574906
     131A      3.581436   132A      3.582129   133A      3.670886
     134A      3.671382   135A      3.692922   136A      3.725568
     137A      3.725959   138A      3.780140   139A      3.782523
     140A      3.817699   141A      3.921779   142A      3.922314
     143A      4.045337   144A      4.117031   145A      4.119324
     146A      4.154414   147A      4.156225   148A      4.187336
     149A      4.208814   150A      4.209137   151A      4.210674
     152A      4.215336   153A      4.322445   154A      4.324293
     155A      4.362411   156A      4.432423   157A      4.432916
     158A      4.446324   159A      4.523501   160A      4.525748
     161A      4.588494   162A      4.589231   163A      4.624723
     164A      4.719793   165A      4.780446   166A      4.782641
     167A      4.839881   168A      4.967653   169A      5.006424
     170A      5.007548   171A      5.233761   172A      5.248124
     173A      5.249070   174A      5.361197   175A      5.362772
     176A      5.481678

    Final Occupation by Irrep:
              A
    DOCC [    16 ]
    SOCC [     1 ]

  @DF-UKS Final Energy:  -157.81306707760010

   => Energetics <=

    Nuclear Repulsion Energy =            125.3946273932339892
    One-Electron Energy =                -458.7489129854454859
    Two-Electron Energy =                 195.8483616453088416
    DFT Exchange-Correlation Energy =     -20.3071431306974333
    Empirical Dispersion Energy =           0.0000000000000000
    VV10 Nonlocal Energy =                  0.0000000000000000
    Total Energy =                       -157.8130670776000954

  UHF NO Occupations:
  HONO-2 :   15  A 1.9996009
  HONO-1 :   16  A 1.9989804
  HONO-0 :   17  A 1.0000000
  LUNO+0 :   18  A 0.0010196
  LUNO+1 :   19  A 0.0003991
  LUNO+2 :   20  A 0.0001979
  LUNO+3 :   21  A 0.0001972

Computation Completed

Properties will be evaluated at   0.000000,   0.000000,   0.000000 [a0]

Properties computed using the SCF density matrix

  Nuclear Dipole Moment: [e a0]
     X:     0.8272      Y:    -0.0012      Z:    -0.0033

  Electronic Dipole Moment: [e a0]
     X:    -0.7493      Y:     0.0011      Z:     0.0034

  Dipole Moment: [e a0]
     X:     0.0779      Y:    -0.0001      Z:     0.0000     Total:     0.0779

  Dipole Moment: [D]
     X:     0.1980      Y:    -0.0003      Z:     0.0001     Total:     0.1980

*** tstop() called on n067 at Fri Nov  5 12:36:36 2021
Module time:
	user time   =     540.12 seconds =       9.00 minutes
	system time =      12.29 seconds =       0.20 minutes
	total time  =        139 seconds =       2.32 minutes
Total time:
	user time   =     540.12 seconds =       9.00 minutes
	system time =      12.29 seconds =       0.20 minutes
	total time  =        139 seconds =       2.32 minutes
Grab this energy -157.8130670776001
    Psi4 stopped on: Friday, 05 November 2021 12:36PM
    Psi4 wall time for execution: 0:02:18.92

*** Psi4 exiting successfully. Buy a developer a beer!
