                               Psi4 1.4a2.dev629

  ==> Input File <==

--------------------------------------------------------------------------
import os
memory 14 GB

molecule {
 C   -0.3215604622   -0.0002507047    0.0000000000
 C    0.0611424858   -1.4006706378   -2.4262753634
 C    0.0626924512    2.8013754562   -0.0000000000
 C    0.0611424858   -1.4006706378    2.4262753634
 H    2.0849869025   -1.6442033621   -2.8508257013
 H   -0.7674709118   -0.3879508065   -4.0252517762
 H   -0.7659655135   -3.2915697725   -2.3460135731
 H    2.0896815526    3.3002410155   -0.0000000000
 H   -0.7644036721    3.6736995385    1.6769402830
 H   -0.7644036721    3.6736995385   -1.6769402830
 H    2.0849869025   -1.6442033621    2.8508257013
 H   -0.7659655135   -3.2915697725    2.3460135731
 H   -0.7674709118   -0.3879508065    4.0252517762
units bohr
0 2
}

basis {

assign 6-31g_2dfp_

[ 6-31g_2dfp_ ]

spherical

!----------------------------------------------------------------------
! Basis Set Exchange
! Version v0.8.13
! https://www.basissetexchange.org
!----------------------------------------------------------------------
!   Basis set: 6-31G(2df,p)
! Description: 6-31G(2df,p)
!        Role: orbital
!     Version: 0  (Data from the original Basis Set Exchange)
!----------------------------------------------------------------------

****
H     0
S    3   1.00
     18.7311370              0.03349460
      2.8253937              0.23472695
      0.6401217              0.81375733
S    1   1.00
      0.1612778              1.00000000
P    1   1.00
      1.5000000              1.0000000
P    1   1.00
      0.3750000              1.0000000
****
B     0
S    6   1.00
   2068.8823000              0.0018663
    310.6495700              0.0142515
     70.6830330              0.0695516
     19.8610800              0.2325729
      6.2993048              0.4670787
      2.1270270              0.3634314
SP   3   1.00
      4.7279710             -0.1303938              0.0745976
      1.1903377             -0.1307889              0.3078467
      0.3594117              1.1309444              0.7434568
SP   1   1.00
      0.1267512              1.0000000              1.0000000
D    1   1.00
      0.8020000              1.0000000
D    1   1.00
      0.2005000              1.0000000
F    1   1.00
      0.5000000              1.0000000
****
C     0
S    6   1.00
   3047.5249000              0.0018347
    457.3695100              0.0140373
    103.9486900              0.0688426
     29.2101550              0.2321844
      9.2866630              0.4679413
      3.1639270              0.3623120
SP   3   1.00
      7.8682724             -0.1193324              0.0689991
      1.8812885             -0.1608542              0.3164240
      0.5442493              1.1434564              0.7443083
SP   1   1.00
      0.1687144              1.0000000              1.0000000
D    1   1.00
      1.2520000              1.0000000
D    1   1.00
      0.3130000              1.0000000
F    1   1.00
      0.8000000              1.0000000
****
N     0
S    6   1.00
   4173.5110000              0.0018348
    627.4579000              0.0139950
    142.9021000              0.0685870
     40.2343300              0.2322410
     12.8202100              0.4690700
      4.3904370              0.3604550
SP   3   1.00
     11.6263580             -0.1149610              0.0675800
      2.7162800             -0.1691180              0.3239070
      0.7722180              1.1458520              0.7408950
SP   1   1.00
      0.2120313              1.0000000              1.0000000
D    1   1.00
      1.8260000              1.0000000
D    1   1.00
      0.4565000              1.0000000
F    1   1.00
      1.0000000              1.0000000
****
O     0
S    6   1.00
   5484.6717000              0.0018311
    825.2349500              0.0139501
    188.0469600              0.0684451
     52.9645000              0.2327143
     16.8975700              0.4701930
      5.7996353              0.3585209
SP   3   1.00
     15.5396160             -0.1107775              0.0708743
      3.5999336             -0.1480263              0.3397528
      1.0137618              1.1307670              0.7271586
SP   1   1.00
      0.2700058              1.0000000              1.0000000
D    1   1.00
      2.5840000              1.0000000
D    1   1.00
      0.6460000              1.0000000
F    1   1.00
      1.4000000              1.0000000
****
F     0
S    6   1.00
   7001.7130900              0.0018196169
   1051.3660900              0.0139160796
    239.2856900              0.0684053245
     67.3974453              0.233185760
     21.5199573              0.471267439
      7.40310130             0.356618546
SP   3   1.00
     20.8479528             -0.108506975            0.0716287243
      4.80830834            -0.146451658            0.3459121030
      1.34406986             1.128688580            0.7224699570
SP   1   1.00
      0.358151393            1.0000000              1.0000000
D    1   1.00
      3.5000000              1.0000000
D    1   1.00
      0.8750000              1.0000000
F    1   1.00
      1.8500000              1.0000000
****
Al     0
S    6   1.00
  13983.1000000              0.00194267
   2098.7500000              0.0148599
    477.7050000              0.0728494
    134.3600000              0.2468300
     42.8709000              0.4872580
     14.5189000              0.3234960
SP   6   1.00
    239.6680000             -0.00292619             0.00460285
     57.4419000             -0.0374080              0.0331990
     18.2859000             -0.1144870              0.1362820
      6.5991400              0.1156350              0.3304760
      2.4904900              0.6125950              0.4491460
      0.9445400              0.3937990              0.2657040
SP   3   1.00
      1.2779000             -0.2276060             -0.0175130
      0.3975900              0.00144583             0.2445330
      0.1600950              1.0927900              0.8049340
SP   1   1.00
      0.0556577              1.0000000              1.0000000
D    1   1.00
      0.6500000              1.0000000
D    1   1.00
      0.1625000              1.0000000
F    1   1.00
      0.2500000              1.0000000
****
Si     0
S    6   1.00
  16115.9000000              0.00195948
   2425.5800000              0.01492880
    553.8670000              0.07284780
    156.3400000              0.24613000
     50.0683000              0.48591400
     17.0178000              0.32500200
SP   6   1.00
    292.7180000             -0.00278094             0.00443826
     69.8731000             -0.03571460             0.03266790
     22.3363000             -0.11498500             0.13472100
      8.1503900              0.09356340             0.32867800
      3.1345800              0.60301700             0.44964000
      1.2254300              0.41895900             0.26137200
SP   3   1.00
      1.7273800             -0.24463000            -0.01779510
      0.5729220              0.00431572             0.25353900
      0.2221920              1.09818000             0.80066900
SP   1   1.00
      0.0778369              1.00000000             1.00000000
D    1   1.00
      0.9000000              1.0000000
D    1   1.00
      0.2250000              1.0000000
F    1   1.00
      0.3200000              1.0000000
****
P     0
S    6   1.00
  19413.3000000              0.0018516
   2909.4200000              0.0142062
    661.3640000              0.0699995
    185.7590000              0.2400790
     59.1943000              0.4847620
     20.0310000              0.3352000
SP   6   1.00
    339.4780000             -0.00278217             0.00456462
     81.0101000             -0.0360499              0.03369360
     25.8780000             -0.1166310              0.13975500
      9.4522100              0.0968328              0.33936200
      3.6656600              0.6144180              0.45092100
      1.4674600              0.4037980              0.23858600
SP   3   1.00
      2.1562300             -0.2529230             -0.01776530
      0.7489970              0.0328517              0.27405800
      0.2831450              1.0812500              0.78542100
SP   1   1.00
      0.0998317              1.0000000              1.00000000
D    1   1.00
      1.1000000              1.0000000
D    1   1.00
      0.2750000              1.0000000
F    1   1.00
      0.4500000              1.0000000
****
S     0
S    6   1.00
  21917.1000000              0.0018690
   3301.4900000              0.0142300
    754.1460000              0.0696960
    212.7110000              0.2384870
     67.9896000              0.4833070
     23.0515000              0.3380740
SP   6   1.00
    423.7350000             -0.0023767              0.0040610
    100.7100000             -0.0316930              0.0306810
     32.1599000             -0.1133170              0.1304520
     11.8079000              0.0560900              0.3272050
      4.6311000              0.5922550              0.4528510
      1.8702500              0.4550060              0.2560420
SP   3   1.00
      2.6158400             -0.2503740             -0.0145110
      0.9221670              0.0669570              0.3102630
      0.3412870              1.0545100              0.7544830
SP   1   1.00
      0.1171670              1.0000000              1.0000000
D    1   1.00
      1.3000000              1.0000000
D    1   1.00
      0.3250000              1.0000000
F    1   1.00
      0.5500000              1.0000000
****
Cl     0
S    6   1.00
  25180.1000000              0.0018330
   3780.3500000              0.0140340
    860.4740000              0.0690970
    242.1450000              0.2374520
     77.3349000              0.4830340
     26.2470000              0.3398560
SP   6   1.00
    491.7650000             -0.0022974              0.0039894
    116.9840000             -0.0307140              0.0303180
     37.4153000             -0.1125280              0.1298800
     13.7834000              0.0450160              0.3279510
      5.4521500              0.5893530              0.4535270
      2.2258800              0.4652060              0.2521540
SP   3   1.00
      3.1864900             -0.2518300             -0.0142990
      1.1442700              0.0615890              0.3235720
      0.4203770              1.0601800              0.7435070
SP   1   1.00
      0.1426570              1.0000000              1.0000000
D    1   1.00
      1.5000000              1.0000000
D    1   1.00
      0.3750000              1.0000000
F    1   1.00
      0.7000000              1.0000000
****
}

set {
reference uhf
freeze_core true
e_convergence 10
d_convergence 10
dft_spherical_points 1202
dft_radial_points 99
}

e = energy('b3lyp')

print_out('Grab this energy {0}'.format(e))
--------------------------------------------------------------------------

    Molecular point group: cs

    Geometry (in Bohr), charge = 0, multiplicity = 2:

       Center              X                  Y                   Z               Mass
    ------------   -----------------  -----------------  -----------------  -----------------
         C           -0.322226294793    -0.000208571234     0.000000000000    12.000000000000
         C            0.060476653207    -1.400628504334    -2.426275363400    12.000000000000
         C            0.062026618607     2.801417589666     0.000000000000    12.000000000000
         C            0.060476653207    -1.400628504334     2.426275363400    12.000000000000
         H            2.084321069907    -1.644161228634    -2.850825701300     1.007825032230
         H           -0.768136744393    -0.387908673034    -4.025251776200     1.007825032230
         H           -0.766631346093    -3.291527639034    -2.346013573100     1.007825032230
         H            2.089015720007     3.300283148966     0.000000000000     1.007825032230
         H           -0.765069504693     3.673741671966     1.676940283000     1.007825032230
         H           -0.765069504693     3.673741671966    -1.676940283000     1.007825032230
         H            2.084321069907    -1.644161228634     2.850825701300     1.007825032230
         H           -0.766631346093    -3.291527639034     2.346013573100     1.007825032230
         H           -0.768136744393    -0.387908673034     4.025251776200     1.007825032230

  Charge       = 0
  Multiplicity = 2
  Basis Set: ANONYMOUS4CF0D13C
    Blend: 6-31G_2DFP_
  Basis Set: (ANONYMOUS4CF0D13C AUX)
    Blend: DEF2-UNIVERSAL-JKFIT

    Orbital Energies [Eh]
    ---------------------

    Alpha Occupied:

       1Ap   -10.180330     1App  -10.167001     2Ap   -10.166980
       3Ap   -10.166924     4Ap    -0.797831     2App   -0.686254
       5Ap    -0.686196     6Ap    -0.530787     7Ap    -0.440955
       3App   -0.434970     8Ap    -0.434796     4App   -0.382671
       9Ap    -0.382222     5App   -0.363749     6App   -0.338175
      10Ap    -0.337867    11Ap    -0.169050

    Alpha Virtual:

      12Ap     0.076109    13Ap     0.134056     7App    0.134155
      14Ap     0.142488     8App    0.142902    15Ap     0.155085
      16Ap     0.178604     9App    0.178878    17Ap     0.203683
      10App    0.215024    18Ap     0.276005    11App    0.276044
      12App    0.399332    19Ap     0.399578    20Ap     0.403269
      13App    0.423843    21Ap     0.424047    22Ap     0.456831
      14App    0.495355    23Ap     0.495375    15App    0.511973
      24Ap     0.514039    16App    0.578848    25Ap     0.579066
      26Ap     0.591189    17App    0.591698    27Ap     0.602369
      28Ap     0.624826    18App    0.632001    29Ap     0.636121
      19App    0.636583    20App    0.663649    30Ap     0.663732
      21App    0.683653    31Ap     0.683881    32Ap     0.735076
      33Ap     0.825247    22App    0.825363    23App    0.854261
      34Ap     0.914855    24App    0.915490    35Ap     0.943815
      25App    0.944333    36Ap     0.960941    26App    0.961100
      37Ap     1.004176    27App    1.128169    38Ap     1.128965
      39Ap     1.141599    28App    1.163665    40Ap     1.163982
      41Ap     1.223256    29App    1.274358    42Ap     1.274558
      43Ap     1.279598    44Ap     1.324552    30App    1.324696
      45Ap     1.355561    31App    1.366374    46Ap     1.366405
      32App    1.392257    47Ap     1.403255    33App    1.404264
      48Ap     1.416639    34App    1.417286    35App    1.428539
      36App    1.492100    49Ap     1.498745    37App    1.542874
      50Ap     1.542925    51Ap     1.573351    38App    1.574329
      52Ap     1.669898    53Ap     1.739174    39App    1.739381
      54Ap     1.768185    40App    1.831243    55Ap     1.832112
      41App    1.971826    56Ap     2.018087    57Ap     2.019821
      42App    2.019983    58Ap     2.052654    43App    2.053570
      59Ap     2.738068    44App    2.738080    60Ap     2.791155
      45App    2.811945    46App    2.889957    61Ap     2.890239
      62Ap     2.895226    63Ap     2.929639    47App    2.930259
      48App    2.959051    49App    2.964267    64Ap     2.964605
      65Ap     3.034471    66Ap     3.070169    50App    3.071441
      51App    3.084002    52App    3.168494    67Ap     3.168941
      68Ap     3.180742    53App    3.284795    69Ap     3.285035
      54App    3.327391    70Ap     3.329147    71Ap     3.375324
      72Ap     3.488608    55App    3.490734    56App    3.514223
      73Ap     3.525499    57App    3.568687    74Ap     3.569031
      58App    3.576151    75Ap     3.665846    59App    3.666808
      76Ap     3.680743    77Ap     3.692950    60App    3.694241
      61App    3.777905    78Ap     3.778001    79Ap     3.787863
      62App    3.912205    80Ap     3.912478    81Ap     4.033342
      82Ap     4.111340    63App    4.111619    83Ap     4.147849
      64App    4.147933    84Ap     4.173179    85Ap     4.202130
      65App    4.203500    86Ap     4.204375    66App    4.211334
      87Ap     4.316085    67App    4.316494    68App    4.360118
      88Ap     4.423861    69App    4.424060    70App    4.444423
      89Ap     4.516977    71App    4.518311    72App    4.579221
      90Ap     4.579306    91Ap     4.618055    92Ap     4.709721
      93Ap     4.774392    73App    4.775530    74App    4.835905
      94Ap     4.963384    95Ap     5.002308    75App    5.003376
      96Ap     5.228432    97Ap     5.246201    76App    5.247296
      77App    5.356036    98Ap     5.356133    78App    5.479604

    Beta Occupied:

       1App  -10.167753     1Ap   -10.167739     2Ap   -10.167696
       3Ap   -10.166512     4Ap    -0.781160     2App   -0.684049
       5Ap    -0.684002     6Ap    -0.511755     3App   -0.431344
       7Ap    -0.431148     8Ap    -0.421659     4App   -0.376752
       9Ap    -0.376289     5App   -0.362727     6App   -0.333290
      10Ap    -0.333005

    Beta Virtual:

      11Ap    -0.025909    12Ap     0.077114    13Ap     0.134969
       7App    0.135053    14Ap     0.144391     8App    0.144761
      15Ap     0.163594    16Ap     0.182265     9App    0.182547
      10App    0.215255    17Ap     0.219025    18Ap     0.282337
      11App    0.282386    12App    0.400510    19Ap     0.400748
      20Ap     0.419738    13App    0.426647    21Ap     0.426854
      22Ap     0.468817    14App    0.497628    23Ap     0.497653
      15App    0.513713    24Ap     0.556298    16App    0.584414
      25Ap     0.584648    26Ap     0.597336    17App    0.597857
      27Ap     0.609806    28Ap     0.628207    18App    0.632172
      29Ap     0.639404    19App    0.639848    20App    0.667227
      30Ap     0.667327    21App    0.686286    31Ap     0.686482
      32Ap     0.757563    33Ap     0.830434    22App    0.830545
      23App    0.855617    34Ap     0.922900    24App    0.923481
      25App    0.946171    35Ap     0.952822    36Ap     0.966235
      26App    0.966365    37Ap     1.009445    27App    1.132243
      38Ap     1.132950    39Ap     1.154758    28App    1.168697
      40Ap     1.169086    41Ap     1.232326    29App    1.279987
      42Ap     1.280162    43Ap     1.285419    44Ap     1.329576
      30App    1.329729    45Ap     1.364906    31App    1.371592
      46Ap     1.371672    32App    1.393330    47Ap     1.406727
      33App    1.407751    48Ap     1.421642    34App    1.422266
      35App    1.428822    36App    1.493138    49Ap     1.509163
      37App    1.547177    50Ap     1.547434    51Ap     1.581141
      38App    1.582299    52Ap     1.674747    53Ap     1.744943
      39App    1.745141    54Ap     1.778979    40App    1.835100
      55Ap     1.835961    41App    1.972694    56Ap     2.026274
      42App    2.026395    57Ap     2.039474    58Ap     2.059343
      43App    2.060282    59Ap     2.746403    44App    2.746438
      45App    2.812361    60Ap     2.816294    46App    2.902553
      61Ap     2.902910    62Ap     2.924892    63Ap     2.932151
      47App    2.932742    48App    2.960122    49App    2.968845
      64Ap     2.969186    65Ap     3.042397    66Ap     3.080022
      50App    3.081383    51App    3.085820    52App    3.184236
      67Ap     3.184689    68Ap     3.188434    53App    3.289532
      69Ap     3.289847    54App    3.331181    70Ap     3.332916
      71Ap     3.383116    72Ap     3.491428    55App    3.493509
      56App    3.512596    73Ap     3.528508    57App    3.575738
      74Ap     3.582094    58App    3.582439    75Ap     3.670528
      59App    3.671447    76Ap     3.693976    77Ap     3.724992
      60App    3.725792    61App    3.782524    78Ap     3.782577
      79Ap     3.816413    62App    3.921968    80Ap     3.922253
      81Ap     4.044283    82Ap     4.118279    63App    4.118497
      83Ap     4.154894    64App    4.155142    84Ap     4.187204
      65App    4.209405    85Ap     4.209614    86Ap     4.210802
      66App    4.215838    87Ap     4.323571    67App    4.323924
      68App    4.363501    88Ap     4.432070    69App    4.432292
      70App    4.447282    89Ap     4.524764    71App    4.526080
      72App    4.589828    90Ap     4.589945    91Ap     4.625172
      92Ap     4.720169    93Ap     4.781303    73App    4.782499
      74App    4.838825    94Ap     4.968175    95Ap     5.006379
      75App    5.007416    96Ap     5.234133    97Ap     5.247990
      76App    5.249082    77App    5.362525    98Ap     5.362608
      78App    5.481931

    Final Occupation by Irrep:
             Ap   App
    DOCC [    10,    6 ]
    SOCC [     1,    0 ]

  @DF-UKS Final Energy:  -157.81307255584576

   => Energetics <=

    Nuclear Repulsion Energy =            125.4062270229621987
    One-Electron Energy =                -458.7715569324313947
    Two-Electron Energy =                 195.8597442864263485
    DFT Exchange-Correlation Energy =     -20.3074869328029024
    Empirical Dispersion Energy =           0.0000000000000000
    VV10 Nonlocal Energy =                  0.0000000000000000
    Total Energy =                       -157.8130725558457641

  UHF NO Occupations:
  HONO-2 :    9 Ap 1.9995995
  HONO-1 :   10 Ap 1.9989824
  HONO-0 :   11 Ap 1.0000000
  LUNO+0 :   12 Ap 0.0010176
  LUNO+1 :   13 Ap 0.0004005
  LUNO+2 :   14 Ap 0.0001974
  LUNO+3 :    7App 0.0001971

Computation Completed

Properties will be evaluated at   0.000000,   0.000000,   0.000000 [a0]

Properties computed using the SCF density matrix

  Nuclear Dipole Moment: [e a0]
     X:     0.8225      Y:     0.0003      Z:     0.0000

  Electronic Dipole Moment: [e a0]
     X:    -0.7450      Y:    -0.0011      Z:     0.0000

  Dipole Moment: [e a0]
     X:     0.0775      Y:    -0.0008      Z:     0.0000     Total:     0.0775

  Dipole Moment: [D]
     X:     0.1970      Y:    -0.0020      Z:     0.0000     Total:     0.1970

*** tstop() called on n032 at Fri Nov  5 15:23:16 2021
Module time:
	user time   =     636.56 seconds =      10.61 minutes
	system time =      12.16 seconds =       0.20 minutes
	total time  =        163 seconds =       2.72 minutes
Total time:
	user time   =     636.56 seconds =      10.61 minutes
	system time =      12.16 seconds =       0.20 minutes
	total time  =        163 seconds =       2.72 minutes
Grab this energy -157.81307255584576
    Psi4 stopped on: Friday, 05 November 2021 03:23PM
    Psi4 wall time for execution: 0:02:43.12

*** Psi4 exiting successfully. Buy a developer a beer!
