                               Psi4 1.4a2.dev629

  ==> Input File <==

--------------------------------------------------------------------------
import os
memory 14 GB

molecule {
 C   -0.3233411911    0.0024277403    0.0002251905
 C    0.0616825646   -1.4014443874   -2.4290448013
 C    0.0602239445    2.8005076825    0.0004822215
 C    0.0613921174   -1.3990584380    2.4258852969
 H    2.0882861842   -1.6460291829   -2.8451668189
 H   -0.7610034401   -0.3873561256   -4.0298731359
 H   -0.7687720279   -3.2886456656   -2.3490430445
 H    2.0842270902    3.2889231218   -0.0001851269
 H   -0.7671235682    3.6773853734    1.6766470691
 H   -0.7670005094    3.6773607782   -1.6768341118
 H    2.0881460515   -1.6467822768    2.8461019137
 H   -0.7684873515   -3.2890626263    2.3501113579
 H   -0.7608377410   -0.3882503071    4.0306939897
units bohr
0 2
}

basis {

assign 6-31g_2dfp_

[ 6-31g_2dfp_ ]

spherical

!----------------------------------------------------------------------
! Basis Set Exchange
! Version v0.8.13
! https://www.basissetexchange.org
!----------------------------------------------------------------------
!   Basis set: 6-31G(2df,p)
! Description: 6-31G(2df,p)
!        Role: orbital
!     Version: 0  (Data from the original Basis Set Exchange)
!----------------------------------------------------------------------

****
H     0
S    3   1.00
     18.7311370              0.03349460
      2.8253937              0.23472695
      0.6401217              0.81375733
S    1   1.00
      0.1612778              1.00000000
P    1   1.00
      1.5000000              1.0000000
P    1   1.00
      0.3750000              1.0000000
****
B     0
S    6   1.00
   2068.8823000              0.0018663
    310.6495700              0.0142515
     70.6830330              0.0695516
     19.8610800              0.2325729
      6.2993048              0.4670787
      2.1270270              0.3634314
SP   3   1.00
      4.7279710             -0.1303938              0.0745976
      1.1903377             -0.1307889              0.3078467
      0.3594117              1.1309444              0.7434568
SP   1   1.00
      0.1267512              1.0000000              1.0000000
D    1   1.00
      0.8020000              1.0000000
D    1   1.00
      0.2005000              1.0000000
F    1   1.00
      0.5000000              1.0000000
****
C     0
S    6   1.00
   3047.5249000              0.0018347
    457.3695100              0.0140373
    103.9486900              0.0688426
     29.2101550              0.2321844
      9.2866630              0.4679413
      3.1639270              0.3623120
SP   3   1.00
      7.8682724             -0.1193324              0.0689991
      1.8812885             -0.1608542              0.3164240
      0.5442493              1.1434564              0.7443083
SP   1   1.00
      0.1687144              1.0000000              1.0000000
D    1   1.00
      1.2520000              1.0000000
D    1   1.00
      0.3130000              1.0000000
F    1   1.00
      0.8000000              1.0000000
****
N     0
S    6   1.00
   4173.5110000              0.0018348
    627.4579000              0.0139950
    142.9021000              0.0685870
     40.2343300              0.2322410
     12.8202100              0.4690700
      4.3904370              0.3604550
SP   3   1.00
     11.6263580             -0.1149610              0.0675800
      2.7162800             -0.1691180              0.3239070
      0.7722180              1.1458520              0.7408950
SP   1   1.00
      0.2120313              1.0000000              1.0000000
D    1   1.00
      1.8260000              1.0000000
D    1   1.00
      0.4565000              1.0000000
F    1   1.00
      1.0000000              1.0000000
****
O     0
S    6   1.00
   5484.6717000              0.0018311
    825.2349500              0.0139501
    188.0469600              0.0684451
     52.9645000              0.2327143
     16.8975700              0.4701930
      5.7996353              0.3585209
SP   3   1.00
     15.5396160             -0.1107775              0.0708743
      3.5999336             -0.1480263              0.3397528
      1.0137618              1.1307670              0.7271586
SP   1   1.00
      0.2700058              1.0000000              1.0000000
D    1   1.00
      2.5840000              1.0000000
D    1   1.00
      0.6460000              1.0000000
F    1   1.00
      1.4000000              1.0000000
****
F     0
S    6   1.00
   7001.7130900              0.0018196169
   1051.3660900              0.0139160796
    239.2856900              0.0684053245
     67.3974453              0.233185760
     21.5199573              0.471267439
      7.40310130             0.356618546
SP   3   1.00
     20.8479528             -0.108506975            0.0716287243
      4.80830834            -0.146451658            0.3459121030
      1.34406986             1.128688580            0.7224699570
SP   1   1.00
      0.358151393            1.0000000              1.0000000
D    1   1.00
      3.5000000              1.0000000
D    1   1.00
      0.8750000              1.0000000
F    1   1.00
      1.8500000              1.0000000
****
Al     0
S    6   1.00
  13983.1000000              0.00194267
   2098.7500000              0.0148599
    477.7050000              0.0728494
    134.3600000              0.2468300
     42.8709000              0.4872580
     14.5189000              0.3234960
SP   6   1.00
    239.6680000             -0.00292619             0.00460285
     57.4419000             -0.0374080              0.0331990
     18.2859000             -0.1144870              0.1362820
      6.5991400              0.1156350              0.3304760
      2.4904900              0.6125950              0.4491460
      0.9445400              0.3937990              0.2657040
SP   3   1.00
      1.2779000             -0.2276060             -0.0175130
      0.3975900              0.00144583             0.2445330
      0.1600950              1.0927900              0.8049340
SP   1   1.00
      0.0556577              1.0000000              1.0000000
D    1   1.00
      0.6500000              1.0000000
D    1   1.00
      0.1625000              1.0000000
F    1   1.00
      0.2500000              1.0000000
****
Si     0
S    6   1.00
  16115.9000000              0.00195948
   2425.5800000              0.01492880
    553.8670000              0.07284780
    156.3400000              0.24613000
     50.0683000              0.48591400
     17.0178000              0.32500200
SP   6   1.00
    292.7180000             -0.00278094             0.00443826
     69.8731000             -0.03571460             0.03266790
     22.3363000             -0.11498500             0.13472100
      8.1503900              0.09356340             0.32867800
      3.1345800              0.60301700             0.44964000
      1.2254300              0.41895900             0.26137200
SP   3   1.00
      1.7273800             -0.24463000            -0.01779510
      0.5729220              0.00431572             0.25353900
      0.2221920              1.09818000             0.80066900
SP   1   1.00
      0.0778369              1.00000000             1.00000000
D    1   1.00
      0.9000000              1.0000000
D    1   1.00
      0.2250000              1.0000000
F    1   1.00
      0.3200000              1.0000000
****
P     0
S    6   1.00
  19413.3000000              0.0018516
   2909.4200000              0.0142062
    661.3640000              0.0699995
    185.7590000              0.2400790
     59.1943000              0.4847620
     20.0310000              0.3352000
SP   6   1.00
    339.4780000             -0.00278217             0.00456462
     81.0101000             -0.0360499              0.03369360
     25.8780000             -0.1166310              0.13975500
      9.4522100              0.0968328              0.33936200
      3.6656600              0.6144180              0.45092100
      1.4674600              0.4037980              0.23858600
SP   3   1.00
      2.1562300             -0.2529230             -0.01776530
      0.7489970              0.0328517              0.27405800
      0.2831450              1.0812500              0.78542100
SP   1   1.00
      0.0998317              1.0000000              1.00000000
D    1   1.00
      1.1000000              1.0000000
D    1   1.00
      0.2750000              1.0000000
F    1   1.00
      0.4500000              1.0000000
****
S     0
S    6   1.00
  21917.1000000              0.0018690
   3301.4900000              0.0142300
    754.1460000              0.0696960
    212.7110000              0.2384870
     67.9896000              0.4833070
     23.0515000              0.3380740
SP   6   1.00
    423.7350000             -0.0023767              0.0040610
    100.7100000             -0.0316930              0.0306810
     32.1599000             -0.1133170              0.1304520
     11.8079000              0.0560900              0.3272050
      4.6311000              0.5922550              0.4528510
      1.8702500              0.4550060              0.2560420
SP   3   1.00
      2.6158400             -0.2503740             -0.0145110
      0.9221670              0.0669570              0.3102630
      0.3412870              1.0545100              0.7544830
SP   1   1.00
      0.1171670              1.0000000              1.0000000
D    1   1.00
      1.3000000              1.0000000
D    1   1.00
      0.3250000              1.0000000
F    1   1.00
      0.5500000              1.0000000
****
Cl     0
S    6   1.00
  25180.1000000              0.0018330
   3780.3500000              0.0140340
    860.4740000              0.0690970
    242.1450000              0.2374520
     77.3349000              0.4830340
     26.2470000              0.3398560
SP   6   1.00
    491.7650000             -0.0022974              0.0039894
    116.9840000             -0.0307140              0.0303180
     37.4153000             -0.1125280              0.1298800
     13.7834000              0.0450160              0.3279510
      5.4521500              0.5893530              0.4535270
      2.2258800              0.4652060              0.2521540
SP   3   1.00
      3.1864900             -0.2518300             -0.0142990
      1.1442700              0.0615890              0.3235720
      0.4203770              1.0601800              0.7435070
SP   1   1.00
      0.1426570              1.0000000              1.0000000
D    1   1.00
      1.5000000              1.0000000
D    1   1.00
      0.3750000              1.0000000
F    1   1.00
      0.7000000              1.0000000
****
}

set {
reference uhf
freeze_core true
e_convergence 10
d_convergence 10
dft_spherical_points 1202
dft_radial_points 99
}

e = energy('b3lyp')

print_out('Grab this energy {0}'.format(e))
--------------------------------------------------------------------------

    Molecular point group: c1

    Geometry (in Bohr), charge = 0, multiplicity = 2:

       Center              X                  Y                   Z               Mass
    ------------   -----------------  -----------------  -----------------  -----------------
         C           -0.323340694219     0.001959633880     0.000697481158    12.000000000000
         C            0.061683061481    -1.401912493820    -2.428572510642    12.000000000000
         C            0.060224441381     2.800039576080     0.000954512158    12.000000000000
         C            0.061392614281    -1.399526544420     2.426357587558    12.000000000000
         H            2.088286681081    -1.646497289320    -2.844694528242     1.007825032230
         H           -0.761002943219    -0.387824232020    -4.029400845242     1.007825032230
         H           -0.768771531019    -3.289113772020    -2.348570753842     1.007825032230
         H            2.084227587081     3.288455015380     0.000287163758     1.007825032230
         H           -0.767123071319     3.676917266980     1.677119359758     1.007825032230
         H           -0.767000012519     3.676892671780    -1.676361821142     1.007825032230
         H            2.088146548381    -1.647250383220     2.846574204358     1.007825032230
         H           -0.768486854619    -3.289530732720     2.350583648558     1.007825032230
         H           -0.760837244119    -0.388718413520     4.031166280358     1.007825032230

  Charge       = 0
  Multiplicity = 2
  Basis Set: ANONYMOUSB00C1E44
    Blend: 6-31G_2DFP_
  Basis Set: (ANONYMOUSB00C1E44 AUX)
    Blend: DEF2-UNIVERSAL-JKFIT

    Orbital Energies [Eh]
    ---------------------

    Alpha Occupied:

       1A    -10.180341     2A    -10.167163     3A    -10.167084
       4A    -10.166797     5A     -0.797767     6A     -0.686331
       7A     -0.686042     8A     -0.530776     9A     -0.441125
      10A     -0.434781    11A     -0.434562    12A     -0.382700
      13A     -0.382498    14A     -0.363612    15A     -0.338253
      16A     -0.337743    17A     -0.168960

    Alpha Virtual:

      18A      0.076073    19A      0.134090    20A      0.134220
      21A      0.142563    22A      0.142693    23A      0.154879
      24A      0.178694    25A      0.178860    26A      0.203545
      27A      0.214802    28A      0.275582    29A      0.276390
      30A      0.399207    31A      0.399237    32A      0.403358
      33A      0.424043    34A      0.424154    35A      0.456594
      36A      0.495334    37A      0.495444    38A      0.512160
      39A      0.513980    40A      0.578622    41A      0.579001
      42A      0.591402    43A      0.591872    44A      0.602576
      45A      0.624762    46A      0.631767    47A      0.636068
      48A      0.636438    49A      0.663199    50A      0.663625
      51A      0.683822    52A      0.683883    53A      0.734995
      54A      0.825344    55A      0.825471    56A      0.853916
      57A      0.914892    58A      0.915162    59A      0.944123
      60A      0.944613    61A      0.961236    62A      0.961351
      63A      1.003453    64A      1.128013    65A      1.128177
      66A      1.142216    67A      1.162978    68A      1.163590
      69A      1.223326    70A      1.274113    71A      1.274851
      72A      1.279377    73A      1.324220    74A      1.324494
      75A      1.355995    76A      1.365714    77A      1.366391
      78A      1.392439    79A      1.403680    80A      1.404416
      81A      1.416811    82A      1.417409    83A      1.427931
      84A      1.491490    85A      1.499083    86A      1.542675
      87A      1.542982    88A      1.574150    89A      1.574738
      90A      1.669827    91A      1.739129    92A      1.739714
      93A      1.768313    94A      1.830743    95A      1.832049
      96A      1.971730    97A      2.018028    98A      2.018759
      99A      2.019588   100A      2.051476   101A      2.053831
     102A      2.738351   103A      2.738614   104A      2.790928
     105A      2.811421   106A      2.889525   107A      2.890317
     108A      2.895009   109A      2.929315   110A      2.929681
     111A      2.958992   112A      2.964095   113A      2.964658
     114A      3.034008   115A      3.070956   116A      3.071612
     117A      3.084349   118A      3.168542   119A      3.168977
     120A      3.180633   121A      3.285268   122A      3.285361
     123A      3.326683   124A      3.327633   125A      3.375615
     126A      3.489742   127A      3.490567   128A      3.514003
     129A      3.525316   130A      3.567552   131A      3.569247
     132A      3.575145   133A      3.665602   134A      3.667108
     135A      3.679688   136A      3.693764   137A      3.694492
     138A      3.775406   139A      3.778157   140A      3.789168
     141A      3.911335   142A      3.913126   143A      4.034449
     144A      4.110335   145A      4.112402   146A      4.147490
     147A      4.148750   148A      4.173249   149A      4.202026
     150A      4.203042   151A      4.203723   152A      4.210887
     153A      4.315062   154A      4.316837   155A      4.358982
     156A      4.423306   157A      4.425515   158A      4.443531
     159A      4.515836   160A      4.517838   161A      4.577600
     162A      4.578914   163A      4.617535   164A      4.709450
     165A      4.773911   166A      4.775285   167A      4.836932
     168A      4.962814   169A      5.002050   170A      5.003910
     171A      5.228027   172A      5.246582   173A      5.247046
     174A      5.354553   175A      5.356465   176A      5.479349

    Beta Occupied:

       1A    -10.167921     2A    -10.167841     3A    -10.167561
       4A    -10.166518     5A     -0.781092     6A     -0.684124
       7A     -0.683855     8A     -0.511747     9A     -0.431157
      10A     -0.430927    11A     -0.421822    12A     -0.376800
      13A     -0.376569    14A     -0.362595    15A     -0.333377
      16A     -0.332864

    Beta Virtual:

      17A     -0.025742    18A      0.077082    19A      0.134979
      20A      0.135112    21A      0.144446    22A      0.144551
      23A      0.163338    24A      0.182378    25A      0.182520
      26A      0.215031    27A      0.218927    28A      0.281943
      29A      0.282724    30A      0.400388    31A      0.400404
      32A      0.419793    33A      0.426844    34A      0.426975
      35A      0.468503    36A      0.497598    37A      0.497702
      38A      0.513895    39A      0.556323    40A      0.584160
      41A      0.584566    42A      0.597601    43A      0.598031
      44A      0.609999    45A      0.628137    46A      0.631927
      47A      0.639344    48A      0.639732    49A      0.666772
      50A      0.667180    51A      0.686475    52A      0.686501
      53A      0.757517    54A      0.830516    55A      0.830636
      56A      0.855269    57A      0.922859    58A      0.923137
      59A      0.945959    60A      0.953541    61A      0.966517
      62A      0.966683    63A      1.008693    64A      1.132005
      65A      1.132250    66A      1.155581    67A      1.168059
      68A      1.168659    69A      1.232299    70A      1.279701
      71A      1.280454    72A      1.285134    73A      1.329228
      74A      1.329466    75A      1.365411    76A      1.371003
      77A      1.371587    78A      1.393498    79A      1.407142
      80A      1.407883    81A      1.421875    82A      1.422437
      83A      1.428209    84A      1.492538    85A      1.509526
      86A      1.547105    87A      1.547367    88A      1.582050
      89A      1.582583    90A      1.674674    91A      1.744876
      92A      1.745489    93A      1.779094    94A      1.834602
      95A      1.835901    96A      1.972590    97A      2.024885
      98A      2.025996    99A      2.039661   100A      2.058229
     101A      2.060521   102A      2.746691   103A      2.746946
     104A      2.811834   105A      2.816062   106A      2.902282
     107A      2.902993   108A      2.924634   109A      2.931825
     110A      2.932157   111A      2.960055   112A      2.968651
     113A      2.969192   114A      3.041943   115A      3.080907
     116A      3.081477   117A      3.086170   118A      3.184161
     119A      3.184761   120A      3.188412   121A      3.290062
     122A      3.290165   123A      3.330496   124A      3.331428
     125A      3.383435   126A      3.492442   127A      3.493327
     128A      3.512373   129A      3.528364   130A      3.574984
     131A      3.580929   132A      3.582561   133A      3.670371
     134A      3.671861   135A      3.692964   136A      3.725529
     137A      3.725986   138A      3.779991   139A      3.782643
     140A      3.817692   141A      3.921219   142A      3.922877
     143A      4.045336   144A      4.117130   145A      4.119237
     146A      4.154803   147A      4.155857   148A      4.187306
     149A      4.208269   150A      4.209574   151A      4.210786
     152A      4.215368   153A      4.322460   154A      4.324318
     155A      4.362345   156A      4.431528   157A      4.433693
     158A      4.446447   159A      4.523637   160A      4.525615
     161A      4.588197   162A      4.589516   163A      4.624733
     164A      4.719795   165A      4.780909   166A      4.782194
     167A      4.839850   168A      4.967609   169A      5.006088
     170A      5.007951   171A      5.233742   172A      5.248366
     173A      5.248830   174A      5.361011   175A      5.362969
     176A      5.481670

    Final Occupation by Irrep:
              A
    DOCC [    16 ]
    SOCC [     1 ]

  @DF-UKS Final Energy:  -157.81306684080133

   => Energetics <=

    Nuclear Repulsion Energy =            125.3946293085045625
    One-Electron Energy =                -458.7489166755781298
    Two-Electron Energy =                 195.8483648625504543
    DFT Exchange-Correlation Energy =     -20.3071443362782524
    Empirical Dispersion Energy =           0.0000000000000000
    VV10 Nonlocal Energy =                  0.0000000000000000
    Total Energy =                       -157.8130668408013264

  UHF NO Occupations:
  HONO-2 :   15  A 1.9996009
  HONO-1 :   16  A 1.9989805
  HONO-0 :   17  A 1.0000000
  LUNO+0 :   18  A 0.0010195
  LUNO+1 :   19  A 0.0003991
  LUNO+2 :   20  A 0.0001982
  LUNO+3 :   21  A 0.0001969

Computation Completed

Properties will be evaluated at   0.000000,   0.000000,   0.000000 [a0]

Properties computed using the SCF density matrix

  Nuclear Dipole Moment: [e a0]
     X:     0.8272      Y:    -0.0033      Z:     0.0033

  Electronic Dipole Moment: [e a0]
     X:    -0.7493      Y:     0.0033      Z:    -0.0034

  Dipole Moment: [e a0]
     X:     0.0779      Y:    -0.0000      Z:    -0.0001     Total:     0.0779

  Dipole Moment: [D]
     X:     0.1980      Y:    -0.0001      Z:    -0.0002     Total:     0.1980

*** tstop() called on n089 at Fri Nov  5 13:16:11 2021
Module time:
	user time   =     508.25 seconds =       8.47 minutes
	system time =       4.67 seconds =       0.08 minutes
	total time  =        129 seconds =       2.15 minutes
Total time:
	user time   =     508.25 seconds =       8.47 minutes
	system time =       4.67 seconds =       0.08 minutes
	total time  =        129 seconds =       2.15 minutes
Grab this energy -157.81306684080133
    Psi4 stopped on: Friday, 05 November 2021 01:16PM
    Psi4 wall time for execution: 0:02:08.95

*** Psi4 exiting successfully. Buy a developer a beer!
