                               Psi4 1.4a2.dev629

  ==> Input File <==

--------------------------------------------------------------------------
import os
memory 14 GB

molecule {
 C   -0.3233311418    0.0049904257    0.0010200657
 C    0.0607966824   -1.4029627095   -2.4209936893
 C    0.0604187814    2.8096662137   -0.0018006883
 C    0.0620875792   -1.4041729293    2.4194939162
 H    2.0873956453   -1.6504138740   -2.8383877725
 H   -0.7623852088   -0.3967461508   -4.0235298980
 H   -0.7671642907   -3.2938511606   -2.3355987114
 H    2.0860202590    3.2972564304    0.0006977274
 H   -0.7665516759    3.6880755772    1.6769837467
 H   -0.7668527755    3.6882608721   -1.6764108567
 H    2.0872520593   -1.6498955254    2.8388790752
 H   -0.7676906096   -3.2935715283    2.3360177342
 H   -0.7626031811   -0.3966599550    4.0236293507
units bohr
0 2
}

basis {

assign 6-31g_2dfp_

[ 6-31g_2dfp_ ]

spherical

!----------------------------------------------------------------------
! Basis Set Exchange
! Version v0.8.13
! https://www.basissetexchange.org
!----------------------------------------------------------------------
!   Basis set: 6-31G(2df,p)
! Description: 6-31G(2df,p)
!        Role: orbital
!     Version: 0  (Data from the original Basis Set Exchange)
!----------------------------------------------------------------------

****
H     0
S    3   1.00
     18.7311370              0.03349460
      2.8253937              0.23472695
      0.6401217              0.81375733
S    1   1.00
      0.1612778              1.00000000
P    1   1.00
      1.5000000              1.0000000
P    1   1.00
      0.3750000              1.0000000
****
B     0
S    6   1.00
   2068.8823000              0.0018663
    310.6495700              0.0142515
     70.6830330              0.0695516
     19.8610800              0.2325729
      6.2993048              0.4670787
      2.1270270              0.3634314
SP   3   1.00
      4.7279710             -0.1303938              0.0745976
      1.1903377             -0.1307889              0.3078467
      0.3594117              1.1309444              0.7434568
SP   1   1.00
      0.1267512              1.0000000              1.0000000
D    1   1.00
      0.8020000              1.0000000
D    1   1.00
      0.2005000              1.0000000
F    1   1.00
      0.5000000              1.0000000
****
C     0
S    6   1.00
   3047.5249000              0.0018347
    457.3695100              0.0140373
    103.9486900              0.0688426
     29.2101550              0.2321844
      9.2866630              0.4679413
      3.1639270              0.3623120
SP   3   1.00
      7.8682724             -0.1193324              0.0689991
      1.8812885             -0.1608542              0.3164240
      0.5442493              1.1434564              0.7443083
SP   1   1.00
      0.1687144              1.0000000              1.0000000
D    1   1.00
      1.2520000              1.0000000
D    1   1.00
      0.3130000              1.0000000
F    1   1.00
      0.8000000              1.0000000
****
N     0
S    6   1.00
   4173.5110000              0.0018348
    627.4579000              0.0139950
    142.9021000              0.0685870
     40.2343300              0.2322410
     12.8202100              0.4690700
      4.3904370              0.3604550
SP   3   1.00
     11.6263580             -0.1149610              0.0675800
      2.7162800             -0.1691180              0.3239070
      0.7722180              1.1458520              0.7408950
SP   1   1.00
      0.2120313              1.0000000              1.0000000
D    1   1.00
      1.8260000              1.0000000
D    1   1.00
      0.4565000              1.0000000
F    1   1.00
      1.0000000              1.0000000
****
O     0
S    6   1.00
   5484.6717000              0.0018311
    825.2349500              0.0139501
    188.0469600              0.0684451
     52.9645000              0.2327143
     16.8975700              0.4701930
      5.7996353              0.3585209
SP   3   1.00
     15.5396160             -0.1107775              0.0708743
      3.5999336             -0.1480263              0.3397528
      1.0137618              1.1307670              0.7271586
SP   1   1.00
      0.2700058              1.0000000              1.0000000
D    1   1.00
      2.5840000              1.0000000
D    1   1.00
      0.6460000              1.0000000
F    1   1.00
      1.4000000              1.0000000
****
F     0
S    6   1.00
   7001.7130900              0.0018196169
   1051.3660900              0.0139160796
    239.2856900              0.0684053245
     67.3974453              0.233185760
     21.5199573              0.471267439
      7.40310130             0.356618546
SP   3   1.00
     20.8479528             -0.108506975            0.0716287243
      4.80830834            -0.146451658            0.3459121030
      1.34406986             1.128688580            0.7224699570
SP   1   1.00
      0.358151393            1.0000000              1.0000000
D    1   1.00
      3.5000000              1.0000000
D    1   1.00
      0.8750000              1.0000000
F    1   1.00
      1.8500000              1.0000000
****
Al     0
S    6   1.00
  13983.1000000              0.00194267
   2098.7500000              0.0148599
    477.7050000              0.0728494
    134.3600000              0.2468300
     42.8709000              0.4872580
     14.5189000              0.3234960
SP   6   1.00
    239.6680000             -0.00292619             0.00460285
     57.4419000             -0.0374080              0.0331990
     18.2859000             -0.1144870              0.1362820
      6.5991400              0.1156350              0.3304760
      2.4904900              0.6125950              0.4491460
      0.9445400              0.3937990              0.2657040
SP   3   1.00
      1.2779000             -0.2276060             -0.0175130
      0.3975900              0.00144583             0.2445330
      0.1600950              1.0927900              0.8049340
SP   1   1.00
      0.0556577              1.0000000              1.0000000
D    1   1.00
      0.6500000              1.0000000
D    1   1.00
      0.1625000              1.0000000
F    1   1.00
      0.2500000              1.0000000
****
Si     0
S    6   1.00
  16115.9000000              0.00195948
   2425.5800000              0.01492880
    553.8670000              0.07284780
    156.3400000              0.24613000
     50.0683000              0.48591400
     17.0178000              0.32500200
SP   6   1.00
    292.7180000             -0.00278094             0.00443826
     69.8731000             -0.03571460             0.03266790
     22.3363000             -0.11498500             0.13472100
      8.1503900              0.09356340             0.32867800
      3.1345800              0.60301700             0.44964000
      1.2254300              0.41895900             0.26137200
SP   3   1.00
      1.7273800             -0.24463000            -0.01779510
      0.5729220              0.00431572             0.25353900
      0.2221920              1.09818000             0.80066900
SP   1   1.00
      0.0778369              1.00000000             1.00000000
D    1   1.00
      0.9000000              1.0000000
D    1   1.00
      0.2250000              1.0000000
F    1   1.00
      0.3200000              1.0000000
****
P     0
S    6   1.00
  19413.3000000              0.0018516
   2909.4200000              0.0142062
    661.3640000              0.0699995
    185.7590000              0.2400790
     59.1943000              0.4847620
     20.0310000              0.3352000
SP   6   1.00
    339.4780000             -0.00278217             0.00456462
     81.0101000             -0.0360499              0.03369360
     25.8780000             -0.1166310              0.13975500
      9.4522100              0.0968328              0.33936200
      3.6656600              0.6144180              0.45092100
      1.4674600              0.4037980              0.23858600
SP   3   1.00
      2.1562300             -0.2529230             -0.01776530
      0.7489970              0.0328517              0.27405800
      0.2831450              1.0812500              0.78542100
SP   1   1.00
      0.0998317              1.0000000              1.00000000
D    1   1.00
      1.1000000              1.0000000
D    1   1.00
      0.2750000              1.0000000
F    1   1.00
      0.4500000              1.0000000
****
S     0
S    6   1.00
  21917.1000000              0.0018690
   3301.4900000              0.0142300
    754.1460000              0.0696960
    212.7110000              0.2384870
     67.9896000              0.4833070
     23.0515000              0.3380740
SP   6   1.00
    423.7350000             -0.0023767              0.0040610
    100.7100000             -0.0316930              0.0306810
     32.1599000             -0.1133170              0.1304520
     11.8079000              0.0560900              0.3272050
      4.6311000              0.5922550              0.4528510
      1.8702500              0.4550060              0.2560420
SP   3   1.00
      2.6158400             -0.2503740             -0.0145110
      0.9221670              0.0669570              0.3102630
      0.3412870              1.0545100              0.7544830
SP   1   1.00
      0.1171670              1.0000000              1.0000000
D    1   1.00
      1.3000000              1.0000000
D    1   1.00
      0.3250000              1.0000000
F    1   1.00
      0.5500000              1.0000000
****
Cl     0
S    6   1.00
  25180.1000000              0.0018330
   3780.3500000              0.0140340
    860.4740000              0.0690970
    242.1450000              0.2374520
     77.3349000              0.4830340
     26.2470000              0.3398560
SP   6   1.00
    491.7650000             -0.0022974              0.0039894
    116.9840000             -0.0307140              0.0303180
     37.4153000             -0.1125280              0.1298800
     13.7834000              0.0450160              0.3279510
      5.4521500              0.5893530              0.4535270
      2.2258800              0.4652060              0.2521540
SP   3   1.00
      3.1864900             -0.2518300             -0.0142990
      1.1442700              0.0615890              0.3235720
      0.4203770              1.0601800              0.7435070
SP   1   1.00
      0.1426570              1.0000000              1.0000000
D    1   1.00
      1.5000000              1.0000000
D    1   1.00
      0.3750000              1.0000000
F    1   1.00
      0.7000000              1.0000000
****
}

set {
reference uhf
freeze_core true
e_convergence 10
d_convergence 10
dft_spherical_points 1202
dft_radial_points 99
}

e = energy('b3lyp')

print_out('Grab this energy {0}'.format(e))
--------------------------------------------------------------------------

    Molecular point group: c1

    Geometry (in Bohr), charge = 0, multiplicity = 2:

       Center              X                  Y                   Z               Mass
    ------------   -----------------  -----------------  -----------------  -----------------
         C           -0.323333431136     0.003542256179     0.001459286338    12.000000000000
         C            0.060794393064    -1.404410879021    -2.420554468662    12.000000000000
         C            0.060416492064     2.808218044179    -0.001361467662    12.000000000000
         C            0.062085289864    -1.405621098821     2.419933136838    12.000000000000
         H            2.087393355964    -1.651862043521    -2.837948551862     1.007825032230
         H           -0.762387498136    -0.398194320321    -4.023090677362     1.007825032230
         H           -0.767166580036    -3.295299330121    -2.335159490762     1.007825032230
         H            2.086017969664     3.295808260879     0.001136948038     1.007825032230
         H           -0.766553965236     3.686627407679     1.677422967338     1.007825032230
         H           -0.766855064836     3.686812702579    -1.675971636062     1.007825032230
         H            2.087249769964    -1.651343694921     2.839318295838     1.007825032230
         H           -0.767692898936    -3.295019697821     2.336456954838     1.007825032230
         H           -0.762605470436    -0.398108124521     4.024068571338     1.007825032230

  Charge       = 0
  Multiplicity = 2
  Basis Set: ANONYMOUS864CAC6F
    Blend: 6-31G_2DFP_
  Basis Set: (ANONYMOUS864CAC6F AUX)
    Blend: DEF2-UNIVERSAL-JKFIT

    Orbital Energies [Eh]
    ---------------------

    Alpha Occupied:

       1A    -10.180341     2A    -10.167329     3A    -10.166889
       4A    -10.166827     5A     -0.797769     6A     -0.686421
       7A     -0.685950     8A     -0.530777     9A     -0.441128
      10A     -0.434936    11A     -0.434405    12A     -0.382751
      13A     -0.382447    14A     -0.363609    15A     -0.338400
      16A     -0.337595    17A     -0.168961

    Alpha Virtual:

      18A      0.076072    19A      0.133912    20A      0.134399
      21A      0.142475    22A      0.142781    23A      0.154880
      24A      0.178548    25A      0.179009    26A      0.203544
      27A      0.214807    28A      0.275775    29A      0.276197
      30A      0.398993    31A      0.399401    32A      0.403410
      33A      0.423967    34A      0.424238    35A      0.456595
      36A      0.494982    37A      0.495788    38A      0.512172
      39A      0.513987    40A      0.578542    41A      0.579067
      42A      0.591607    43A      0.591667    44A      0.602574
      45A      0.624766    46A      0.631762    47A      0.636031
      48A      0.636477    49A      0.663177    50A      0.663649
      51A      0.683609    52A      0.684102    53A      0.734993
      54A      0.824580    55A      0.826221    56A      0.853914
      57A      0.914758    58A      0.915297    59A      0.944049
      60A      0.944518    61A      0.961123    62A      0.961670
      63A      1.003470    64A      1.126943    65A      1.129298
      66A      1.142204    67A      1.162771    68A      1.163767
      69A      1.223332    70A      1.273949    71A      1.275042
      72A      1.279354    73A      1.324249    74A      1.324461
      75A      1.355992    76A      1.365299    77A      1.366751
      78A      1.392419    79A      1.403247    80A      1.404938
      81A      1.416573    82A      1.417670    83A      1.427935
      84A      1.491436    85A      1.499065    86A      1.542422
      87A      1.543245    88A      1.572572    89A      1.576436
      90A      1.669811    91A      1.738319    92A      1.740472
      93A      1.768365    94A      1.830887    95A      1.831922
      96A      1.971720    97A      2.017540    98A      2.018226
      99A      2.020595   100A      2.050060   101A      2.055319
     102A      2.738215   103A      2.738756   104A      2.790921
     105A      2.811440   106A      2.889272   107A      2.890624
     108A      2.894943   109A      2.929249   110A      2.929739
     111A      2.958986   112A      2.963437   113A      2.965353
     114A      3.034012   115A      3.070290   116A      3.072250
     117A      3.084383   118A      3.167992   119A      3.169591
     120A      3.180582   121A      3.284566   122A      3.286047
     123A      3.326210   124A      3.328121   125A      3.375667
     126A      3.489662   127A      3.490581   128A      3.514037
     129A      3.525300   130A      3.567303   131A      3.569310
     132A      3.575400   133A      3.666126   134A      3.666625
     135A      3.679688   136A      3.693665   137A      3.694548
     138A      3.776015   139A      3.777497   140A      3.789296
     141A      3.910760   142A      3.913692   143A      4.034479
     144A      4.109998   145A      4.112770   146A      4.146438
     147A      4.149770   148A      4.173236   149A      4.201388
     150A      4.202684   151A      4.204654   152A      4.210984
     153A      4.315155   154A      4.316739   155A      4.358994
     156A      4.423750   157A      4.425005   158A      4.443569
     159A      4.515964   160A      4.517744   161A      4.577162
     162A      4.579376   163A      4.617532   164A      4.709446
     165A      4.773311   166A      4.775890   167A      4.836951
     168A      4.962859   169A      5.001943   170A      5.003972
     171A      5.228017   172A      5.246552   173A      5.247108
     174A      5.354798   175A      5.356205   176A      5.479333

    Beta Occupied:

       1A    -10.168085     2A    -10.167648     3A    -10.167592
       4A    -10.166518     5A     -0.781095     6A     -0.684226
       7A     -0.683750     8A     -0.511748     9A     -0.431317
      10A     -0.430769    11A     -0.421822    12A     -0.376848
      13A     -0.376520    14A     -0.362592    15A     -0.333525
      16A     -0.332716

    Beta Virtual:

      17A     -0.025743    18A      0.077081    19A      0.134789
      20A      0.135301    21A      0.144358    22A      0.144639
      23A      0.163339    24A      0.182212    25A      0.182688
      26A      0.215037    27A      0.218926    28A      0.282121
      29A      0.282547    30A      0.400230    31A      0.400558
      32A      0.419796    33A      0.426764    34A      0.427066
      35A      0.468506    36A      0.497243    37A      0.498051
      38A      0.513908    39A      0.556328    40A      0.584122
      41A      0.584589    42A      0.597769    43A      0.597862
      44A      0.609993    45A      0.628148    46A      0.631923
      47A      0.639298    48A      0.639777    49A      0.666714
      50A      0.667238    51A      0.686193    52A      0.686790
      53A      0.757516    54A      0.829739    55A      0.831398
      56A      0.855268    57A      0.922715    58A      0.923281
      59A      0.945908    60A      0.953433    61A      0.966358
      62A      0.967042    63A      1.008708    64A      1.130982
      65A      1.133319    66A      1.155568    67A      1.167816
      68A      1.168881    69A      1.232302    70A      1.279536
      71A      1.280648    72A      1.285110    73A      1.329220
      74A      1.329470    75A      1.365408    76A      1.370436
      77A      1.372092    78A      1.393483    79A      1.406740
      80A      1.408381    81A      1.421628    82A      1.422703
      83A      1.428211    84A      1.492488    85A      1.509508
      86A      1.546724    87A      1.547755    88A      1.580597
      89A      1.584156    90A      1.674658    91A      1.744087
      92A      1.746231    93A      1.779141    94A      1.834725
      95A      1.835795    96A      1.972583    97A      2.023891
      98A      2.026993    99A      2.039642   100A      2.056869
     101A      2.061949   102A      2.746507   103A      2.747135
     104A      2.811852   105A      2.816056   106A      2.901977
     107A      2.903295   108A      2.924644   109A      2.931764
     110A      2.932195   111A      2.960055   112A      2.968011
     113A      2.969859   114A      3.041947   115A      3.080091
     116A      3.082109   117A      3.086370   118A      3.183842
     119A      3.185185   120A      3.188306   121A      3.289437
     122A      3.290777   123A      3.330007   124A      3.331935
     125A      3.383483   126A      3.492399   127A      3.493296
     128A      3.512413   129A      3.528355   130A      3.574796
     131A      3.580659   132A      3.583092   133A      3.670781
     134A      3.671474   135A      3.692977   136A      3.725304
     137A      3.726161   138A      3.780519   139A      3.782131
     140A      3.817757   141A      3.920571   142A      3.923515
     143A      4.045366   144A      4.116819   145A      4.119577
     146A      4.153707   147A      4.156922   148A      4.187297
     149A      4.207321   150A      4.210423   151A      4.210784
     152A      4.215499   153A      4.322562   154A      4.324214
     155A      4.362356   156A      4.431924   157A      4.433208
     158A      4.446510   159A      4.523852   160A      4.525429
     161A      4.587692   162A      4.590050   163A      4.624725
     164A      4.719791   165A      4.780231   166A      4.782875
     167A      4.839870   168A      4.967652   169A      5.005984
     170A      5.008010   171A      5.233729   172A      5.248344
     173A      5.248889   174A      5.361260   175A      5.362705
     176A      5.481654

    Final Occupation by Irrep:
              A
    DOCC [    16 ]
    SOCC [     1 ]

  @DF-UKS Final Energy:  -157.81306253192744

   => Energetics <=

    Nuclear Repulsion Energy =            125.3948604336306261
    One-Electron Energy =                -458.7493686432003415
    Two-Electron Energy =                 195.8485913819574762
    DFT Exchange-Correlation Energy =     -20.3071457043152179
    Empirical Dispersion Energy =           0.0000000000000000
    VV10 Nonlocal Energy =                  0.0000000000000000
    Total Energy =                       -157.8130625319274429

  UHF NO Occupations:
  HONO-2 :   15  A 1.9996009
  HONO-1 :   16  A 1.9989804
  HONO-0 :   17  A 1.0000000
  LUNO+0 :   18  A 0.0010196
  LUNO+1 :   19  A 0.0003991
  LUNO+2 :   20  A 0.0001981
  LUNO+3 :   21  A 0.0001970

Computation Completed

Properties will be evaluated at   0.000000,   0.000000,   0.000000 [a0]

Properties computed using the SCF density matrix

  Nuclear Dipole Moment: [e a0]
     X:     0.8272      Y:    -0.0102      Z:     0.0031

  Electronic Dipole Moment: [e a0]
     X:    -0.7493      Y:     0.0110      Z:    -0.0030

  Dipole Moment: [e a0]
     X:     0.0779      Y:     0.0008      Z:     0.0000     Total:     0.0779

  Dipole Moment: [D]
     X:     0.1980      Y:     0.0019      Z:     0.0001     Total:     0.1981

*** tstop() called on n089 at Fri Nov  5 12:12:55 2021
Module time:
	user time   =     504.09 seconds =       8.40 minutes
	system time =       4.52 seconds =       0.08 minutes
	total time  =        128 seconds =       2.13 minutes
Total time:
	user time   =     504.09 seconds =       8.40 minutes
	system time =       4.52 seconds =       0.08 minutes
	total time  =        128 seconds =       2.13 minutes
Grab this energy -157.81306253192744
    Psi4 stopped on: Friday, 05 November 2021 12:12PM
    Psi4 wall time for execution: 0:02:07.87

*** Psi4 exiting successfully. Buy a developer a beer!
