                               Psi4 1.4a2.dev629

  ==> Input File <==

--------------------------------------------------------------------------
import os
memory 14 GB

molecule {
 C   -0.3233391630   -0.0009321612   -0.0000000000
 C    0.0606085408   -1.4022044518   -2.4256091506
 C    0.0620869850    2.8017691761   -0.0000000000
 C    0.0606085408   -1.4022044518    2.4256091506
 H    2.0885447052   -1.6467357455   -2.8456397897
 H   -0.7700027835   -0.3877280079   -4.0270762953
 H   -0.7625354539   -3.2884039532   -2.3496329203
 H    2.0835865570    3.2885804051    0.0000000000
 H   -0.7640861364    3.6803512916    1.6787114373
 H   -0.7640861364    3.6803512916   -1.6787114373
 H    2.0885447052   -1.6467357455    2.8456397897
 H   -0.7625354539   -3.2884039532    2.3496329203
 H   -0.7700027835   -0.3877280079    4.0270762953
units bohr
0 2
}

basis {

assign 6-31g_2dfp_

[ 6-31g_2dfp_ ]

spherical

!----------------------------------------------------------------------
! Basis Set Exchange
! Version v0.8.13
! https://www.basissetexchange.org
!----------------------------------------------------------------------
!   Basis set: 6-31G(2df,p)
! Description: 6-31G(2df,p)
!        Role: orbital
!     Version: 0  (Data from the original Basis Set Exchange)
!----------------------------------------------------------------------

****
H     0
S    3   1.00
     18.7311370              0.03349460
      2.8253937              0.23472695
      0.6401217              0.81375733
S    1   1.00
      0.1612778              1.00000000
P    1   1.00
      1.5000000              1.0000000
P    1   1.00
      0.3750000              1.0000000
****
B     0
S    6   1.00
   2068.8823000              0.0018663
    310.6495700              0.0142515
     70.6830330              0.0695516
     19.8610800              0.2325729
      6.2993048              0.4670787
      2.1270270              0.3634314
SP   3   1.00
      4.7279710             -0.1303938              0.0745976
      1.1903377             -0.1307889              0.3078467
      0.3594117              1.1309444              0.7434568
SP   1   1.00
      0.1267512              1.0000000              1.0000000
D    1   1.00
      0.8020000              1.0000000
D    1   1.00
      0.2005000              1.0000000
F    1   1.00
      0.5000000              1.0000000
****
C     0
S    6   1.00
   3047.5249000              0.0018347
    457.3695100              0.0140373
    103.9486900              0.0688426
     29.2101550              0.2321844
      9.2866630              0.4679413
      3.1639270              0.3623120
SP   3   1.00
      7.8682724             -0.1193324              0.0689991
      1.8812885             -0.1608542              0.3164240
      0.5442493              1.1434564              0.7443083
SP   1   1.00
      0.1687144              1.0000000              1.0000000
D    1   1.00
      1.2520000              1.0000000
D    1   1.00
      0.3130000              1.0000000
F    1   1.00
      0.8000000              1.0000000
****
N     0
S    6   1.00
   4173.5110000              0.0018348
    627.4579000              0.0139950
    142.9021000              0.0685870
     40.2343300              0.2322410
     12.8202100              0.4690700
      4.3904370              0.3604550
SP   3   1.00
     11.6263580             -0.1149610              0.0675800
      2.7162800             -0.1691180              0.3239070
      0.7722180              1.1458520              0.7408950
SP   1   1.00
      0.2120313              1.0000000              1.0000000
D    1   1.00
      1.8260000              1.0000000
D    1   1.00
      0.4565000              1.0000000
F    1   1.00
      1.0000000              1.0000000
****
O     0
S    6   1.00
   5484.6717000              0.0018311
    825.2349500              0.0139501
    188.0469600              0.0684451
     52.9645000              0.2327143
     16.8975700              0.4701930
      5.7996353              0.3585209
SP   3   1.00
     15.5396160             -0.1107775              0.0708743
      3.5999336             -0.1480263              0.3397528
      1.0137618              1.1307670              0.7271586
SP   1   1.00
      0.2700058              1.0000000              1.0000000
D    1   1.00
      2.5840000              1.0000000
D    1   1.00
      0.6460000              1.0000000
F    1   1.00
      1.4000000              1.0000000
****
F     0
S    6   1.00
   7001.7130900              0.0018196169
   1051.3660900              0.0139160796
    239.2856900              0.0684053245
     67.3974453              0.233185760
     21.5199573              0.471267439
      7.40310130             0.356618546
SP   3   1.00
     20.8479528             -0.108506975            0.0716287243
      4.80830834            -0.146451658            0.3459121030
      1.34406986             1.128688580            0.7224699570
SP   1   1.00
      0.358151393            1.0000000              1.0000000
D    1   1.00
      3.5000000              1.0000000
D    1   1.00
      0.8750000              1.0000000
F    1   1.00
      1.8500000              1.0000000
****
Al     0
S    6   1.00
  13983.1000000              0.00194267
   2098.7500000              0.0148599
    477.7050000              0.0728494
    134.3600000              0.2468300
     42.8709000              0.4872580
     14.5189000              0.3234960
SP   6   1.00
    239.6680000             -0.00292619             0.00460285
     57.4419000             -0.0374080              0.0331990
     18.2859000             -0.1144870              0.1362820
      6.5991400              0.1156350              0.3304760
      2.4904900              0.6125950              0.4491460
      0.9445400              0.3937990              0.2657040
SP   3   1.00
      1.2779000             -0.2276060             -0.0175130
      0.3975900              0.00144583             0.2445330
      0.1600950              1.0927900              0.8049340
SP   1   1.00
      0.0556577              1.0000000              1.0000000
D    1   1.00
      0.6500000              1.0000000
D    1   1.00
      0.1625000              1.0000000
F    1   1.00
      0.2500000              1.0000000
****
Si     0
S    6   1.00
  16115.9000000              0.00195948
   2425.5800000              0.01492880
    553.8670000              0.07284780
    156.3400000              0.24613000
     50.0683000              0.48591400
     17.0178000              0.32500200
SP   6   1.00
    292.7180000             -0.00278094             0.00443826
     69.8731000             -0.03571460             0.03266790
     22.3363000             -0.11498500             0.13472100
      8.1503900              0.09356340             0.32867800
      3.1345800              0.60301700             0.44964000
      1.2254300              0.41895900             0.26137200
SP   3   1.00
      1.7273800             -0.24463000            -0.01779510
      0.5729220              0.00431572             0.25353900
      0.2221920              1.09818000             0.80066900
SP   1   1.00
      0.0778369              1.00000000             1.00000000
D    1   1.00
      0.9000000              1.0000000
D    1   1.00
      0.2250000              1.0000000
F    1   1.00
      0.3200000              1.0000000
****
P     0
S    6   1.00
  19413.3000000              0.0018516
   2909.4200000              0.0142062
    661.3640000              0.0699995
    185.7590000              0.2400790
     59.1943000              0.4847620
     20.0310000              0.3352000
SP   6   1.00
    339.4780000             -0.00278217             0.00456462
     81.0101000             -0.0360499              0.03369360
     25.8780000             -0.1166310              0.13975500
      9.4522100              0.0968328              0.33936200
      3.6656600              0.6144180              0.45092100
      1.4674600              0.4037980              0.23858600
SP   3   1.00
      2.1562300             -0.2529230             -0.01776530
      0.7489970              0.0328517              0.27405800
      0.2831450              1.0812500              0.78542100
SP   1   1.00
      0.0998317              1.0000000              1.00000000
D    1   1.00
      1.1000000              1.0000000
D    1   1.00
      0.2750000              1.0000000
F    1   1.00
      0.4500000              1.0000000
****
S     0
S    6   1.00
  21917.1000000              0.0018690
   3301.4900000              0.0142300
    754.1460000              0.0696960
    212.7110000              0.2384870
     67.9896000              0.4833070
     23.0515000              0.3380740
SP   6   1.00
    423.7350000             -0.0023767              0.0040610
    100.7100000             -0.0316930              0.0306810
     32.1599000             -0.1133170              0.1304520
     11.8079000              0.0560900              0.3272050
      4.6311000              0.5922550              0.4528510
      1.8702500              0.4550060              0.2560420
SP   3   1.00
      2.6158400             -0.2503740             -0.0145110
      0.9221670              0.0669570              0.3102630
      0.3412870              1.0545100              0.7544830
SP   1   1.00
      0.1171670              1.0000000              1.0000000
D    1   1.00
      1.3000000              1.0000000
D    1   1.00
      0.3250000              1.0000000
F    1   1.00
      0.5500000              1.0000000
****
Cl     0
S    6   1.00
  25180.1000000              0.0018330
   3780.3500000              0.0140340
    860.4740000              0.0690970
    242.1450000              0.2374520
     77.3349000              0.4830340
     26.2470000              0.3398560
SP   6   1.00
    491.7650000             -0.0022974              0.0039894
    116.9840000             -0.0307140              0.0303180
     37.4153000             -0.1125280              0.1298800
     13.7834000              0.0450160              0.3279510
      5.4521500              0.5893530              0.4535270
      2.2258800              0.4652060              0.2521540
SP   3   1.00
      3.1864900             -0.2518300             -0.0142990
      1.1442700              0.0615890              0.3235720
      0.4203770              1.0601800              0.7435070
SP   1   1.00
      0.1426570              1.0000000              1.0000000
D    1   1.00
      1.5000000              1.0000000
D    1   1.00
      0.3750000              1.0000000
F    1   1.00
      0.7000000              1.0000000
****
}

set {
reference uhf
freeze_core true
e_convergence 10
d_convergence 10
dft_spherical_points 1202
dft_radial_points 99
}

e = energy('b3lyp')

print_out('Grab this energy {0}'.format(e))
--------------------------------------------------------------------------

    Molecular point group: cs

    Geometry (in Bohr), charge = 0, multiplicity = 2:

       Center              X                  Y                   Z               Mass
    ------------   -----------------  -----------------  -----------------  -----------------
         C           -0.323340104551    -0.000243760348     0.000000000000    12.000000000000
         C            0.060607599249    -1.401516050948    -2.425609150600    12.000000000000
         C            0.062086043449     2.802457576952     0.000000000000    12.000000000000
         C            0.060607599249    -1.401516050948     2.425609150600    12.000000000000
         H            2.088543763649    -1.646047344648    -2.845639789700     1.007825032230
         H           -0.770003725051    -0.387039607048    -4.027076295300     1.007825032230
         H           -0.762536395451    -3.287715552348    -2.349632920300     1.007825032230
         H            2.083585615449     3.289268805952     0.000000000000     1.007825032230
         H           -0.764087077951     3.681039692452     1.678711437300     1.007825032230
         H           -0.764087077951     3.681039692452    -1.678711437300     1.007825032230
         H            2.088543763649    -1.646047344648     2.845639789700     1.007825032230
         H           -0.762536395451    -3.287715552348     2.349632920300     1.007825032230
         H           -0.770003725051    -0.387039607048     4.027076295300     1.007825032230

  Charge       = 0
  Multiplicity = 2
  Basis Set: ANONYMOUS6326C9B9
    Blend: 6-31G_2DFP_
  Basis Set: (ANONYMOUS6326C9B9 AUX)
    Blend: DEF2-UNIVERSAL-JKFIT

    Orbital Energies [Eh]
    ---------------------

    Alpha Occupied:

       1Ap   -10.180342     1App  -10.167046     2Ap   -10.167026
       3Ap   -10.166972     4Ap    -0.797767     5Ap    -0.686249
       2App   -0.686129     6Ap    -0.530780     7Ap    -0.441124
       3App   -0.434839     8Ap    -0.434504     9Ap    -0.382599
       4App   -0.382598     5App   -0.363611    10Ap    -0.338129
       6App   -0.337868    11Ap    -0.168961

    Alpha Virtual:

      12Ap     0.076069     7App    0.133874    13Ap     0.134429
      14Ap     0.142484     8App    0.142769    15Ap     0.154882
      16Ap     0.178774     9App    0.178785    17Ap     0.203547
      10App    0.214804    18Ap     0.275801    11App    0.276172
      12App    0.399017    19Ap     0.399438    20Ap     0.403343
      13App    0.423851    21Ap     0.424344    22Ap     0.456593
      23Ap     0.495293    14App    0.495483    15App    0.512161
      24Ap     0.513981    16App    0.578704    25Ap     0.578928
      17App    0.591628    26Ap     0.591631    27Ap     0.602577
      28Ap     0.624705    18App    0.631734    29Ap     0.636131
      19App    0.636459    20App    0.663255    30Ap     0.663579
      21App    0.683844    31Ap     0.683888    32Ap     0.734995
      33Ap     0.825136    22App    0.825673    23App    0.853918
      24App    0.914595    34Ap     0.915453    25App    0.944128
      35Ap     0.944596    26App    0.961071    36Ap     0.961530
      37Ap     1.003457    27App    1.127791    38Ap     1.128433
      39Ap     1.142207    28App    1.163091    40Ap     1.163458
      41Ap     1.223330    42Ap     1.274388    29App    1.274583
      43Ap     1.279356    44Ap     1.324184    30App    1.324508
      45Ap     1.355963    46Ap     1.365789    31App    1.366324
      32App    1.392452    33App    1.403639    47Ap     1.404486
      34App    1.416916    48Ap     1.417273    35App    1.427900
      36App    1.491502    49Ap     1.499087    37App    1.542360
      50Ap     1.543315    51Ap     1.574072    38App    1.574824
      52Ap     1.669830    53Ap     1.738766    39App    1.739980
      54Ap     1.768407    55Ap     1.831368    40App    1.831388
      41App    1.971745    56Ap     2.017301    42App    2.019219
      57Ap     2.019906    43App    2.052234    58Ap     2.053069
      44App    2.738255    59Ap     2.738711    60Ap     2.790922
      45App    2.811428    61Ap     2.889769    46App    2.890115
      62Ap     2.894964    63Ap     2.929481    47App    2.929518
      48App    2.958962    49App    2.964148    64Ap     2.964642
      65Ap     3.034016    50App    3.070690    66Ap     3.071865
      51App    3.084395    67Ap     3.168144    52App    3.169427
      68Ap     3.180592    69Ap     3.285148    53App    3.285475
      70Ap     3.326583    54App    3.327756    71Ap     3.375619
      55App    3.490037    72Ap     3.490288    56App    3.514014
      73Ap     3.525319    57App    3.568052    74Ap     3.568725
      58App    3.575127    59App    3.666205    75Ap     3.666614
      76Ap     3.679600    60App    3.694040    77Ap     3.694286
      78Ap     3.776660    61App    3.776945    79Ap     3.789117
      62App    3.911748    80Ap     3.912698    81Ap     4.034429
      82Ap     4.111228    63App    4.111379    83Ap     4.147645
      64App    4.148401    84Ap     4.173481    85Ap     4.202161
      65App    4.202697    86Ap     4.203648    66App    4.211240
      67App    4.314459    87Ap     4.317480    68App    4.358974
      88Ap     4.423591    69App    4.425337    70App    4.443447
      89Ap     4.516499    71App    4.517197    90Ap     4.578095
      72App    4.578390    91Ap     4.617595    92Ap     4.709456
      93Ap     4.774082    73App    4.775135    74App    4.836909
      94Ap     4.962868    75App    5.002589    95Ap     5.003339
      96Ap     5.227467    76App    5.244594    97Ap     5.249485
      77App    5.355539    98Ap     5.355567    78App    5.479460

    Beta Occupied:

       1App  -10.167800     1Ap   -10.167786     2Ap   -10.167737
       3Ap   -10.166520     4Ap    -0.781092     5Ap    -0.684049
       2App   -0.683935     6Ap    -0.511752     3App   -0.431216
       7Ap    -0.430868     8Ap    -0.421821     9Ap    -0.376710
       4App   -0.376657     5App   -0.362595    10Ap    -0.333255
       6App   -0.332988

    Beta Virtual:

      11Ap    -0.025743    12Ap     0.077078     7App    0.134750
      13Ap     0.135337    14Ap     0.144300     8App    0.144692
      15Ap     0.163339     9App    0.182437    16Ap     0.182464
      10App    0.215034    17Ap     0.218930    18Ap     0.282147
      11App    0.282522    12App    0.400180    19Ap     0.400613
      20Ap     0.419790    13App    0.426662    21Ap     0.427157
      22Ap     0.468501    23Ap     0.497552    14App    0.497746
      15App    0.513896    24Ap     0.556325    16App    0.584267
      25Ap     0.584464    17App    0.597808    26Ap     0.597813
      27Ap     0.609995    28Ap     0.628090    18App    0.631907
      29Ap     0.639432    19App    0.639706    20App    0.666838
      30Ap     0.667128    21App    0.686481    31Ap     0.686518
      32Ap     0.757518    33Ap     0.830314    22App    0.830831
      23App    0.855272    24App    0.922599    34Ap     0.923390
      25App    0.945965    35Ap     0.953522    26App    0.966331
      36Ap     0.966886    37Ap     1.008697    27App    1.131882
      38Ap     1.132397    39Ap     1.155579    28App    1.168133
      40Ap     1.168571    41Ap     1.232301    42Ap     1.279980
      29App    1.280186    43Ap     1.285109    44Ap     1.329172
      30App    1.329498    45Ap     1.365370    46Ap     1.371054
      31App    1.371551    32App    1.393511    33App    1.407079
      47Ap     1.407979    34App    1.422034    48Ap     1.422257
      35App    1.428168    36App    1.492553    49Ap     1.509530
      37App    1.546757    50Ap     1.547737    51Ap     1.581957
      38App    1.582677    52Ap     1.674677    53Ap     1.744532
      39App    1.745755    54Ap     1.779169    55Ap     1.835222
      40App    1.835246    41App    1.972608    56Ap     2.025257
      42App    2.025555    57Ap     2.039787    43App    2.059005
      58Ap     2.059728    44App    2.746611    59Ap     2.747027
      45App    2.811840    60Ap     2.816058    61Ap     2.902382
      46App    2.902896    62Ap     2.924657    47App    2.931921
      63Ap     2.932037    48App    2.960038    49App    2.968672
      64Ap     2.969193    65Ap     3.041950    50App    3.080472
      66Ap     3.081868    51App    3.086249    67Ap     3.183827
      52App    3.185253    68Ap     3.188263    69Ap     3.289947
      53App    3.290273    70Ap     3.330330    54App    3.331618
      71Ap     3.383439    55App    3.492741    72Ap     3.493045
      56App    3.512379    73Ap     3.528364    57App    3.574961
      58App    3.581383    74Ap     3.582100    59App    3.670775
      75Ap     3.671550    76Ap     3.692928    77Ap     3.725679
      60App    3.725863    78Ap     3.781220    61App    3.781437
      79Ap     3.817663    62App    3.921520    80Ap     3.922557
      81Ap     4.045317    82Ap     4.117808    63App    4.118423
      83Ap     4.155193    64App    4.155318    84Ap     4.187492
      65App    4.208695    85Ap     4.208747    86Ap     4.210887
      66App    4.215742    67App    4.321943    87Ap     4.324880
      68App    4.362338    88Ap     4.431827    69App    4.433529
      70App    4.446330    89Ap     4.524283    71App    4.524992
      90Ap     4.588649    72App    4.589035    91Ap     4.624790
      92Ap     4.719801    93Ap     4.781063    73App    4.782060
      74App    4.839826    94Ap     4.967663    75App    5.006645
      95Ap     5.007362    96Ap     5.233078    76App    5.246405
      97Ap     5.251354    77App    5.361994    98Ap     5.362064
      78App    5.481783

    Final Occupation by Irrep:
             Ap   App
    DOCC [    10,    6 ]
    SOCC [     1,    0 ]

  @DF-UKS Final Energy:  -157.81304907880732

   => Energetics <=

    Nuclear Repulsion Energy =            125.3946753142357835
    One-Electron Energy =                -458.7489527090134516
    Two-Electron Energy =                 195.8483780803578611
    DFT Exchange-Correlation Energy =     -20.3071497643874928
    Empirical Dispersion Energy =           0.0000000000000000
    VV10 Nonlocal Energy =                  0.0000000000000000
    Total Energy =                       -157.8130490788073246

  UHF NO Occupations:
  HONO-2 :    9 Ap 1.9996009
  HONO-1 :   10 Ap 1.9989805
  HONO-0 :   11 Ap 1.0000000
  LUNO+0 :   12 Ap 0.0010195
  LUNO+1 :   13 Ap 0.0003991
  LUNO+2 :    7App 0.0001976
  LUNO+3 :   14 Ap 0.0001975

Computation Completed

Properties will be evaluated at   0.000000,   0.000000,   0.000000 [a0]

Properties computed using the SCF density matrix

  Nuclear Dipole Moment: [e a0]
     X:     0.8272      Y:     0.0048      Z:    -0.0000

  Electronic Dipole Moment: [e a0]
     X:    -0.7493      Y:    -0.0072      Z:     0.0000

  Dipole Moment: [e a0]
     X:     0.0779      Y:    -0.0024      Z:    -0.0000     Total:     0.0780

  Dipole Moment: [D]
     X:     0.1980      Y:    -0.0061      Z:    -0.0000     Total:     0.1981

*** tstop() called on n036 at Fri Nov  5 14:14:00 2021
Module time:
	user time   =     636.28 seconds =      10.60 minutes
	system time =      12.18 seconds =       0.20 minutes
	total time  =        163 seconds =       2.72 minutes
Total time:
	user time   =     636.28 seconds =      10.60 minutes
	system time =      12.18 seconds =       0.20 minutes
	total time  =        163 seconds =       2.72 minutes
Grab this energy -157.81304907880732
    Psi4 stopped on: Friday, 05 November 2021 02:14PM
    Psi4 wall time for execution: 0:02:43.14

*** Psi4 exiting successfully. Buy a developer a beer!
