                               Psi4 1.4a2.dev629

  ==> Input File <==

--------------------------------------------------------------------------
import os
memory 14 GB

molecule {
 C   -0.3233408904    0.0002395568    0.0000000000
 C    0.0608026797   -1.3999904775   -2.4268411206
 C    0.0616936356    2.8018493487    0.0000000000
 C    0.0608026797   -1.3999904775    2.4268411206
 H    2.0849764525   -1.6442561059   -2.8476267159
 H   -0.7632119675   -0.3869366458   -4.0257815300
 H   -0.7652119406   -3.2939674595   -2.3482480099
 H    2.0907206899    3.2876172330    0.0000000000
 H   -0.7681958801    3.6802854627    1.6731617764
 H   -0.7681958801    3.6802854627   -1.6731617764
 H    2.0849764525   -1.6442561059    2.8476267159
 H   -0.7652119406   -3.2939674595    2.3482480099
 H   -0.7632119675   -0.3869366458    4.0257815300
units bohr
0 2
}

basis {

assign 6-31g_2dfp_

[ 6-31g_2dfp_ ]

spherical

!----------------------------------------------------------------------
! Basis Set Exchange
! Version v0.8.13
! https://www.basissetexchange.org
!----------------------------------------------------------------------
!   Basis set: 6-31G(2df,p)
! Description: 6-31G(2df,p)
!        Role: orbital
!     Version: 0  (Data from the original Basis Set Exchange)
!----------------------------------------------------------------------

****
H     0
S    3   1.00
     18.7311370              0.03349460
      2.8253937              0.23472695
      0.6401217              0.81375733
S    1   1.00
      0.1612778              1.00000000
P    1   1.00
      1.5000000              1.0000000
P    1   1.00
      0.3750000              1.0000000
****
B     0
S    6   1.00
   2068.8823000              0.0018663
    310.6495700              0.0142515
     70.6830330              0.0695516
     19.8610800              0.2325729
      6.2993048              0.4670787
      2.1270270              0.3634314
SP   3   1.00
      4.7279710             -0.1303938              0.0745976
      1.1903377             -0.1307889              0.3078467
      0.3594117              1.1309444              0.7434568
SP   1   1.00
      0.1267512              1.0000000              1.0000000
D    1   1.00
      0.8020000              1.0000000
D    1   1.00
      0.2005000              1.0000000
F    1   1.00
      0.5000000              1.0000000
****
C     0
S    6   1.00
   3047.5249000              0.0018347
    457.3695100              0.0140373
    103.9486900              0.0688426
     29.2101550              0.2321844
      9.2866630              0.4679413
      3.1639270              0.3623120
SP   3   1.00
      7.8682724             -0.1193324              0.0689991
      1.8812885             -0.1608542              0.3164240
      0.5442493              1.1434564              0.7443083
SP   1   1.00
      0.1687144              1.0000000              1.0000000
D    1   1.00
      1.2520000              1.0000000
D    1   1.00
      0.3130000              1.0000000
F    1   1.00
      0.8000000              1.0000000
****
N     0
S    6   1.00
   4173.5110000              0.0018348
    627.4579000              0.0139950
    142.9021000              0.0685870
     40.2343300              0.2322410
     12.8202100              0.4690700
      4.3904370              0.3604550
SP   3   1.00
     11.6263580             -0.1149610              0.0675800
      2.7162800             -0.1691180              0.3239070
      0.7722180              1.1458520              0.7408950
SP   1   1.00
      0.2120313              1.0000000              1.0000000
D    1   1.00
      1.8260000              1.0000000
D    1   1.00
      0.4565000              1.0000000
F    1   1.00
      1.0000000              1.0000000
****
O     0
S    6   1.00
   5484.6717000              0.0018311
    825.2349500              0.0139501
    188.0469600              0.0684451
     52.9645000              0.2327143
     16.8975700              0.4701930
      5.7996353              0.3585209
SP   3   1.00
     15.5396160             -0.1107775              0.0708743
      3.5999336             -0.1480263              0.3397528
      1.0137618              1.1307670              0.7271586
SP   1   1.00
      0.2700058              1.0000000              1.0000000
D    1   1.00
      2.5840000              1.0000000
D    1   1.00
      0.6460000              1.0000000
F    1   1.00
      1.4000000              1.0000000
****
F     0
S    6   1.00
   7001.7130900              0.0018196169
   1051.3660900              0.0139160796
    239.2856900              0.0684053245
     67.3974453              0.233185760
     21.5199573              0.471267439
      7.40310130             0.356618546
SP   3   1.00
     20.8479528             -0.108506975            0.0716287243
      4.80830834            -0.146451658            0.3459121030
      1.34406986             1.128688580            0.7224699570
SP   1   1.00
      0.358151393            1.0000000              1.0000000
D    1   1.00
      3.5000000              1.0000000
D    1   1.00
      0.8750000              1.0000000
F    1   1.00
      1.8500000              1.0000000
****
Al     0
S    6   1.00
  13983.1000000              0.00194267
   2098.7500000              0.0148599
    477.7050000              0.0728494
    134.3600000              0.2468300
     42.8709000              0.4872580
     14.5189000              0.3234960
SP   6   1.00
    239.6680000             -0.00292619             0.00460285
     57.4419000             -0.0374080              0.0331990
     18.2859000             -0.1144870              0.1362820
      6.5991400              0.1156350              0.3304760
      2.4904900              0.6125950              0.4491460
      0.9445400              0.3937990              0.2657040
SP   3   1.00
      1.2779000             -0.2276060             -0.0175130
      0.3975900              0.00144583             0.2445330
      0.1600950              1.0927900              0.8049340
SP   1   1.00
      0.0556577              1.0000000              1.0000000
D    1   1.00
      0.6500000              1.0000000
D    1   1.00
      0.1625000              1.0000000
F    1   1.00
      0.2500000              1.0000000
****
Si     0
S    6   1.00
  16115.9000000              0.00195948
   2425.5800000              0.01492880
    553.8670000              0.07284780
    156.3400000              0.24613000
     50.0683000              0.48591400
     17.0178000              0.32500200
SP   6   1.00
    292.7180000             -0.00278094             0.00443826
     69.8731000             -0.03571460             0.03266790
     22.3363000             -0.11498500             0.13472100
      8.1503900              0.09356340             0.32867800
      3.1345800              0.60301700             0.44964000
      1.2254300              0.41895900             0.26137200
SP   3   1.00
      1.7273800             -0.24463000            -0.01779510
      0.5729220              0.00431572             0.25353900
      0.2221920              1.09818000             0.80066900
SP   1   1.00
      0.0778369              1.00000000             1.00000000
D    1   1.00
      0.9000000              1.0000000
D    1   1.00
      0.2250000              1.0000000
F    1   1.00
      0.3200000              1.0000000
****
P     0
S    6   1.00
  19413.3000000              0.0018516
   2909.4200000              0.0142062
    661.3640000              0.0699995
    185.7590000              0.2400790
     59.1943000              0.4847620
     20.0310000              0.3352000
SP   6   1.00
    339.4780000             -0.00278217             0.00456462
     81.0101000             -0.0360499              0.03369360
     25.8780000             -0.1166310              0.13975500
      9.4522100              0.0968328              0.33936200
      3.6656600              0.6144180              0.45092100
      1.4674600              0.4037980              0.23858600
SP   3   1.00
      2.1562300             -0.2529230             -0.01776530
      0.7489970              0.0328517              0.27405800
      0.2831450              1.0812500              0.78542100
SP   1   1.00
      0.0998317              1.0000000              1.00000000
D    1   1.00
      1.1000000              1.0000000
D    1   1.00
      0.2750000              1.0000000
F    1   1.00
      0.4500000              1.0000000
****
S     0
S    6   1.00
  21917.1000000              0.0018690
   3301.4900000              0.0142300
    754.1460000              0.0696960
    212.7110000              0.2384870
     67.9896000              0.4833070
     23.0515000              0.3380740
SP   6   1.00
    423.7350000             -0.0023767              0.0040610
    100.7100000             -0.0316930              0.0306810
     32.1599000             -0.1133170              0.1304520
     11.8079000              0.0560900              0.3272050
      4.6311000              0.5922550              0.4528510
      1.8702500              0.4550060              0.2560420
SP   3   1.00
      2.6158400             -0.2503740             -0.0145110
      0.9221670              0.0669570              0.3102630
      0.3412870              1.0545100              0.7544830
SP   1   1.00
      0.1171670              1.0000000              1.0000000
D    1   1.00
      1.3000000              1.0000000
D    1   1.00
      0.3250000              1.0000000
F    1   1.00
      0.5500000              1.0000000
****
Cl     0
S    6   1.00
  25180.1000000              0.0018330
   3780.3500000              0.0140340
    860.4740000              0.0690970
    242.1450000              0.2374520
     77.3349000              0.4830340
     26.2470000              0.3398560
SP   6   1.00
    491.7650000             -0.0022974              0.0039894
    116.9840000             -0.0307140              0.0303180
     37.4153000             -0.1125280              0.1298800
     13.7834000              0.0450160              0.3279510
      5.4521500              0.5893530              0.4535270
      2.2258800              0.4652060              0.2521540
SP   3   1.00
      3.1864900             -0.2518300             -0.0142990
      1.1442700              0.0615890              0.3235720
      0.4203770              1.0601800              0.7435070
SP   1   1.00
      0.1426570              1.0000000              1.0000000
D    1   1.00
      1.5000000              1.0000000
D    1   1.00
      0.3750000              1.0000000
F    1   1.00
      0.7000000              1.0000000
****
}

set {
reference uhf
freeze_core true
e_convergence 10
d_convergence 10
dft_spherical_points 1202
dft_radial_points 99
}

e = energy('b3lyp')

print_out('Grab this energy {0}'.format(e))
--------------------------------------------------------------------------

    Molecular point group: cs

    Geometry (in Bohr), charge = 0, multiplicity = 2:

       Center              X                  Y                   Z               Mass
    ------------   -----------------  -----------------  -----------------  -----------------
         C           -0.323340522410    -0.000166020289     0.000000000000    12.000000000000
         C            0.060803047690    -1.400396054589    -2.426841120600    12.000000000000
         C            0.061694003590     2.801443771611     0.000000000000    12.000000000000
         C            0.060803047690    -1.400396054589     2.426841120600    12.000000000000
         H            2.084976820490    -1.644661682989    -2.847626715900     1.007825032230
         H           -0.763211599510    -0.387342222889    -4.025781530000     1.007825032230
         H           -0.765211572610    -3.294373036589    -2.348248009900     1.007825032230
         H            2.090721057890     3.287211655911     0.000000000000     1.007825032230
         H           -0.768195512110     3.679879885611     1.673161776400     1.007825032230
         H           -0.768195512110     3.679879885611    -1.673161776400     1.007825032230
         H            2.084976820490    -1.644661682989     2.847626715900     1.007825032230
         H           -0.765211572610    -3.294373036589     2.348248009900     1.007825032230
         H           -0.763211599510    -0.387342222889     4.025781530000     1.007825032230

  Charge       = 0
  Multiplicity = 2
  Basis Set: ANONYMOUSA7029365
    Blend: 6-31G_2DFP_
  Basis Set: (ANONYMOUSA7029365 AUX)
    Blend: DEF2-UNIVERSAL-JKFIT

    Orbital Energies [Eh]
    ---------------------

    Alpha Occupied:

       1Ap   -10.180342     1App  -10.167033     2Ap   -10.167027
       3Ap   -10.166984     4Ap    -0.797766     2App   -0.686220
       5Ap    -0.686154     6Ap    -0.530777     7Ap    -0.441124
       8Ap    -0.434750     3App   -0.434592     9Ap    -0.382726
       4App   -0.382471     5App   -0.363611     6App   -0.338050
      10Ap    -0.337947    11Ap    -0.168961

    Alpha Virtual:

      12Ap     0.076072    13Ap     0.134021     7App    0.134290
       8App    0.142627    14Ap     0.142628    15Ap     0.154879
       9App    0.178750    16Ap     0.178806    17Ap     0.203547
      10App    0.214802    11App    0.275964    18Ap     0.276007
      19Ap     0.399101    12App    0.399356    20Ap     0.403346
      21Ap     0.423964    13App    0.424230    22Ap     0.456593
      14App    0.495274    23Ap     0.495501    15App    0.512161
      24Ap     0.513982    25Ap     0.578725    16App    0.578910
      26Ap     0.591604    17App    0.591663    27Ap     0.602574
      28Ap     0.624761    18App    0.631765    19App    0.636251
      29Ap     0.636253    30Ap     0.663211    20App    0.663615
      21App    0.683828    31Ap     0.683880    32Ap     0.734995
      22App    0.825392    33Ap     0.825412    23App    0.853924
      34Ap     0.914834    24App    0.915216    25App    0.944126
      35Ap     0.944611    36Ap     0.961252    26App    0.961339
      37Ap     1.003449    27App    1.128057    38Ap     1.128154
      39Ap     1.142216    40Ap     1.163237    28App    1.163308
      41Ap     1.223326    42Ap     1.274480    29App    1.274501
      43Ap     1.279356    30App    1.324146    44Ap     1.324571
      45Ap     1.355925    46Ap     1.365725    31App    1.366378
      32App    1.392457    47Ap     1.403736    33App    1.404382
      34App    1.416287    48Ap     1.417976    35App    1.427910
      36App    1.491493    49Ap     1.499091    50Ap     1.542410
      37App    1.543247    38App    1.574448    51Ap     1.574450
      52Ap     1.669817    39App    1.739172    53Ap     1.739653
      54Ap     1.768329    40App    1.830783    55Ap     1.832013
      41App    1.971718    56Ap     2.018266    42App    2.018878
      57Ap     2.019251    58Ap     2.052082    43App    2.053215
      59Ap     2.738115    44App    2.738850    60Ap     2.790924
      45App    2.811424    61Ap     2.889675    46App    2.890224
      62Ap     2.894950    63Ap     2.929450    47App    2.929544
      48App    2.958999    64Ap     2.964142    49App    2.964603
      65Ap     3.034014    66Ap     3.071151    50App    3.071418
      51App    3.084357    52App    3.168450    67Ap     3.169122
      68Ap     3.180585    53App    3.284954    69Ap     3.285671
      54App    3.326803    70Ap     3.327503    71Ap     3.375635
      72Ap     3.490026    55App    3.490305    56App    3.514014
      73Ap     3.525321    57App    3.568159    74Ap     3.568632
      58App    3.575145    75Ap     3.665956    59App    3.666818
      76Ap     3.679655    60App    3.693976    77Ap     3.694269
      61App    3.776766    78Ap     3.776853    79Ap     3.789124
      62App    3.912205    80Ap     3.912248    81Ap     4.034435
      82Ap     4.110815    63App    4.111904    64App    4.147593
      83Ap     4.148628    84Ap     4.173232    85Ap     4.202080
      65App    4.202087    86Ap     4.204637    66App    4.210895
      87Ap     4.314692    67App    4.317248    68App    4.358973
      69App    4.424268    88Ap     4.424663    70App    4.443414
      71App    4.516484    89Ap     4.517193    90Ap     4.578177
      72App    4.578353    91Ap     4.617549    92Ap     4.709451
      73App    4.774540    93Ap     4.774645    74App    4.836892
      94Ap     4.962869    95Ap     5.002672    75App    5.003237
      96Ap     5.227968    97Ap     5.244772    76App    5.248828
      98Ap     5.354071    77App    5.356991    78App    5.479372

    Beta Occupied:

       1App  -10.167786     1Ap   -10.167781     2Ap   -10.167757
       3Ap   -10.166519     4Ap    -0.781091     2App   -0.684018
       5Ap    -0.683962     6Ap    -0.511748     7Ap    -0.431132
       3App   -0.430951     8Ap    -0.421822     9Ap    -0.376797
       4App   -0.376569     5App   -0.362595     6App   -0.333182
      10Ap    -0.333061

    Beta Virtual:

      11Ap    -0.025742    12Ap     0.077081    13Ap     0.134914
       7App    0.135178     8App    0.144476    14Ap     0.144520
      15Ap     0.163338     9App    0.182438    16Ap     0.182460
      10App    0.215032    17Ap     0.218930    11App    0.282306
      18Ap     0.282361    19Ap     0.400269    12App    0.400527
      20Ap     0.419792    21Ap     0.426773    13App    0.427043
      22Ap     0.468501    14App    0.497523    23Ap     0.497774
      15App    0.513896    24Ap     0.556325    25Ap     0.584286
      16App    0.584448    26Ap     0.597766    17App    0.597861
      27Ap     0.609996    28Ap     0.628137    18App    0.631925
      19App    0.639532    29Ap     0.639539    30Ap     0.666791
      20App    0.667164    21App    0.686483    31Ap     0.686494
      32Ap     0.757518    22App    0.830554    33Ap     0.830585
      23App    0.855279    34Ap     0.922818    24App    0.923174
      25App    0.945963    35Ap     0.953539    36Ap     0.966536
      26App    0.966667    37Ap     1.008690    27App    1.131987
      38Ap     1.132280    39Ap     1.155593    40Ap     1.168231
      28App    1.168464    41Ap     1.232298    42Ap     1.280068
      29App    1.280105    43Ap     1.285112    30App    1.329123
      44Ap     1.329573    45Ap     1.365331    46Ap     1.371018
      31App    1.371573    32App    1.393514    47Ap     1.407178
      33App    1.407877    34App    1.421336    48Ap     1.423031
      35App    1.428180    36App    1.492541    49Ap     1.509534
      50Ap     1.546762    37App    1.547712    38App    1.582277
      51Ap     1.582362    52Ap     1.674664    39App    1.744940
      53Ap     1.745410    54Ap     1.779107    40App    1.834630
      55Ap     1.835877    41App    1.972578    42App    2.025296
      56Ap     2.025611    57Ap     2.039658    58Ap     2.058823
      43App    2.059911    59Ap     2.746456    44App    2.747181
      45App    2.811836    60Ap     2.816059    61Ap     2.902435
      46App    2.902852    62Ap     2.924646    63Ap     2.931903
      47App    2.932051    48App    2.960062    64Ap     2.968673
      49App    2.969165    65Ap     3.041948    66Ap     3.080973
      50App    3.081415    51App    3.086175    52App    3.184115
      67Ap     3.184965    68Ap     3.188259    53App    3.289752
      69Ap     3.290469    54App    3.330570    70Ap     3.331348
      71Ap     3.383451    72Ap     3.492719    55App    3.493073
      56App    3.512379    73Ap     3.528367    57App    3.574998
      58App    3.581523    74Ap     3.581953    75Ap     3.670598
      59App    3.671677    76Ap     3.692948    60App    3.725436
      77Ap     3.726066    78Ap     3.781305    61App    3.781371
      79Ap     3.817669    62App    3.922016    80Ap     3.922070
      81Ap     4.045323    82Ap     4.117701    63App    4.118642
      64App    4.154901    83Ap     4.155746    84Ap     4.187286
      65App    4.207970    85Ap     4.209258    86Ap     4.211428
      66App    4.215367    87Ap     4.322107    67App    4.324713
      68App    4.362337    69App    4.432470    88Ap     4.432891
      70App    4.446294    71App    4.524281    89Ap     4.524978
      90Ap     4.588804    72App    4.588928    91Ap     4.624742
      92Ap     4.719797    73App    4.781513    93Ap     4.781579
      74App    4.839808    94Ap     4.967664    95Ap     5.006712
      75App    5.007275    96Ap     5.233680    97Ap     5.246571
      76App    5.250600    98Ap     5.360543    77App    5.363480
      78App    5.481693

    Final Occupation by Irrep:
             Ap   App
    DOCC [    10,    6 ]
    SOCC [     1,    0 ]

  @DF-UKS Final Energy:  -157.81306670121850

   => Energetics <=

    Nuclear Repulsion Energy =            125.3946017643932862
    One-Electron Energy =                -458.7488652281622308
    Two-Electron Energy =                 195.8483393879521941
    DFT Exchange-Correlation Energy =     -20.3071426254017844
    Empirical Dispersion Energy =           0.0000000000000000
    VV10 Nonlocal Energy =                  0.0000000000000000
    Total Energy =                       -157.8130667012185029

  UHF NO Occupations:
  HONO-2 :    9 Ap 1.9996009
  HONO-1 :   10 Ap 1.9989805
  HONO-0 :   11 Ap 1.0000000
  LUNO+0 :   12 Ap 0.0010195
  LUNO+1 :   13 Ap 0.0003991
  LUNO+2 :   14 Ap 0.0001977
  LUNO+3 :    7App 0.0001974

Computation Completed

Properties will be evaluated at   0.000000,   0.000000,   0.000000 [a0]

Properties computed using the SCF density matrix

  Nuclear Dipole Moment: [e a0]
     X:     0.8272      Y:    -0.0029      Z:     0.0000

  Electronic Dipole Moment: [e a0]
     X:    -0.7493      Y:     0.0034      Z:     0.0000

  Dipole Moment: [e a0]
     X:     0.0779      Y:     0.0005      Z:     0.0000     Total:     0.0779

  Dipole Moment: [D]
     X:     0.1980      Y:     0.0013      Z:     0.0000     Total:     0.1980

*** tstop() called on n083 at Fri Nov  5 12:31:07 2021
Module time:
	user time   =     493.09 seconds =       8.22 minutes
	system time =       4.49 seconds =       0.07 minutes
	total time  =        125 seconds =       2.08 minutes
Total time:
	user time   =     493.09 seconds =       8.22 minutes
	system time =       4.49 seconds =       0.07 minutes
	total time  =        125 seconds =       2.08 minutes
Grab this energy -157.8130667012185
    Psi4 stopped on: Friday, 05 November 2021 12:31PM
    Psi4 wall time for execution: 0:02:05.14

*** Psi4 exiting successfully. Buy a developer a beer!
