                               Psi4 1.4a2.dev629

  ==> Input File <==

--------------------------------------------------------------------------
import os
memory 14 GB

molecule {
 C   -0.3215615915    0.0024271109    0.0000000000
 C    0.0620960329   -1.4001232332   -2.4272418300
 C    0.0607825188    2.8002488185    0.0000000000
 C    0.0620960329   -1.4001232332    2.4272418300
 H    2.0878865367   -1.6494217337   -2.8508584930
 H   -0.7613342905   -0.3857013425   -4.0277720845
 H   -0.7690380196   -3.2877226238   -2.3464980880
 H    2.0838849136    3.2949510342   -0.0000000000
 H   -0.7674671184    3.6741432945    1.6772985091
 H   -0.7674671184    3.6741432945   -1.6772985091
 H    2.0878865367   -1.6494217337    2.8508584930
 H   -0.7690380196   -3.2877226238    2.3464980880
 H   -0.7613342905   -0.3857013425    4.0277720845
units bohr
0 2
}

basis {

assign 6-31g_2dfp_

[ 6-31g_2dfp_ ]

spherical

!----------------------------------------------------------------------
! Basis Set Exchange
! Version v0.8.13
! https://www.basissetexchange.org
!----------------------------------------------------------------------
!   Basis set: 6-31G(2df,p)
! Description: 6-31G(2df,p)
!        Role: orbital
!     Version: 0  (Data from the original Basis Set Exchange)
!----------------------------------------------------------------------

****
H     0
S    3   1.00
     18.7311370              0.03349460
      2.8253937              0.23472695
      0.6401217              0.81375733
S    1   1.00
      0.1612778              1.00000000
P    1   1.00
      1.5000000              1.0000000
P    1   1.00
      0.3750000              1.0000000
****
B     0
S    6   1.00
   2068.8823000              0.0018663
    310.6495700              0.0142515
     70.6830330              0.0695516
     19.8610800              0.2325729
      6.2993048              0.4670787
      2.1270270              0.3634314
SP   3   1.00
      4.7279710             -0.1303938              0.0745976
      1.1903377             -0.1307889              0.3078467
      0.3594117              1.1309444              0.7434568
SP   1   1.00
      0.1267512              1.0000000              1.0000000
D    1   1.00
      0.8020000              1.0000000
D    1   1.00
      0.2005000              1.0000000
F    1   1.00
      0.5000000              1.0000000
****
C     0
S    6   1.00
   3047.5249000              0.0018347
    457.3695100              0.0140373
    103.9486900              0.0688426
     29.2101550              0.2321844
      9.2866630              0.4679413
      3.1639270              0.3623120
SP   3   1.00
      7.8682724             -0.1193324              0.0689991
      1.8812885             -0.1608542              0.3164240
      0.5442493              1.1434564              0.7443083
SP   1   1.00
      0.1687144              1.0000000              1.0000000
D    1   1.00
      1.2520000              1.0000000
D    1   1.00
      0.3130000              1.0000000
F    1   1.00
      0.8000000              1.0000000
****
N     0
S    6   1.00
   4173.5110000              0.0018348
    627.4579000              0.0139950
    142.9021000              0.0685870
     40.2343300              0.2322410
     12.8202100              0.4690700
      4.3904370              0.3604550
SP   3   1.00
     11.6263580             -0.1149610              0.0675800
      2.7162800             -0.1691180              0.3239070
      0.7722180              1.1458520              0.7408950
SP   1   1.00
      0.2120313              1.0000000              1.0000000
D    1   1.00
      1.8260000              1.0000000
D    1   1.00
      0.4565000              1.0000000
F    1   1.00
      1.0000000              1.0000000
****
O     0
S    6   1.00
   5484.6717000              0.0018311
    825.2349500              0.0139501
    188.0469600              0.0684451
     52.9645000              0.2327143
     16.8975700              0.4701930
      5.7996353              0.3585209
SP   3   1.00
     15.5396160             -0.1107775              0.0708743
      3.5999336             -0.1480263              0.3397528
      1.0137618              1.1307670              0.7271586
SP   1   1.00
      0.2700058              1.0000000              1.0000000
D    1   1.00
      2.5840000              1.0000000
D    1   1.00
      0.6460000              1.0000000
F    1   1.00
      1.4000000              1.0000000
****
F     0
S    6   1.00
   7001.7130900              0.0018196169
   1051.3660900              0.0139160796
    239.2856900              0.0684053245
     67.3974453              0.233185760
     21.5199573              0.471267439
      7.40310130             0.356618546
SP   3   1.00
     20.8479528             -0.108506975            0.0716287243
      4.80830834            -0.146451658            0.3459121030
      1.34406986             1.128688580            0.7224699570
SP   1   1.00
      0.358151393            1.0000000              1.0000000
D    1   1.00
      3.5000000              1.0000000
D    1   1.00
      0.8750000              1.0000000
F    1   1.00
      1.8500000              1.0000000
****
Al     0
S    6   1.00
  13983.1000000              0.00194267
   2098.7500000              0.0148599
    477.7050000              0.0728494
    134.3600000              0.2468300
     42.8709000              0.4872580
     14.5189000              0.3234960
SP   6   1.00
    239.6680000             -0.00292619             0.00460285
     57.4419000             -0.0374080              0.0331990
     18.2859000             -0.1144870              0.1362820
      6.5991400              0.1156350              0.3304760
      2.4904900              0.6125950              0.4491460
      0.9445400              0.3937990              0.2657040
SP   3   1.00
      1.2779000             -0.2276060             -0.0175130
      0.3975900              0.00144583             0.2445330
      0.1600950              1.0927900              0.8049340
SP   1   1.00
      0.0556577              1.0000000              1.0000000
D    1   1.00
      0.6500000              1.0000000
D    1   1.00
      0.1625000              1.0000000
F    1   1.00
      0.2500000              1.0000000
****
Si     0
S    6   1.00
  16115.9000000              0.00195948
   2425.5800000              0.01492880
    553.8670000              0.07284780
    156.3400000              0.24613000
     50.0683000              0.48591400
     17.0178000              0.32500200
SP   6   1.00
    292.7180000             -0.00278094             0.00443826
     69.8731000             -0.03571460             0.03266790
     22.3363000             -0.11498500             0.13472100
      8.1503900              0.09356340             0.32867800
      3.1345800              0.60301700             0.44964000
      1.2254300              0.41895900             0.26137200
SP   3   1.00
      1.7273800             -0.24463000            -0.01779510
      0.5729220              0.00431572             0.25353900
      0.2221920              1.09818000             0.80066900
SP   1   1.00
      0.0778369              1.00000000             1.00000000
D    1   1.00
      0.9000000              1.0000000
D    1   1.00
      0.2250000              1.0000000
F    1   1.00
      0.3200000              1.0000000
****
P     0
S    6   1.00
  19413.3000000              0.0018516
   2909.4200000              0.0142062
    661.3640000              0.0699995
    185.7590000              0.2400790
     59.1943000              0.4847620
     20.0310000              0.3352000
SP   6   1.00
    339.4780000             -0.00278217             0.00456462
     81.0101000             -0.0360499              0.03369360
     25.8780000             -0.1166310              0.13975500
      9.4522100              0.0968328              0.33936200
      3.6656600              0.6144180              0.45092100
      1.4674600              0.4037980              0.23858600
SP   3   1.00
      2.1562300             -0.2529230             -0.01776530
      0.7489970              0.0328517              0.27405800
      0.2831450              1.0812500              0.78542100
SP   1   1.00
      0.0998317              1.0000000              1.00000000
D    1   1.00
      1.1000000              1.0000000
D    1   1.00
      0.2750000              1.0000000
F    1   1.00
      0.4500000              1.0000000
****
S     0
S    6   1.00
  21917.1000000              0.0018690
   3301.4900000              0.0142300
    754.1460000              0.0696960
    212.7110000              0.2384870
     67.9896000              0.4833070
     23.0515000              0.3380740
SP   6   1.00
    423.7350000             -0.0023767              0.0040610
    100.7100000             -0.0316930              0.0306810
     32.1599000             -0.1133170              0.1304520
     11.8079000              0.0560900              0.3272050
      4.6311000              0.5922550              0.4528510
      1.8702500              0.4550060              0.2560420
SP   3   1.00
      2.6158400             -0.2503740             -0.0145110
      0.9221670              0.0669570              0.3102630
      0.3412870              1.0545100              0.7544830
SP   1   1.00
      0.1171670              1.0000000              1.0000000
D    1   1.00
      1.3000000              1.0000000
D    1   1.00
      0.3250000              1.0000000
F    1   1.00
      0.5500000              1.0000000
****
Cl     0
S    6   1.00
  25180.1000000              0.0018330
   3780.3500000              0.0140340
    860.4740000              0.0690970
    242.1450000              0.2374520
     77.3349000              0.4830340
     26.2470000              0.3398560
SP   6   1.00
    491.7650000             -0.0022974              0.0039894
    116.9840000             -0.0307140              0.0303180
     37.4153000             -0.1125280              0.1298800
     13.7834000              0.0450160              0.3279510
      5.4521500              0.5893530              0.4535270
      2.2258800              0.4652060              0.2521540
SP   3   1.00
      3.1864900             -0.2518300             -0.0142990
      1.1442700              0.0615890              0.3235720
      0.4203770              1.0601800              0.7435070
SP   1   1.00
      0.1426570              1.0000000              1.0000000
D    1   1.00
      1.5000000              1.0000000
D    1   1.00
      0.3750000              1.0000000
F    1   1.00
      0.7000000              1.0000000
****
}

set {
reference uhf
freeze_core true
e_convergence 10
d_convergence 10
dft_spherical_points 1202
dft_radial_points 99
}

e = energy('b3lyp')

print_out('Grab this energy {0}'.format(e))
--------------------------------------------------------------------------

    Molecular point group: cs

    Geometry (in Bohr), charge = 0, multiplicity = 2:

       Center              X                  Y                   Z               Mass
    ------------   -----------------  -----------------  -----------------  -----------------
         C           -0.322226659919     0.001959608193     0.000000000000    12.000000000000
         C            0.061430964481    -1.400590735907    -2.427241830000    12.000000000000
         C            0.060117450381     2.799781315793     0.000000000000    12.000000000000
         C            0.061430964481    -1.400590735907     2.427241830000    12.000000000000
         H            2.087221468281    -1.649889236407    -2.850858493000     1.007825032230
         H           -0.761999358919    -0.386168845207    -4.027772084500     1.007825032230
         H           -0.769703088019    -3.288190126507    -2.346498088000     1.007825032230
         H            2.083219845181     3.294483531493     0.000000000000     1.007825032230
         H           -0.768132186819     3.673675791793     1.677298509100     1.007825032230
         H           -0.768132186819     3.673675791793    -1.677298509100     1.007825032230
         H            2.087221468281    -1.649889236407     2.850858493000     1.007825032230
         H           -0.769703088019    -3.288190126507     2.346498088000     1.007825032230
         H           -0.761999358919    -0.386168845207     4.027772084500     1.007825032230

  Charge       = 0
  Multiplicity = 2
  Basis Set: ANONYMOUSF0884FD1
    Blend: 6-31G_2DFP_
  Basis Set: (ANONYMOUSF0884FD1 AUX)
    Blend: DEF2-UNIVERSAL-JKFIT

    Orbital Energies [Eh]
    ---------------------

    Alpha Occupied:

       1Ap   -10.180329     1App  -10.167092     2Ap   -10.167063
       3Ap   -10.166751     4Ap    -0.797832     5Ap    -0.686367
       2App   -0.686081     6Ap    -0.530788     7Ap    -0.440955
       3App   -0.434955     8Ap    -0.434811     9Ap    -0.382491
       4App   -0.382403     5App   -0.363748    10Ap    -0.338170
       6App   -0.337871    11Ap    -0.169050

    Alpha Virtual:

      12Ap     0.076108     7App    0.134045    13Ap     0.134169
      14Ap     0.142683     8App    0.142707    15Ap     0.155084
      16Ap     0.178738     9App    0.178745    17Ap     0.203679
      10App    0.215023    11App    0.275689    18Ap     0.276361
      19Ap     0.399448    12App    0.399451    20Ap     0.403282
      13App    0.423912    21Ap     0.423980    22Ap     0.456830
      23Ap     0.495315    14App    0.495416    15App    0.511972
      24Ap     0.514037    16App    0.578787    25Ap     0.579134
      17App    0.591216    26Ap     0.591691    27Ap     0.602342
      28Ap     0.624825    18App    0.632022    19App    0.636252
      29Ap     0.636433    20App    0.663486    30Ap     0.663894
      31Ap     0.683746    21App    0.683789    32Ap     0.735077
      22App    0.825273    33Ap     0.825338    23App    0.854261
      24App    0.915038    34Ap     0.915312    35Ap     0.943815
      25App    0.944347    26App    0.960964    36Ap     0.961057
      37Ap     1.004179    38Ap     1.128501    27App    1.128611
      39Ap     1.141606    40Ap     1.163712    28App    1.163949
      41Ap     1.223257    29App    1.274284    42Ap     1.274641
      43Ap     1.279590    30App    1.324505    44Ap     1.324748
      45Ap     1.355582    31App    1.366073    46Ap     1.366686
      32App    1.392251    33App    1.403457    47Ap     1.404073
      34App    1.416700    48Ap     1.417243    35App    1.428532
      36App    1.492092    49Ap     1.498765    37App    1.542754
      50Ap     1.543032    51Ap     1.573612    38App    1.574052
      52Ap     1.669899    39App    1.739025    53Ap     1.739545
      54Ap     1.768170    40App    1.831258    55Ap     1.832085
      41App    1.971833    56Ap     2.018037    42App    2.019864
      57Ap     2.019968    43App    2.052144    58Ap     2.054096
      44App    2.738016    59Ap     2.738122    60Ap     2.791157
      45App    2.811937    46App    2.889702    61Ap     2.890464
      62Ap     2.895252    63Ap     2.929782    47App    2.930123
      48App    2.959055    64Ap     2.964159    49App    2.964705
      65Ap     3.034476    50App    3.070510    66Ap     3.071099
      51App    3.083998    52App    3.168670    67Ap     3.168736
      68Ap     3.180776    53App    3.284866    69Ap     3.284963
      54App    3.327828    70Ap     3.328698    71Ap     3.375325
      55App    3.489427    72Ap     3.489918    56App    3.514218
      73Ap     3.525479    57App    3.568077    74Ap     3.569789
      58App    3.576015    75Ap     3.666102    59App    3.666541
      76Ap     3.680756    60App    3.693264    77Ap     3.693941
      78Ap     3.776572    61App    3.779303    79Ap     3.787863
      62App    3.911847    80Ap     3.912836    81Ap     4.033345
      63App    4.110462    82Ap     4.112501    64App    4.147344
      83Ap     4.148450    84Ap     4.173179    85Ap     4.202225
      65App    4.203369    86Ap     4.204385    66App    4.211369
      67App    4.315765    87Ap     4.316813    68App    4.360120
      88Ap     4.423447    69App    4.424445    70App    4.444451
      71App    4.516912    89Ap     4.518397    72App    4.578584
      90Ap     4.579906    91Ap     4.618004    92Ap     4.709771
      93Ap     4.774385    73App    4.775562    74App    4.835906
      94Ap     4.963368    75App    5.002212    95Ap     5.003482
      96Ap     5.228393    97Ap     5.246632    76App    5.246870
      77App    5.355130    98Ap     5.357041    78App    5.479609

    Beta Occupied:

       1App  -10.167845     1Ap   -10.167828     2Ap   -10.167516
       3Ap   -10.166511     4Ap    -0.781161     5Ap    -0.684156
       2App   -0.683893     6Ap    -0.511755     3App   -0.431324
       7Ap    -0.431166     8Ap    -0.421658     9Ap    -0.376554
       4App   -0.376490     5App   -0.362726    10Ap    -0.333296
       6App   -0.332997

    Beta Virtual:

      11Ap    -0.025908    12Ap     0.077114     7App    0.134945
      13Ap     0.135078    14Ap     0.144553     8App    0.144598
      15Ap     0.163593     9App    0.182402    16Ap     0.182411
      10App    0.215255    17Ap     0.219022    11App    0.282036
      18Ap     0.282687    19Ap     0.400627    12App    0.400630
      20Ap     0.419739    13App    0.426704    21Ap     0.426799
      22Ap     0.468818    23Ap     0.497597    14App    0.497683
      15App    0.513712    24Ap     0.556295    16App    0.584346
      25Ap     0.584722    17App    0.597390    26Ap     0.597819
      27Ap     0.609784    28Ap     0.628205    18App    0.632185
      19App    0.639508    29Ap     0.639735    20App    0.667084
      30Ap     0.667469    31Ap     0.686375    21App    0.686394
      32Ap     0.757564    22App    0.830486    33Ap     0.830494
      23App    0.855617    24App    0.923051    34Ap     0.923333
      25App    0.946183    35Ap     0.952825    26App    0.966215
      36Ap     0.966367    37Ap     1.009448    38Ap     1.132482
      27App    1.132693    39Ap     1.154766    40Ap     1.168841
      28App    1.168950    41Ap     1.232328    29App    1.279895
      42Ap     1.280259    43Ap     1.285416    30App    1.329546
      44Ap     1.329765    45Ap     1.364938    31App    1.371347
      46Ap     1.371883    32App    1.393323    33App    1.406909
      47Ap     1.407580    34App    1.421703    48Ap     1.422235
      35App    1.428807    36App    1.493129    49Ap     1.509187
      37App    1.547188    50Ap     1.547402    51Ap     1.581540
      38App    1.581889    52Ap     1.674749    39App    1.744774
      53Ap     1.745322    54Ap     1.778965    40App    1.835104
      55Ap     1.835945    41App    1.972700    42App    2.026251
      56Ap     2.026389    57Ap     2.039481    43App    2.058878
      58Ap     2.060766    44App    2.746335    59Ap     2.746497
      45App    2.812354    60Ap     2.816295    46App    2.902380
      61Ap     2.903078    62Ap     2.924876    63Ap     2.932301
      47App    2.932616    48App    2.960120    64Ap     2.968759
      49App    2.969270    65Ap     3.042402    50App    3.080448
      66Ap     3.080955    51App    3.085816    52App    3.184342
      67Ap     3.184495    68Ap     3.188527    53App    3.289639
      69Ap     3.289740    54App    3.331615    70Ap     3.332471
      71Ap     3.383118    55App    3.492203    72Ap     3.492736
      56App    3.512595    73Ap     3.528490    57App    3.575843
      58App    3.581398    74Ap     3.583037    75Ap     3.670896
      59App    3.671084    76Ap     3.693978    60App    3.725205
      77Ap     3.725579    78Ap     3.781239    61App    3.783847
      79Ap     3.816403    62App    3.921661    80Ap     3.922562
      81Ap     4.044285    63App    4.117371    82Ap     4.119407
      64App    4.154539    83Ap     4.155512    84Ap     4.187204
      65App    4.209261    85Ap     4.209883    86Ap     4.210648
      66App    4.215876    67App    4.323190    87Ap     4.324302
      68App    4.363504    88Ap     4.431690    69App    4.432638
      70App    4.447315    71App    4.524701    89Ap     4.526162
      72App    4.589204    90Ap     4.590529    91Ap     4.625126
      92Ap     4.720221    93Ap     4.781366    73App    4.782461
      74App    4.838826    94Ap     4.968159    75App    5.006248
      95Ap     5.007556    96Ap     5.234094    97Ap     5.248408
      76App    5.248669    77App    5.361590    98Ap     5.363545
      78App    5.481936

    Final Occupation by Irrep:
             Ap   App
    DOCC [    10,    6 ]
    SOCC [     1,    0 ]

  @DF-UKS Final Energy:  -157.81307398307325

   => Energetics <=

    Nuclear Repulsion Energy =            125.4062462906631481
    One-Electron Energy =                -458.7716033108935108
    Two-Electron Energy =                 195.8597707864280153
    DFT Exchange-Correlation Energy =     -20.3074877492708907
    Empirical Dispersion Energy =           0.0000000000000000
    VV10 Nonlocal Energy =                  0.0000000000000000
    Total Energy =                       -157.8130739830732523

  UHF NO Occupations:
  HONO-2 :    9 Ap 1.9995995
  HONO-1 :   10 Ap 1.9989824
  HONO-0 :   11 Ap 1.0000000
  LUNO+0 :   12 Ap 0.0010176
  LUNO+1 :   13 Ap 0.0004005
  LUNO+2 :    7App 0.0001978
  LUNO+3 :   14 Ap 0.0001967

Computation Completed

Properties will be evaluated at   0.000000,   0.000000,   0.000000 [a0]

Properties computed using the SCF density matrix

  Nuclear Dipole Moment: [e a0]
     X:     0.8225      Y:    -0.0033      Z:     0.0000

  Electronic Dipole Moment: [e a0]
     X:    -0.7450      Y:     0.0033      Z:     0.0000

  Dipole Moment: [e a0]
     X:     0.0775      Y:    -0.0000      Z:     0.0000     Total:     0.0775

  Dipole Moment: [D]
     X:     0.1970      Y:    -0.0001      Z:     0.0000     Total:     0.1970

*** tstop() called on n033 at Fri Nov  5 15:40:18 2021
Module time:
	user time   =     644.83 seconds =      10.75 minutes
	system time =      12.27 seconds =       0.20 minutes
	total time  =        165 seconds =       2.75 minutes
Total time:
	user time   =     644.83 seconds =      10.75 minutes
	system time =      12.27 seconds =       0.20 minutes
	total time  =        165 seconds =       2.75 minutes
Grab this energy -157.81307398307325
    Psi4 stopped on: Friday, 05 November 2021 03:40PM
    Psi4 wall time for execution: 0:02:45.31

*** Psi4 exiting successfully. Buy a developer a beer!
