                               Psi4 1.4a2.dev629

  ==> Input File <==

--------------------------------------------------------------------------
import os
memory 14 GB

molecule {
 C   -0.3236404703   -0.0004963543   -0.0000000000
 C    0.0613273333   -1.4038445824   -2.4314504636
 C    0.0610623552    2.8063468210   -0.0000000000
 C    0.0613273333   -1.4038445824    2.4314504636
 H    2.0851389516   -1.6474974326   -2.8533784045
 H   -0.7644050773   -0.3924769717   -4.0301495380
 H   -0.7647254035   -3.2929936089   -2.3545497172
 H    2.0912729900    3.2942002409    0.0000000000
 H   -0.7679871799    3.6867750850    1.6809275378
 H   -0.7679871799    3.6867750850   -1.6809275378
 H    2.0851389516   -1.6474974326    2.8533784045
 H   -0.7647254035   -3.2929936089    2.3545497172
 H   -0.7644050773   -0.3924769717    4.0301495380
units bohr
0 2
}

basis {

assign 6-31g_2dfp_

[ 6-31g_2dfp_ ]

spherical

!----------------------------------------------------------------------
! Basis Set Exchange
! Version v0.8.13
! https://www.basissetexchange.org
!----------------------------------------------------------------------
!   Basis set: 6-31G(2df,p)
! Description: 6-31G(2df,p)
!        Role: orbital
!     Version: 0  (Data from the original Basis Set Exchange)
!----------------------------------------------------------------------

****
H     0
S    3   1.00
     18.7311370              0.03349460
      2.8253937              0.23472695
      0.6401217              0.81375733
S    1   1.00
      0.1612778              1.00000000
P    1   1.00
      1.5000000              1.0000000
P    1   1.00
      0.3750000              1.0000000
****
B     0
S    6   1.00
   2068.8823000              0.0018663
    310.6495700              0.0142515
     70.6830330              0.0695516
     19.8610800              0.2325729
      6.2993048              0.4670787
      2.1270270              0.3634314
SP   3   1.00
      4.7279710             -0.1303938              0.0745976
      1.1903377             -0.1307889              0.3078467
      0.3594117              1.1309444              0.7434568
SP   1   1.00
      0.1267512              1.0000000              1.0000000
D    1   1.00
      0.8020000              1.0000000
D    1   1.00
      0.2005000              1.0000000
F    1   1.00
      0.5000000              1.0000000
****
C     0
S    6   1.00
   3047.5249000              0.0018347
    457.3695100              0.0140373
    103.9486900              0.0688426
     29.2101550              0.2321844
      9.2866630              0.4679413
      3.1639270              0.3623120
SP   3   1.00
      7.8682724             -0.1193324              0.0689991
      1.8812885             -0.1608542              0.3164240
      0.5442493              1.1434564              0.7443083
SP   1   1.00
      0.1687144              1.0000000              1.0000000
D    1   1.00
      1.2520000              1.0000000
D    1   1.00
      0.3130000              1.0000000
F    1   1.00
      0.8000000              1.0000000
****
N     0
S    6   1.00
   4173.5110000              0.0018348
    627.4579000              0.0139950
    142.9021000              0.0685870
     40.2343300              0.2322410
     12.8202100              0.4690700
      4.3904370              0.3604550
SP   3   1.00
     11.6263580             -0.1149610              0.0675800
      2.7162800             -0.1691180              0.3239070
      0.7722180              1.1458520              0.7408950
SP   1   1.00
      0.2120313              1.0000000              1.0000000
D    1   1.00
      1.8260000              1.0000000
D    1   1.00
      0.4565000              1.0000000
F    1   1.00
      1.0000000              1.0000000
****
O     0
S    6   1.00
   5484.6717000              0.0018311
    825.2349500              0.0139501
    188.0469600              0.0684451
     52.9645000              0.2327143
     16.8975700              0.4701930
      5.7996353              0.3585209
SP   3   1.00
     15.5396160             -0.1107775              0.0708743
      3.5999336             -0.1480263              0.3397528
      1.0137618              1.1307670              0.7271586
SP   1   1.00
      0.2700058              1.0000000              1.0000000
D    1   1.00
      2.5840000              1.0000000
D    1   1.00
      0.6460000              1.0000000
F    1   1.00
      1.4000000              1.0000000
****
F     0
S    6   1.00
   7001.7130900              0.0018196169
   1051.3660900              0.0139160796
    239.2856900              0.0684053245
     67.3974453              0.233185760
     21.5199573              0.471267439
      7.40310130             0.356618546
SP   3   1.00
     20.8479528             -0.108506975            0.0716287243
      4.80830834            -0.146451658            0.3459121030
      1.34406986             1.128688580            0.7224699570
SP   1   1.00
      0.358151393            1.0000000              1.0000000
D    1   1.00
      3.5000000              1.0000000
D    1   1.00
      0.8750000              1.0000000
F    1   1.00
      1.8500000              1.0000000
****
Al     0
S    6   1.00
  13983.1000000              0.00194267
   2098.7500000              0.0148599
    477.7050000              0.0728494
    134.3600000              0.2468300
     42.8709000              0.4872580
     14.5189000              0.3234960
SP   6   1.00
    239.6680000             -0.00292619             0.00460285
     57.4419000             -0.0374080              0.0331990
     18.2859000             -0.1144870              0.1362820
      6.5991400              0.1156350              0.3304760
      2.4904900              0.6125950              0.4491460
      0.9445400              0.3937990              0.2657040
SP   3   1.00
      1.2779000             -0.2276060             -0.0175130
      0.3975900              0.00144583             0.2445330
      0.1600950              1.0927900              0.8049340
SP   1   1.00
      0.0556577              1.0000000              1.0000000
D    1   1.00
      0.6500000              1.0000000
D    1   1.00
      0.1625000              1.0000000
F    1   1.00
      0.2500000              1.0000000
****
Si     0
S    6   1.00
  16115.9000000              0.00195948
   2425.5800000              0.01492880
    553.8670000              0.07284780
    156.3400000              0.24613000
     50.0683000              0.48591400
     17.0178000              0.32500200
SP   6   1.00
    292.7180000             -0.00278094             0.00443826
     69.8731000             -0.03571460             0.03266790
     22.3363000             -0.11498500             0.13472100
      8.1503900              0.09356340             0.32867800
      3.1345800              0.60301700             0.44964000
      1.2254300              0.41895900             0.26137200
SP   3   1.00
      1.7273800             -0.24463000            -0.01779510
      0.5729220              0.00431572             0.25353900
      0.2221920              1.09818000             0.80066900
SP   1   1.00
      0.0778369              1.00000000             1.00000000
D    1   1.00
      0.9000000              1.0000000
D    1   1.00
      0.2250000              1.0000000
F    1   1.00
      0.3200000              1.0000000
****
P     0
S    6   1.00
  19413.3000000              0.0018516
   2909.4200000              0.0142062
    661.3640000              0.0699995
    185.7590000              0.2400790
     59.1943000              0.4847620
     20.0310000              0.3352000
SP   6   1.00
    339.4780000             -0.00278217             0.00456462
     81.0101000             -0.0360499              0.03369360
     25.8780000             -0.1166310              0.13975500
      9.4522100              0.0968328              0.33936200
      3.6656600              0.6144180              0.45092100
      1.4674600              0.4037980              0.23858600
SP   3   1.00
      2.1562300             -0.2529230             -0.01776530
      0.7489970              0.0328517              0.27405800
      0.2831450              1.0812500              0.78542100
SP   1   1.00
      0.0998317              1.0000000              1.00000000
D    1   1.00
      1.1000000              1.0000000
D    1   1.00
      0.2750000              1.0000000
F    1   1.00
      0.4500000              1.0000000
****
S     0
S    6   1.00
  21917.1000000              0.0018690
   3301.4900000              0.0142300
    754.1460000              0.0696960
    212.7110000              0.2384870
     67.9896000              0.4833070
     23.0515000              0.3380740
SP   6   1.00
    423.7350000             -0.0023767              0.0040610
    100.7100000             -0.0316930              0.0306810
     32.1599000             -0.1133170              0.1304520
     11.8079000              0.0560900              0.3272050
      4.6311000              0.5922550              0.4528510
      1.8702500              0.4550060              0.2560420
SP   3   1.00
      2.6158400             -0.2503740             -0.0145110
      0.9221670              0.0669570              0.3102630
      0.3412870              1.0545100              0.7544830
SP   1   1.00
      0.1171670              1.0000000              1.0000000
D    1   1.00
      1.3000000              1.0000000
D    1   1.00
      0.3250000              1.0000000
F    1   1.00
      0.5500000              1.0000000
****
Cl     0
S    6   1.00
  25180.1000000              0.0018330
   3780.3500000              0.0140340
    860.4740000              0.0690970
    242.1450000              0.2374520
     77.3349000              0.4830340
     26.2470000              0.3398560
SP   6   1.00
    491.7650000             -0.0022974              0.0039894
    116.9840000             -0.0307140              0.0303180
     37.4153000             -0.1125280              0.1298800
     13.7834000              0.0450160              0.3279510
      5.4521500              0.5893530              0.4535270
      2.2258800              0.4652060              0.2521540
SP   3   1.00
      3.1864900             -0.2518300             -0.0142990
      1.1442700              0.0615890              0.3235720
      0.4203770              1.0601800              0.7435070
SP   1   1.00
      0.1426570              1.0000000              1.0000000
D    1   1.00
      1.5000000              1.0000000
D    1   1.00
      0.3750000              1.0000000
F    1   1.00
      0.7000000              1.0000000
****
}

set {
reference uhf
freeze_core true
e_convergence 10
d_convergence 10
dft_spherical_points 1202
dft_radial_points 99
}

e = energy('b3lyp')

print_out('Grab this energy {0}'.format(e))
--------------------------------------------------------------------------

    Molecular point group: cs

    Geometry (in Bohr), charge = 0, multiplicity = 2:

       Center              X                  Y                   Z               Mass
    ------------   -----------------  -----------------  -----------------  -----------------
         C           -0.323662916039    -0.000141778441     0.000000000000    12.000000000000
         C            0.061304887561    -1.403490006541    -2.431450463600    12.000000000000
         C            0.061039909461     2.806701396859     0.000000000000    12.000000000000
         C            0.061304887561    -1.403490006541     2.431450463600    12.000000000000
         H            2.085116505861    -1.647142856741    -2.853378404500     1.007825032230
         H           -0.764427523039    -0.392122395841    -4.030149538000     1.007825032230
         H           -0.764747849239    -3.292639033041    -2.354549717200     1.007825032230
         H            2.091250544261     3.294554816759     0.000000000000     1.007825032230
         H           -0.768009625639     3.687129660859     1.680927537800     1.007825032230
         H           -0.768009625639     3.687129660859    -1.680927537800     1.007825032230
         H            2.085116505861    -1.647142856741     2.853378404500     1.007825032230
         H           -0.764747849239    -3.292639033041     2.354549717200     1.007825032230
         H           -0.764427523039    -0.392122395841     4.030149538000     1.007825032230

  Charge       = 0
  Multiplicity = 2
  Basis Set: ANONYMOUS8F0CAD71
    Blend: 6-31G_2DFP_
  Basis Set: (ANONYMOUS8F0CAD71 AUX)
    Blend: DEF2-UNIVERSAL-JKFIT

    Orbital Energies [Eh]
    ---------------------

    Alpha Occupied:

       1Ap   -10.181113     2Ap   -10.168046     1App  -10.167056
       3Ap   -10.167025     4Ap    -0.796722     2App   -0.686210
       5Ap    -0.685567     6Ap    -0.530777     7Ap    -0.440532
       8Ap    -0.434280     3App   -0.434105     4App   -0.382747
       9Ap    -0.382302     5App   -0.363730    10Ap    -0.337843
       6App   -0.337778    11Ap    -0.169286

    Alpha Virtual:

      12Ap     0.076100    13Ap     0.134103     7App    0.134111
       8App    0.142323    14Ap     0.142541    15Ap     0.154813
      16Ap     0.178284     9App    0.178926    17Ap     0.202437
      10App    0.214460    11App    0.275408    18Ap     0.275498
      19Ap     0.399166    12App    0.399329    20Ap     0.403548
      13App    0.424286    21Ap     0.424479    22Ap     0.456029
      23Ap     0.495094    14App    0.495234    15App    0.511828
      24Ap     0.513569    25Ap     0.577991    16App    0.578244
      26Ap     0.590771    17App    0.591389    27Ap     0.602142
      28Ap     0.624359    18App    0.631323    19App    0.635167
      29Ap     0.635836    30Ap     0.662754    20App    0.663114
      31Ap     0.683104    21App    0.683734    32Ap     0.735194
      22App    0.825155    33Ap     0.825958    23App    0.852911
      24App    0.914288    34Ap     0.914315    25App    0.942805
      35Ap     0.945181    26App    0.960082    36Ap     0.960598
      37Ap     1.002336    38Ap     1.126882    27App    1.127553
      39Ap     1.141881    28App    1.162410    40Ap     1.162568
      41Ap     1.222434    42Ap     1.273400    29App    1.273766
      43Ap     1.278834    30App    1.323655    44Ap     1.324378
      45Ap     1.355808    46Ap     1.363973    31App    1.364490
      32App    1.390940    47Ap     1.403925    33App    1.404705
      48Ap     1.416440    34App    1.417063    35App    1.426486
      36App    1.490296    49Ap     1.498514    37App    1.542037
      50Ap     1.542150    38App    1.572997    51Ap     1.573572
      52Ap     1.669870    39App    1.738696    53Ap     1.738840
      54Ap     1.766816    55Ap     1.828651    40App    1.831812
      41App    1.970330    56Ap     2.015895    42App    2.017819
      57Ap     2.018141    43App    2.048167    58Ap     2.048262
      44App    2.737439    59Ap     2.738325    60Ap     2.789762
      45App    2.808706    61Ap     2.888453    46App    2.889073
      62Ap     2.893458    47App    2.929206    63Ap     2.929445
      48App    2.958770    64Ap     2.964139    49App    2.965230
      65Ap     3.034050    66Ap     3.070151    50App    3.070532
      51App    3.082813    52App    3.167814    67Ap     3.168051
      68Ap     3.178741    53App    3.284729    69Ap     3.284854
      54App    3.326700    70Ap     3.326789    71Ap     3.376967
      55App    3.487515    72Ap     3.489201    56App    3.513234
      73Ap     3.522994    57App    3.568427    74Ap     3.568439
      58App    3.573101    75Ap     3.665595    59App    3.667173
      76Ap     3.677734    77Ap     3.692281    60App    3.693158
      78Ap     3.771755    61App    3.772942    79Ap     3.788418
      80Ap     3.909693    62App    3.910564    81Ap     4.032603
      82Ap     4.107616    63App    4.109227    64App    4.145255
      83Ap     4.149490    84Ap     4.172099    85Ap     4.198617
      65App    4.201257    86Ap     4.202781    66App    4.209540
      87Ap     4.313713    67App    4.315131    68App    4.356455
      69App    4.422063    88Ap     4.422647    70App    4.441138
      89Ap     4.513628    71App    4.514068    72App    4.574329
      90Ap     4.575153    91Ap     4.610243    92Ap     4.704718
      93Ap     4.768069    73App    4.768265    74App    4.832918
      94Ap     4.959850    95Ap     5.000803    75App    5.001916
      96Ap     5.226818    76App    5.241661    97Ap     5.249111
      98Ap     5.350074    77App    5.355936    78App    5.473735

    Beta Occupied:

       1Ap   -10.168807     1App  -10.167804     2Ap   -10.167803
       3Ap   -10.167253     4Ap    -0.780070     2App   -0.684032
       5Ap    -0.683390     6Ap    -0.511648     7Ap    -0.430680
       3App   -0.430484     8Ap    -0.421327     4App   -0.376878
       9Ap    -0.376415     5App   -0.362725    10Ap    -0.332954
       6App   -0.332904

    Beta Virtual:

      11Ap    -0.025775    12Ap     0.077098     7App    0.134950
      13Ap     0.135058     8App    0.144214    14Ap     0.144333
      15Ap     0.163229    16Ap     0.181938     9App    0.182562
      10App    0.214683    17Ap     0.217999    11App    0.281823
      18Ap     0.281919    19Ap     0.400300    12App    0.400470
      20Ap     0.420091    13App    0.427103    21Ap     0.427302
      22Ap     0.467583    23Ap     0.497340    14App    0.497481
      15App    0.513548    24Ap     0.555985    25Ap     0.583528
      16App    0.583796    26Ap     0.597035    17App    0.597606
      27Ap     0.609526    28Ap     0.627676    18App    0.631518
      19App    0.638353    29Ap     0.639028    30Ap     0.666346
      20App    0.666729    31Ap     0.685694    21App    0.686258
      32Ap     0.757895    22App    0.830279    33Ap     0.831137
      23App    0.854229    24App    0.922248    34Ap     0.922270
      25App    0.944639    35Ap     0.954199    26App    0.965391
      36Ap     0.965851    37Ap     1.007654    38Ap     1.130897
      27App    1.131597    39Ap     1.155245    28App    1.167466
      40Ap     1.167653    41Ap     1.231267    42Ap     1.278956
      29App    1.279327    43Ap     1.284652    30App    1.328600
      44Ap     1.329418    45Ap     1.365184    46Ap     1.369247
      31App    1.369728    32App    1.391989    47Ap     1.407407
      33App    1.408221    48Ap     1.421389    34App    1.422101
      35App    1.426722    36App    1.491346    49Ap     1.508893
      37App    1.546455    50Ap     1.546659    38App    1.580808
      51Ap     1.581367    52Ap     1.674708    39App    1.744471
      53Ap     1.744588    54Ap     1.777570    55Ap     1.832518
      40App    1.835620    41App    1.971190    42App    2.024282
      56Ap     2.024342    57Ap     2.037316    43App    2.054784
      58Ap     2.055022    44App    2.745856    59Ap     2.746771
      45App    2.809113    60Ap     2.814917    61Ap     2.901464
      46App    2.901901    62Ap     2.923070    47App    2.931573
      63Ap     2.931726    48App    2.959821    64Ap     2.968589
      49App    2.969753    65Ap     3.041896    66Ap     3.079919
      50App    3.080365    51App    3.084660    52App    3.183635
      67Ap     3.183913    68Ap     3.186509    53App    3.289327
      69Ap     3.289503    54App    3.330600    70Ap     3.330648
      71Ap     3.384803    55App    3.490293    72Ap     3.491918
      56App    3.511608    73Ap     3.526090    57App    3.572828
      74Ap     3.581791    58App    3.581828    75Ap     3.670400
      59App    3.672088    76Ap     3.691068    77Ap     3.724060
      60App    3.724961    78Ap     3.776275    61App    3.777395
      79Ap     3.817097    80Ap     3.919515    62App    3.920362
      81Ap     4.043554    82Ap     4.114904    63App    4.116094
      64App    4.152486    83Ap     4.156343    84Ap     4.186038
      85Ap     4.205066    65App    4.207245    86Ap     4.210122
      66App    4.213949    87Ap     4.321243    67App    4.322413
      68App    4.359841    69App    4.430179    88Ap     4.430703
      70App    4.444054    89Ap     4.521353    71App    4.521672
      72App    4.584955    90Ap     4.585688    91Ap     4.617449
      92Ap     4.714981    93Ap     4.774987    73App    4.775247
      74App    4.835836    94Ap     4.964623    95Ap     5.004819
      75App    5.005899    96Ap     5.232492    76App    5.243435
      97Ap     5.250890    98Ap     5.356510    77App    5.362348
      78App    5.476034

    Final Occupation by Irrep:
             Ap   App
    DOCC [    10,    6 ]
    SOCC [     1,    0 ]

  @DF-UKS Final Energy:  -157.81305825823233

   => Energetics <=

    Nuclear Repulsion Energy =            125.2136993470951296
    One-Electron Energy =                -458.3926356990332351
    Two-Electron Energy =                 195.6692333246045052
    DFT Exchange-Correlation Energy =     -20.3033552308987417
    Empirical Dispersion Energy =           0.0000000000000000
    VV10 Nonlocal Energy =                  0.0000000000000000
    Total Energy =                       -157.8130582582323314

  UHF NO Occupations:
  HONO-2 :    9 Ap 1.9996026
  HONO-1 :   10 Ap 1.9989734
  HONO-0 :   11 Ap 1.0000000
  LUNO+0 :   12 Ap 0.0010266
  LUNO+1 :   13 Ap 0.0003974
  LUNO+2 :   14 Ap 0.0001998
  LUNO+3 :    7App 0.0001997

Computation Completed

Properties will be evaluated at   0.000000,   0.000000,   0.000000 [a0]

Properties computed using the SCF density matrix

  Nuclear Dipole Moment: [e a0]
     X:     0.8270      Y:     0.0025      Z:     0.0000

  Electronic Dipole Moment: [e a0]
     X:    -0.7483      Y:    -0.0049      Z:     0.0000

  Dipole Moment: [e a0]
     X:     0.0788      Y:    -0.0024      Z:     0.0000     Total:     0.0788

  Dipole Moment: [D]
     X:     0.2002      Y:    -0.0062      Z:     0.0000     Total:     0.2003

*** tstop() called on n032 at Fri Nov  5 15:15:15 2021
Module time:
	user time   =     806.88 seconds =      13.45 minutes
	system time =      15.62 seconds =       0.26 minutes
	total time  =        207 seconds =       3.45 minutes
Total time:
	user time   =     806.88 seconds =      13.45 minutes
	system time =      15.62 seconds =       0.26 minutes
	total time  =        207 seconds =       3.45 minutes
Grab this energy -157.81305825823233
    Psi4 stopped on: Friday, 05 November 2021 03:15PM
    Psi4 wall time for execution: 0:03:26.57

*** Psi4 exiting successfully. Buy a developer a beer!
