                               Psi4 1.4a2.dev629

  ==> Input File <==

--------------------------------------------------------------------------
import os
memory 14 GB

molecule {
 C   -0.3233520167   -0.0000017870   -0.0002457125
 C    0.0599932201   -1.4001748289   -2.4250154589
 C    0.0608372349    2.8001209479    0.0001481811
 C    0.0619221405   -1.3999394864    2.4249043503
 H    2.0840716528   -1.6425105202   -2.8428427595
 H   -0.7662228658   -0.3893129273   -4.0279251181
 H   -0.7673454939   -3.2937809014   -2.3526717087
 H    2.0867445018    3.2886034086    0.0018511940
 H   -0.7664868900    3.6821576307    1.6758200801
 H   -0.7645649116    3.6793205648   -1.6769681218
 H    2.0896842092   -1.6461877483    2.8529144540
 H   -0.7635448171   -3.2905170546    2.3462554591
 H   -0.7643438409   -0.3878016115    4.0237751609
units bohr
0 2
}

basis {

assign 6-31g_2dfp_

[ 6-31g_2dfp_ ]

spherical

!----------------------------------------------------------------------
! Basis Set Exchange
! Version v0.8.13
! https://www.basissetexchange.org
!----------------------------------------------------------------------
!   Basis set: 6-31G(2df,p)
! Description: 6-31G(2df,p)
!        Role: orbital
!     Version: 0  (Data from the original Basis Set Exchange)
!----------------------------------------------------------------------

****
H     0
S    3   1.00
     18.7311370              0.03349460
      2.8253937              0.23472695
      0.6401217              0.81375733
S    1   1.00
      0.1612778              1.00000000
P    1   1.00
      1.5000000              1.0000000
P    1   1.00
      0.3750000              1.0000000
****
B     0
S    6   1.00
   2068.8823000              0.0018663
    310.6495700              0.0142515
     70.6830330              0.0695516
     19.8610800              0.2325729
      6.2993048              0.4670787
      2.1270270              0.3634314
SP   3   1.00
      4.7279710             -0.1303938              0.0745976
      1.1903377             -0.1307889              0.3078467
      0.3594117              1.1309444              0.7434568
SP   1   1.00
      0.1267512              1.0000000              1.0000000
D    1   1.00
      0.8020000              1.0000000
D    1   1.00
      0.2005000              1.0000000
F    1   1.00
      0.5000000              1.0000000
****
C     0
S    6   1.00
   3047.5249000              0.0018347
    457.3695100              0.0140373
    103.9486900              0.0688426
     29.2101550              0.2321844
      9.2866630              0.4679413
      3.1639270              0.3623120
SP   3   1.00
      7.8682724             -0.1193324              0.0689991
      1.8812885             -0.1608542              0.3164240
      0.5442493              1.1434564              0.7443083
SP   1   1.00
      0.1687144              1.0000000              1.0000000
D    1   1.00
      1.2520000              1.0000000
D    1   1.00
      0.3130000              1.0000000
F    1   1.00
      0.8000000              1.0000000
****
N     0
S    6   1.00
   4173.5110000              0.0018348
    627.4579000              0.0139950
    142.9021000              0.0685870
     40.2343300              0.2322410
     12.8202100              0.4690700
      4.3904370              0.3604550
SP   3   1.00
     11.6263580             -0.1149610              0.0675800
      2.7162800             -0.1691180              0.3239070
      0.7722180              1.1458520              0.7408950
SP   1   1.00
      0.2120313              1.0000000              1.0000000
D    1   1.00
      1.8260000              1.0000000
D    1   1.00
      0.4565000              1.0000000
F    1   1.00
      1.0000000              1.0000000
****
O     0
S    6   1.00
   5484.6717000              0.0018311
    825.2349500              0.0139501
    188.0469600              0.0684451
     52.9645000              0.2327143
     16.8975700              0.4701930
      5.7996353              0.3585209
SP   3   1.00
     15.5396160             -0.1107775              0.0708743
      3.5999336             -0.1480263              0.3397528
      1.0137618              1.1307670              0.7271586
SP   1   1.00
      0.2700058              1.0000000              1.0000000
D    1   1.00
      2.5840000              1.0000000
D    1   1.00
      0.6460000              1.0000000
F    1   1.00
      1.4000000              1.0000000
****
F     0
S    6   1.00
   7001.7130900              0.0018196169
   1051.3660900              0.0139160796
    239.2856900              0.0684053245
     67.3974453              0.233185760
     21.5199573              0.471267439
      7.40310130             0.356618546
SP   3   1.00
     20.8479528             -0.108506975            0.0716287243
      4.80830834            -0.146451658            0.3459121030
      1.34406986             1.128688580            0.7224699570
SP   1   1.00
      0.358151393            1.0000000              1.0000000
D    1   1.00
      3.5000000              1.0000000
D    1   1.00
      0.8750000              1.0000000
F    1   1.00
      1.8500000              1.0000000
****
Al     0
S    6   1.00
  13983.1000000              0.00194267
   2098.7500000              0.0148599
    477.7050000              0.0728494
    134.3600000              0.2468300
     42.8709000              0.4872580
     14.5189000              0.3234960
SP   6   1.00
    239.6680000             -0.00292619             0.00460285
     57.4419000             -0.0374080              0.0331990
     18.2859000             -0.1144870              0.1362820
      6.5991400              0.1156350              0.3304760
      2.4904900              0.6125950              0.4491460
      0.9445400              0.3937990              0.2657040
SP   3   1.00
      1.2779000             -0.2276060             -0.0175130
      0.3975900              0.00144583             0.2445330
      0.1600950              1.0927900              0.8049340
SP   1   1.00
      0.0556577              1.0000000              1.0000000
D    1   1.00
      0.6500000              1.0000000
D    1   1.00
      0.1625000              1.0000000
F    1   1.00
      0.2500000              1.0000000
****
Si     0
S    6   1.00
  16115.9000000              0.00195948
   2425.5800000              0.01492880
    553.8670000              0.07284780
    156.3400000              0.24613000
     50.0683000              0.48591400
     17.0178000              0.32500200
SP   6   1.00
    292.7180000             -0.00278094             0.00443826
     69.8731000             -0.03571460             0.03266790
     22.3363000             -0.11498500             0.13472100
      8.1503900              0.09356340             0.32867800
      3.1345800              0.60301700             0.44964000
      1.2254300              0.41895900             0.26137200
SP   3   1.00
      1.7273800             -0.24463000            -0.01779510
      0.5729220              0.00431572             0.25353900
      0.2221920              1.09818000             0.80066900
SP   1   1.00
      0.0778369              1.00000000             1.00000000
D    1   1.00
      0.9000000              1.0000000
D    1   1.00
      0.2250000              1.0000000
F    1   1.00
      0.3200000              1.0000000
****
P     0
S    6   1.00
  19413.3000000              0.0018516
   2909.4200000              0.0142062
    661.3640000              0.0699995
    185.7590000              0.2400790
     59.1943000              0.4847620
     20.0310000              0.3352000
SP   6   1.00
    339.4780000             -0.00278217             0.00456462
     81.0101000             -0.0360499              0.03369360
     25.8780000             -0.1166310              0.13975500
      9.4522100              0.0968328              0.33936200
      3.6656600              0.6144180              0.45092100
      1.4674600              0.4037980              0.23858600
SP   3   1.00
      2.1562300             -0.2529230             -0.01776530
      0.7489970              0.0328517              0.27405800
      0.2831450              1.0812500              0.78542100
SP   1   1.00
      0.0998317              1.0000000              1.00000000
D    1   1.00
      1.1000000              1.0000000
D    1   1.00
      0.2750000              1.0000000
F    1   1.00
      0.4500000              1.0000000
****
S     0
S    6   1.00
  21917.1000000              0.0018690
   3301.4900000              0.0142300
    754.1460000              0.0696960
    212.7110000              0.2384870
     67.9896000              0.4833070
     23.0515000              0.3380740
SP   6   1.00
    423.7350000             -0.0023767              0.0040610
    100.7100000             -0.0316930              0.0306810
     32.1599000             -0.1133170              0.1304520
     11.8079000              0.0560900              0.3272050
      4.6311000              0.5922550              0.4528510
      1.8702500              0.4550060              0.2560420
SP   3   1.00
      2.6158400             -0.2503740             -0.0145110
      0.9221670              0.0669570              0.3102630
      0.3412870              1.0545100              0.7544830
SP   1   1.00
      0.1171670              1.0000000              1.0000000
D    1   1.00
      1.3000000              1.0000000
D    1   1.00
      0.3250000              1.0000000
F    1   1.00
      0.5500000              1.0000000
****
Cl     0
S    6   1.00
  25180.1000000              0.0018330
   3780.3500000              0.0140340
    860.4740000              0.0690970
    242.1450000              0.2374520
     77.3349000              0.4830340
     26.2470000              0.3398560
SP   6   1.00
    491.7650000             -0.0022974              0.0039894
    116.9840000             -0.0307140              0.0303180
     37.4153000             -0.1125280              0.1298800
     13.7834000              0.0450160              0.3279510
      5.4521500              0.5893530              0.4535270
      2.2258800              0.4652060              0.2521540
SP   3   1.00
      3.1864900             -0.2518300             -0.0142990
      1.1442700              0.0615890              0.3235720
      0.4203770              1.0601800              0.7435070
SP   1   1.00
      0.1426570              1.0000000              1.0000000
D    1   1.00
      1.5000000              1.0000000
D    1   1.00
      0.3750000              1.0000000
F    1   1.00
      0.7000000              1.0000000
****
}

set {
reference uhf
freeze_core true
e_convergence 10
d_convergence 10
dft_spherical_points 1202
dft_radial_points 99
}

e = energy('b3lyp')

print_out('Grab this energy {0}'.format(e))
--------------------------------------------------------------------------

    Molecular point group: c1

    Geometry (in Bohr), charge = 0, multiplicity = 2:

       Center              X                  Y                   Z               Mass
    ------------   -----------------  -----------------  -----------------  -----------------
         C           -0.323244265228    -0.000002290936    -0.000205526933    12.000000000000
         C            0.060100971572    -1.400175332836    -2.424975273333    12.000000000000
         C            0.060944986372     2.800120443964     0.000188366667    12.000000000000
         C            0.062029891972    -1.399939990336     2.424944535867    12.000000000000
         H            2.084179404272    -1.642511024136    -2.842802573933     1.007825032230
         H           -0.766115114328    -0.389313431236    -4.027884932533     1.007825032230
         H           -0.767237742428    -3.293781405336    -2.352631523133     1.007825032230
         H            2.086852253272     3.288602904664     0.001891379567     1.007825032230
         H           -0.766379138528     3.682157126764     1.675860265667     1.007825032230
         H           -0.764457160128     3.679320060864    -1.676927936233     1.007825032230
         H            2.089791960672    -1.646188252236     2.852954639567     1.007825032230
         H           -0.763437065628    -3.290517558536     2.346295644667     1.007825032230
         H           -0.764236089428    -0.387802115436     4.023815346467     1.007825032230

  Charge       = 0
  Multiplicity = 2
  Basis Set: ANONYMOUS02193713
    Blend: 6-31G_2DFP_
  Basis Set: (ANONYMOUS02193713 AUX)
    Blend: DEF2-UNIVERSAL-JKFIT

    Orbital Energies [Eh]
    ---------------------

    Alpha Occupied:

       1A    -10.180291     2A    -10.167104     3A    -10.167072
       4A    -10.167026     5A     -0.798024     6A     -0.686226
       7A     -0.686167     8A     -0.530942     9A     -0.441135
      10A     -0.434826    11A     -0.434654    12A     -0.382685
      13A     -0.382235    14A     -0.363409    15A     -0.338312
      16A     -0.338005    17A     -0.168982

    Alpha Virtual:

      18A      0.076065    19A      0.134048    20A      0.134146
      21A      0.142288    22A      0.142700    23A      0.154986
      24A      0.178476    25A      0.178746    26A      0.203840
      27A      0.214678    28A      0.276206    29A      0.276247
      30A      0.399096    31A      0.399348    32A      0.403253
      33A      0.423941    34A      0.424147    35A      0.456776
      36A      0.495369    37A      0.495390    38A      0.512106
      39A      0.513923    40A      0.578645    41A      0.578892
      42A      0.591272    43A      0.591778    44A      0.602558
      45A      0.624644    46A      0.631521    47A      0.636099
      48A      0.636534    49A      0.663487    50A      0.663569
      51A      0.683724    52A      0.683951    53A      0.734861
      54A      0.825368    55A      0.825487    56A      0.854052
      57A      0.914665    58A      0.915300    59A      0.944155
      60A      0.944925    61A      0.961156    62A      0.961317
      63A      1.003282    64A      1.127783    65A      1.128591
      66A      1.142621    67A      1.162504    68A      1.162828
      69A      1.223754    70A      1.274510    71A      1.274713
      72A      1.279533    73A      1.324482    74A      1.324628
      75A      1.356312    76A      1.366193    77A      1.366210
      78A      1.391958    79A      1.402842    80A      1.403811
      81A      1.416745    82A      1.417427    83A      1.427673
      84A      1.492024    85A      1.498479    86A      1.542981
      87A      1.543008    88A      1.574073    89A      1.575038
      90A      1.669045    91A      1.739819    92A      1.740004
      93A      1.768305    94A      1.830547    95A      1.831401
      96A      1.972321    97A      2.018082    98A      2.019717
      99A      2.019873   100A      2.052613   101A      2.053538
     102A      2.738654   103A      2.738672   104A      2.791149
     105A      2.811516   106A      2.889884   107A      2.890209
     108A      2.895380   109A      2.929030   110A      2.929642
     111A      2.958940   112A      2.964171   113A      2.964533
     114A      3.034177   115A      3.070590   116A      3.071877
     117A      3.084756   118A      3.168657   119A      3.169114
     120A      3.181174   121A      3.284870   122A      3.285096
     123A      3.326535   124A      3.328283   125A      3.375518
     126A      3.489181   127A      3.491310   128A      3.514154
     129A      3.525681   130A      3.568451   131A      3.568663
     132A      3.575162   133A      3.665128   134A      3.666033
     135A      3.679094   136A      3.693382   137A      3.694663
     138A      3.776784   139A      3.776924   140A      3.788876
     141A      3.913203   142A      3.913458   143A      4.035009
     144A      4.110961   145A      4.111221   146A      4.148082
     147A      4.148147   148A      4.173927   149A      4.202982
     150A      4.203676   151A      4.204367   152A      4.211194
     153A      4.315641   154A      4.316028   155A      4.358339
     156A      4.423207   157A      4.423388   158A      4.441447
     159A      4.516539   160A      4.517787   161A      4.578978
     162A      4.579020   163A      4.617958   164A      4.710684
     165A      4.774794   166A      4.775994   167A      4.838234
     168A      4.961555   169A      5.001537   170A      5.002621
     171A      5.227539   172A      5.245981   173A      5.247077
     174A      5.355619   175A      5.355719   176A      5.480565

    Beta Occupied:

       1A    -10.167858     2A    -10.167831     3A    -10.167798
       4A    -10.166479     5A     -0.781334     6A     -0.684018
       7A     -0.683969     8A     -0.511959     9A     -0.431189
      10A     -0.430994    11A     -0.421791    12A     -0.376760
      13A     -0.376298    14A     -0.362389    15A     -0.333438
      16A     -0.333154

    Beta Virtual:

      17A     -0.025913    18A      0.077077    19A      0.134953
      20A      0.135037    21A      0.144183    22A      0.144550
      23A      0.163487    24A      0.182158    25A      0.182437
      26A      0.214910    27A      0.219172    28A      0.282529
      29A      0.282580    30A      0.400276    31A      0.400519
      32A      0.419708    33A      0.426752    34A      0.426961
      35A      0.468760    36A      0.497636    37A      0.497660
      38A      0.513850    39A      0.556236    40A      0.584188
      41A      0.584448    42A      0.597438    43A      0.597955
      44A      0.609971    45A      0.628057    46A      0.631690
      47A      0.639400    48A      0.639830    49A      0.667044
      50A      0.667143    51A      0.686386    52A      0.686580
      53A      0.757308    54A      0.830555    55A      0.830668
      56A      0.855417    57A      0.922660    58A      0.923244
      59A      0.946001    60A      0.953863    61A      0.966485
      62A      0.966619    63A      1.008512    64A      1.131849
      65A      1.132566    66A      1.156031    67A      1.167537
      68A      1.167929    69A      1.232667    70A      1.280154
      71A      1.280330    72A      1.285262    73A      1.329488
      74A      1.329644    75A      1.365724    76A      1.371363
      77A      1.371419    78A      1.393025    79A      1.406333
      80A      1.407317    81A      1.421795    82A      1.422466
      83A      1.427944    84A      1.493085    85A      1.508941
      86A      1.547330    87A      1.547527    88A      1.581833
      89A      1.582980    90A      1.673886    91A      1.745582
      92A      1.745761    93A      1.779124    94A      1.834432
      95A      1.835277    96A      1.973188    97A      2.026200
      98A      2.026315    99A      2.039460   100A      2.059276
     101A      2.060227   102A      2.746946   103A      2.746988
     104A      2.811927   105A      2.816251   106A      2.902520
     107A      2.902893   108A      2.925099   109A      2.931553
     110A      2.932142   111A      2.960005   112A      2.968744
     113A      2.969106   114A      3.042154   115A      3.080501
     116A      3.081875   117A      3.086581   118A      3.184316
     119A      3.184777   120A      3.188821   121A      3.289680
     122A      3.289982   123A      3.330346   124A      3.332070
     125A      3.383369   126A      3.491942   127A      3.494027
     128A      3.512517   129A      3.528689   130A      3.574761
     131A      3.581815   132A      3.582100   133A      3.669724
     134A      3.670593   135A      3.692379   136A      3.725366
     137A      3.726165   138A      3.781402   139A      3.781491
     140A      3.817352   141A      3.922976   142A      3.923242
     143A      4.045818   144A      4.117901   145A      4.118106
     146A      4.155155   147A      4.155384   148A      4.188040
     149A      4.209254   150A      4.209935   151A      4.211717
     152A      4.215684   153A      4.323018   154A      4.323348
     155A      4.361722   156A      4.431478   157A      4.431681
     158A      4.444330   159A      4.524401   160A      4.525633
     161A      4.589582   162A      4.589655   163A      4.625170
     164A      4.721030   165A      4.781716   166A      4.782976
     167A      4.841148   168A      4.966371   169A      5.005614
     170A      5.006668   171A      5.233272   172A      5.247777
     173A      5.248869   174A      5.362135   175A      5.362221
     176A      5.482894

    Final Occupation by Irrep:
              A
    DOCC [    16 ]
    SOCC [     1 ]

  @DF-UKS Final Energy:  -157.81308788658629

   => Energetics <=

    Nuclear Repulsion Energy =            125.4225664480163545
    One-Electron Energy =                -458.8038829666766674
    Two-Electron Energy =                 195.8752558804116291
    DFT Exchange-Correlation Energy =     -20.3070272483376080
    Empirical Dispersion Energy =           0.0000000000000000
    VV10 Nonlocal Energy =                  0.0000000000000000
    Total Energy =                       -157.8130878865862883

  UHF NO Occupations:
  HONO-2 :   15  A 1.9995992
  HONO-1 :   16  A 1.9989827
  HONO-0 :   17  A 1.0000000
  LUNO+0 :   18  A 0.0010173
  LUNO+1 :   19  A 0.0004008
  LUNO+2 :   20  A 0.0001969
  LUNO+3 :   21  A 0.0001966

Computation Completed

Properties will be evaluated at   0.000000,   0.000000,   0.000000 [a0]

Properties computed using the SCF density matrix

  Nuclear Dipole Moment: [e a0]
     X:     0.8280      Y:    -0.0000      Z:     0.0003

  Electronic Dipole Moment: [e a0]
     X:    -0.7502      Y:     0.0000      Z:    -0.0010

  Dipole Moment: [e a0]
     X:     0.0778      Y:     0.0000      Z:    -0.0008     Total:     0.0778

  Dipole Moment: [D]
     X:     0.1977      Y:     0.0000      Z:    -0.0019     Total:     0.1977

*** tstop() called on n079 at Fri Nov  5 13:24:16 2021
Module time:
	user time   =     468.15 seconds =       7.80 minutes
	system time =       4.28 seconds =       0.07 minutes
	total time  =        119 seconds =       1.98 minutes
Total time:
	user time   =     468.15 seconds =       7.80 minutes
	system time =       4.28 seconds =       0.07 minutes
	total time  =        119 seconds =       1.98 minutes
Grab this energy -157.8130878865863
    Psi4 stopped on: Friday, 05 November 2021 01:24PM
    Psi4 wall time for execution: 0:01:58.84

*** Psi4 exiting successfully. Buy a developer a beer!
