                               Psi4 1.4a2.dev629

  ==> Input File <==

--------------------------------------------------------------------------
import os
memory 14 GB

molecule {
 C   -0.3215590201    0.0053438792   -0.0000000000
 C    0.0617724502   -1.3999050974   -2.4266084130
 C    0.0614305258    2.8015604721   -0.0000000000
 C    0.0617724502   -1.3999050974    2.4266084130
 H    2.0864819576   -1.6480162220   -2.8524876683
 H   -0.7665662572   -0.3866782830   -4.0222627430
 H   -0.7652794333   -3.2918316466   -2.3466889358
 H    2.0867022170    3.2935380960    0.0000000000
 H   -0.7659995171    3.6761978686    1.6774490922
 H   -0.7659995171    3.6761978686   -1.6774490922
 H    2.0864819576   -1.6480162220    2.8524876683
 H   -0.7652794333   -3.2918316466    2.3466889358
 H   -0.7665662572   -0.3866782830    4.0222627430
units bohr
0 2
}

basis {

assign 6-31g_2dfp_

[ 6-31g_2dfp_ ]

spherical

!----------------------------------------------------------------------
! Basis Set Exchange
! Version v0.8.13
! https://www.basissetexchange.org
!----------------------------------------------------------------------
!   Basis set: 6-31G(2df,p)
! Description: 6-31G(2df,p)
!        Role: orbital
!     Version: 0  (Data from the original Basis Set Exchange)
!----------------------------------------------------------------------

****
H     0
S    3   1.00
     18.7311370              0.03349460
      2.8253937              0.23472695
      0.6401217              0.81375733
S    1   1.00
      0.1612778              1.00000000
P    1   1.00
      1.5000000              1.0000000
P    1   1.00
      0.3750000              1.0000000
****
B     0
S    6   1.00
   2068.8823000              0.0018663
    310.6495700              0.0142515
     70.6830330              0.0695516
     19.8610800              0.2325729
      6.2993048              0.4670787
      2.1270270              0.3634314
SP   3   1.00
      4.7279710             -0.1303938              0.0745976
      1.1903377             -0.1307889              0.3078467
      0.3594117              1.1309444              0.7434568
SP   1   1.00
      0.1267512              1.0000000              1.0000000
D    1   1.00
      0.8020000              1.0000000
D    1   1.00
      0.2005000              1.0000000
F    1   1.00
      0.5000000              1.0000000
****
C     0
S    6   1.00
   3047.5249000              0.0018347
    457.3695100              0.0140373
    103.9486900              0.0688426
     29.2101550              0.2321844
      9.2866630              0.4679413
      3.1639270              0.3623120
SP   3   1.00
      7.8682724             -0.1193324              0.0689991
      1.8812885             -0.1608542              0.3164240
      0.5442493              1.1434564              0.7443083
SP   1   1.00
      0.1687144              1.0000000              1.0000000
D    1   1.00
      1.2520000              1.0000000
D    1   1.00
      0.3130000              1.0000000
F    1   1.00
      0.8000000              1.0000000
****
N     0
S    6   1.00
   4173.5110000              0.0018348
    627.4579000              0.0139950
    142.9021000              0.0685870
     40.2343300              0.2322410
     12.8202100              0.4690700
      4.3904370              0.3604550
SP   3   1.00
     11.6263580             -0.1149610              0.0675800
      2.7162800             -0.1691180              0.3239070
      0.7722180              1.1458520              0.7408950
SP   1   1.00
      0.2120313              1.0000000              1.0000000
D    1   1.00
      1.8260000              1.0000000
D    1   1.00
      0.4565000              1.0000000
F    1   1.00
      1.0000000              1.0000000
****
O     0
S    6   1.00
   5484.6717000              0.0018311
    825.2349500              0.0139501
    188.0469600              0.0684451
     52.9645000              0.2327143
     16.8975700              0.4701930
      5.7996353              0.3585209
SP   3   1.00
     15.5396160             -0.1107775              0.0708743
      3.5999336             -0.1480263              0.3397528
      1.0137618              1.1307670              0.7271586
SP   1   1.00
      0.2700058              1.0000000              1.0000000
D    1   1.00
      2.5840000              1.0000000
D    1   1.00
      0.6460000              1.0000000
F    1   1.00
      1.4000000              1.0000000
****
F     0
S    6   1.00
   7001.7130900              0.0018196169
   1051.3660900              0.0139160796
    239.2856900              0.0684053245
     67.3974453              0.233185760
     21.5199573              0.471267439
      7.40310130             0.356618546
SP   3   1.00
     20.8479528             -0.108506975            0.0716287243
      4.80830834            -0.146451658            0.3459121030
      1.34406986             1.128688580            0.7224699570
SP   1   1.00
      0.358151393            1.0000000              1.0000000
D    1   1.00
      3.5000000              1.0000000
D    1   1.00
      0.8750000              1.0000000
F    1   1.00
      1.8500000              1.0000000
****
Al     0
S    6   1.00
  13983.1000000              0.00194267
   2098.7500000              0.0148599
    477.7050000              0.0728494
    134.3600000              0.2468300
     42.8709000              0.4872580
     14.5189000              0.3234960
SP   6   1.00
    239.6680000             -0.00292619             0.00460285
     57.4419000             -0.0374080              0.0331990
     18.2859000             -0.1144870              0.1362820
      6.5991400              0.1156350              0.3304760
      2.4904900              0.6125950              0.4491460
      0.9445400              0.3937990              0.2657040
SP   3   1.00
      1.2779000             -0.2276060             -0.0175130
      0.3975900              0.00144583             0.2445330
      0.1600950              1.0927900              0.8049340
SP   1   1.00
      0.0556577              1.0000000              1.0000000
D    1   1.00
      0.6500000              1.0000000
D    1   1.00
      0.1625000              1.0000000
F    1   1.00
      0.2500000              1.0000000
****
Si     0
S    6   1.00
  16115.9000000              0.00195948
   2425.5800000              0.01492880
    553.8670000              0.07284780
    156.3400000              0.24613000
     50.0683000              0.48591400
     17.0178000              0.32500200
SP   6   1.00
    292.7180000             -0.00278094             0.00443826
     69.8731000             -0.03571460             0.03266790
     22.3363000             -0.11498500             0.13472100
      8.1503900              0.09356340             0.32867800
      3.1345800              0.60301700             0.44964000
      1.2254300              0.41895900             0.26137200
SP   3   1.00
      1.7273800             -0.24463000            -0.01779510
      0.5729220              0.00431572             0.25353900
      0.2221920              1.09818000             0.80066900
SP   1   1.00
      0.0778369              1.00000000             1.00000000
D    1   1.00
      0.9000000              1.0000000
D    1   1.00
      0.2250000              1.0000000
F    1   1.00
      0.3200000              1.0000000
****
P     0
S    6   1.00
  19413.3000000              0.0018516
   2909.4200000              0.0142062
    661.3640000              0.0699995
    185.7590000              0.2400790
     59.1943000              0.4847620
     20.0310000              0.3352000
SP   6   1.00
    339.4780000             -0.00278217             0.00456462
     81.0101000             -0.0360499              0.03369360
     25.8780000             -0.1166310              0.13975500
      9.4522100              0.0968328              0.33936200
      3.6656600              0.6144180              0.45092100
      1.4674600              0.4037980              0.23858600
SP   3   1.00
      2.1562300             -0.2529230             -0.01776530
      0.7489970              0.0328517              0.27405800
      0.2831450              1.0812500              0.78542100
SP   1   1.00
      0.0998317              1.0000000              1.00000000
D    1   1.00
      1.1000000              1.0000000
D    1   1.00
      0.2750000              1.0000000
F    1   1.00
      0.4500000              1.0000000
****
S     0
S    6   1.00
  21917.1000000              0.0018690
   3301.4900000              0.0142300
    754.1460000              0.0696960
    212.7110000              0.2384870
     67.9896000              0.4833070
     23.0515000              0.3380740
SP   6   1.00
    423.7350000             -0.0023767              0.0040610
    100.7100000             -0.0316930              0.0306810
     32.1599000             -0.1133170              0.1304520
     11.8079000              0.0560900              0.3272050
      4.6311000              0.5922550              0.4528510
      1.8702500              0.4550060              0.2560420
SP   3   1.00
      2.6158400             -0.2503740             -0.0145110
      0.9221670              0.0669570              0.3102630
      0.3412870              1.0545100              0.7544830
SP   1   1.00
      0.1171670              1.0000000              1.0000000
D    1   1.00
      1.3000000              1.0000000
D    1   1.00
      0.3250000              1.0000000
F    1   1.00
      0.5500000              1.0000000
****
Cl     0
S    6   1.00
  25180.1000000              0.0018330
   3780.3500000              0.0140340
    860.4740000              0.0690970
    242.1450000              0.2374520
     77.3349000              0.4830340
     26.2470000              0.3398560
SP   6   1.00
    491.7650000             -0.0022974              0.0039894
    116.9840000             -0.0307140              0.0303180
     37.4153000             -0.1125280              0.1298800
     13.7834000              0.0450160              0.3279510
      5.4521500              0.5893530              0.4535270
      2.2258800              0.4652060              0.2521540
SP   3   1.00
      3.1864900             -0.2518300             -0.0142990
      1.1442700              0.0615890              0.3235720
      0.4203770              1.0601800              0.7435070
SP   1   1.00
      0.1426570              1.0000000              1.0000000
D    1   1.00
      1.5000000              1.0000000
D    1   1.00
      0.3750000              1.0000000
F    1   1.00
      0.7000000              1.0000000
****
}

set {
reference uhf
freeze_core true
e_convergence 10
d_convergence 10
dft_spherical_points 1202
dft_radial_points 99
}

e = energy('b3lyp')

print_out('Grab this energy {0}'.format(e))
--------------------------------------------------------------------------

    Molecular point group: cs

    Geometry (in Bohr), charge = 0, multiplicity = 2:

       Center              X                  Y                   Z               Mass
    ------------   -----------------  -----------------  -----------------  -----------------
         C           -0.322224745887     0.003977922921     0.000000000000    12.000000000000
         C            0.061106724413    -1.401271053679    -2.426608413000    12.000000000000
         C            0.060764800013     2.800194515821     0.000000000000    12.000000000000
         C            0.061106724413    -1.401271053679     2.426608413000    12.000000000000
         H            2.085816231813    -1.649382178279    -2.852487668300     1.007825032230
         H           -0.767231982987    -0.388044239279    -4.022262743000     1.007825032230
         H           -0.765945159087    -3.293197602879    -2.346688935800     1.007825032230
         H            2.086036491213     3.292172139721     0.000000000000     1.007825032230
         H           -0.766665242887     3.674831912321     1.677449092200     1.007825032230
         H           -0.766665242887     3.674831912321    -1.677449092200     1.007825032230
         H            2.085816231813    -1.649382178279     2.852487668300     1.007825032230
         H           -0.765945159087    -3.293197602879     2.346688935800     1.007825032230
         H           -0.767231982987    -0.388044239279     4.022262743000     1.007825032230

  Charge       = 0
  Multiplicity = 2
  Basis Set: ANONYMOUS13A7A8A8
    Blend: 6-31G_2DFP_
  Basis Set: (ANONYMOUS13A7A8A8 AUX)
    Blend: DEF2-UNIVERSAL-JKFIT

    Orbital Energies [Eh]
    ---------------------

    Alpha Occupied:

       1Ap   -10.180329     1App  -10.167000     2Ap   -10.166980
       3Ap   -10.166925     4Ap    -0.797834     5Ap    -0.686413
       2App   -0.686035     6Ap    -0.530787     7Ap    -0.440961
       3App   -0.435099     8Ap    -0.434662     9Ap    -0.382566
       4App   -0.382331     5App   -0.363747    10Ap    -0.338539
       6App   -0.337501    11Ap    -0.169050

    Alpha Virtual:

      12Ap     0.076108    13Ap     0.134091     7App    0.134122
       8App    0.142520    14Ap     0.142868    15Ap     0.155085
       9App    0.178735    16Ap     0.178751    17Ap     0.203676
      10App    0.215024    11App    0.275734    18Ap     0.276313
      12App    0.399332    19Ap     0.399580    20Ap     0.403269
      21Ap     0.423945    13App    0.423945    22Ap     0.456829
      14App    0.495318    23Ap     0.495412    15App    0.511972
      24Ap     0.514035    16App    0.578783    25Ap     0.579137
      17App    0.591448    26Ap     0.591473    27Ap     0.602342
      28Ap     0.624815    18App    0.632026    19App    0.636186
      29Ap     0.636506    30Ap     0.663623    20App    0.663757
      31Ap     0.683717    21App    0.683818    32Ap     0.735076
      22App    0.825196    33Ap     0.825415    23App    0.854261
      34Ap     0.915056    24App    0.915284    35Ap     0.943820
      25App    0.944350    26App    0.960828    36Ap     0.961191
      37Ap     1.004178    27App    1.128328    38Ap     1.128761
      39Ap     1.141663    28App    1.163436    40Ap     1.164195
      41Ap     1.223259    42Ap     1.273992    29App    1.274939
      43Ap     1.279580    30App    1.324526    44Ap     1.324725
      45Ap     1.355579    31App    1.366109    46Ap     1.366663
      32App    1.392247    33App    1.403720    47Ap     1.403801
      48Ap     1.416663    34App    1.417282    35App    1.428538
      36App    1.492090    49Ap     1.498762    37App    1.542888
      50Ap     1.542904    51Ap     1.573811    38App    1.573855
      52Ap     1.669892    39App    1.739088    53Ap     1.739488
      54Ap     1.768169    40App    1.831407    55Ap     1.831933
      41App    1.971836    56Ap     2.018085    57Ap     2.019331
      42App    2.020473    43App    2.052577    58Ap     2.053660
      44App    2.737836    59Ap     2.738310    60Ap     2.791153
      45App    2.811939    46App    2.889553    61Ap     2.890667
      62Ap     2.895188    47App    2.929559    63Ap     2.930343
      48App    2.959052    64Ap     2.964267    49App    2.964603
      65Ap     3.034469    50App    3.070301    66Ap     3.071320
      51App    3.084000    67Ap     3.168589    52App    3.168789
      68Ap     3.180817    53App    3.284613    69Ap     3.285211
      70Ap     3.327867    54App    3.328653    71Ap     3.375312
      55App    3.489110    72Ap     3.490210    56App    3.514238
      73Ap     3.525500    74Ap     3.568706    57App    3.569143
      58App    3.576017    75Ap     3.666027    59App    3.666642
      76Ap     3.680744    77Ap     3.693568    60App    3.693619
      61App    3.777241    78Ap     3.778642    79Ap     3.787873
      62App    3.911872    80Ap     3.912804    81Ap     4.033329
      63App    4.111158    82Ap     4.111799    64App    4.146916
      83Ap     4.148873    84Ap     4.173193    85Ap     4.202133
      65App    4.203418    86Ap     4.204429    66App    4.211372
      67App    4.315727    87Ap     4.316867    68App    4.360123
      69App    4.423867    88Ap     4.424015    70App    4.444453
      71App    4.517551    89Ap     4.517766    90Ap     4.578816
      72App    4.579406    91Ap     4.618306    92Ap     4.709787
      73App    4.774389    93Ap     4.775542    74App    4.835883
      94Ap     4.963342    95Ap     5.002623    75App    5.003110
      96Ap     5.228408    76App    5.246721    97Ap     5.246789
      77App    5.355521    98Ap     5.356639    78App    5.479606

    Beta Occupied:

       1App  -10.167753     1Ap   -10.167739     2Ap   -10.167696
       3Ap   -10.166512     4Ap    -0.781162     5Ap    -0.684202
       2App   -0.683848     6Ap    -0.511755     3App   -0.431458
       7Ap    -0.431037     8Ap    -0.421654     9Ap    -0.376599
       4App   -0.376448     5App   -0.362724    10Ap    -0.333676
       6App   -0.332618

    Beta Virtual:

      11Ap    -0.025909    12Ap     0.077113     7App    0.135009
      13Ap     0.135013     8App    0.144412    14Ap     0.144740
      15Ap     0.163594     9App    0.182388    16Ap     0.182427
      10App    0.215256    17Ap     0.219019    11App    0.282106
      18Ap     0.282616    12App    0.400509    19Ap     0.400751
      20Ap     0.419738    13App    0.426739    21Ap     0.426761
      22Ap     0.468815    14App    0.497590    23Ap     0.497690
      15App    0.513712    24Ap     0.556293    16App    0.584330
      25Ap     0.584739    17App    0.597592    26Ap     0.597629
      27Ap     0.609786    28Ap     0.628193    18App    0.632187
      19App    0.639452    29Ap     0.639801    30Ap     0.667216
      20App    0.667337    31Ap     0.686332    21App    0.686436
      32Ap     0.757563    22App    0.830385    33Ap     0.830595
      23App    0.855617    34Ap     0.923046    24App    0.923328
      25App    0.946186    35Ap     0.952830    26App    0.966099
      36Ap     0.966479    37Ap     1.009448    27App    1.132383
      38Ap     1.132789    39Ap     1.154806    28App    1.168506
      40Ap     1.169254    41Ap     1.232329    42Ap     1.279662
      29App    1.280503    43Ap     1.285401    30App    1.329568
      44Ap     1.329742    45Ap     1.364935    31App    1.371393
      46Ap     1.371852    32App    1.393320    33App    1.407142
      47Ap     1.407336    48Ap     1.421668    34App    1.422271
      35App    1.428813    36App    1.493127    49Ap     1.509183
      37App    1.547285    50Ap     1.547311    38App    1.581709
      51Ap     1.581721    52Ap     1.674742    39App    1.744847
      53Ap     1.745256    54Ap     1.778964    40App    1.835246
      55Ap     1.835801    41App    1.972702    56Ap     2.025768
      42App    2.026892    57Ap     2.039480    43App    2.059289
      58Ap     2.060352    44App    2.746151    59Ap     2.746687
      45App    2.812356    60Ap     2.816293    46App    2.902260
      61Ap     2.903199    62Ap     2.924884    47App    2.932001
      63Ap     2.932895    48App    2.960120    64Ap     2.968851
      49App    2.969180    65Ap     3.042395    50App    3.080275
      66Ap     3.081140    51App    3.085817    67Ap     3.184312
      52App    3.184444    68Ap     3.188623    53App    3.289429
      69Ap     3.289945    70Ap     3.331645    54App    3.332435
      71Ap     3.383105    55App    3.491894    72Ap     3.493015
      56App    3.512615    73Ap     3.528509    57App    3.575853
      74Ap     3.582036    58App    3.582386    75Ap     3.670757
      59App    3.671225    76Ap     3.693982    77Ap     3.725238
      60App    3.725534    61App    3.781841    78Ap     3.783260
      79Ap     3.816399    62App    3.921644    80Ap     3.922577
      81Ap     4.044269    63App    4.118113    82Ap     4.118662
      64App    4.154065    83Ap     4.155978    84Ap     4.187219
      65App    4.209327    85Ap     4.209631    86Ap     4.210833
      66App    4.215881    67App    4.323119    87Ap     4.324388
      68App    4.363507    69App    4.432086    88Ap     4.432232
      70App    4.447318    71App    4.525284    89Ap     4.525589
      90Ap     4.589418    72App    4.590026    91Ap     4.625446
      92Ap     4.720239    73App    4.781292    93Ap     4.782519
      74App    4.838803    94Ap     4.968131    95Ap     5.006696
      75App    5.007150    96Ap     5.234109    76App    5.248515
      97Ap     5.248571    77App    5.361977    98Ap     5.363147
      78App    5.481933

    Final Occupation by Irrep:
             Ap   App
    DOCC [    10,    6 ]
    SOCC [     1,    0 ]

  @DF-UKS Final Energy:  -157.81307018164233

   => Energetics <=

    Nuclear Repulsion Energy =            125.4063008304188713
    One-Electron Energy =                -458.7716989798584564
    Two-Electron Energy =                 195.8598174105294731
    DFT Exchange-Correlation Energy =     -20.3074894427322405
    Empirical Dispersion Energy =           0.0000000000000000
    VV10 Nonlocal Energy =                  0.0000000000000000
    Total Energy =                       -157.8130701816423311

  UHF NO Occupations:
  HONO-2 :    9 Ap 1.9995995
  HONO-1 :   10 Ap 1.9989824
  HONO-0 :   11 Ap 1.0000000
  LUNO+0 :   12 Ap 0.0010176
  LUNO+1 :   13 Ap 0.0004005
  LUNO+2 :    7App 0.0001983
  LUNO+3 :   14 Ap 0.0001962

Computation Completed

Properties will be evaluated at   0.000000,   0.000000,   0.000000 [a0]

Properties computed using the SCF density matrix

  Nuclear Dipole Moment: [e a0]
     X:     0.8225      Y:    -0.0096      Z:     0.0000

  Electronic Dipole Moment: [e a0]
     X:    -0.7450      Y:     0.0109      Z:     0.0000

  Dipole Moment: [e a0]
     X:     0.0775      Y:     0.0012      Z:     0.0000     Total:     0.0775

  Dipole Moment: [D]
     X:     0.1970      Y:     0.0031      Z:     0.0000     Total:     0.1970

*** tstop() called on n061 at Fri Nov  5 13:49:05 2021
Module time:
	user time   =     536.51 seconds =       8.94 minutes
	system time =      11.74 seconds =       0.20 minutes
	total time  =        138 seconds =       2.30 minutes
Total time:
	user time   =     536.51 seconds =       8.94 minutes
	system time =      11.74 seconds =       0.20 minutes
	total time  =        138 seconds =       2.30 minutes
Grab this energy -157.81307018164233
    Psi4 stopped on: Friday, 05 November 2021 01:49PM
    Psi4 wall time for execution: 0:02:17.90

*** Psi4 exiting successfully. Buy a developer a beer!
