                               Psi4 1.4a2.dev629

  ==> Input File <==

--------------------------------------------------------------------------
import os
memory 14 GB

molecule {
 C   -0.3251191726   -0.0020001699    0.0000000000
 C    0.0605054595   -1.4016613392   -2.4257368733
 C    0.0606175092    2.8028632035    0.0000000000
 C    0.0605054595   -1.4016613392    2.4257368733
 H    2.0873585782   -1.6430122151   -2.8384544837
 H   -0.7635515287   -0.3876808833   -4.0240272004
 H   -0.7660753456   -3.2946786716   -2.3569175687
 H    2.0868987872    3.2866582593    0.0000000000
 H   -0.7657396635    3.6832603060    1.6767054648
 H   -0.7657396635    3.6832603060   -1.6767054648
 H    2.0873585782   -1.6430122151    2.8384544837
 H   -0.7660753456   -3.2946786716    2.3569175687
 H   -0.7635515287   -0.3876808833    4.0240272004
units bohr
0 2
}

basis {

assign 6-31g_2dfp_

[ 6-31g_2dfp_ ]

spherical

!----------------------------------------------------------------------
! Basis Set Exchange
! Version v0.8.13
! https://www.basissetexchange.org
!----------------------------------------------------------------------
!   Basis set: 6-31G(2df,p)
! Description: 6-31G(2df,p)
!        Role: orbital
!     Version: 0  (Data from the original Basis Set Exchange)
!----------------------------------------------------------------------

****
H     0
S    3   1.00
     18.7311370              0.03349460
      2.8253937              0.23472695
      0.6401217              0.81375733
S    1   1.00
      0.1612778              1.00000000
P    1   1.00
      1.5000000              1.0000000
P    1   1.00
      0.3750000              1.0000000
****
B     0
S    6   1.00
   2068.8823000              0.0018663
    310.6495700              0.0142515
     70.6830330              0.0695516
     19.8610800              0.2325729
      6.2993048              0.4670787
      2.1270270              0.3634314
SP   3   1.00
      4.7279710             -0.1303938              0.0745976
      1.1903377             -0.1307889              0.3078467
      0.3594117              1.1309444              0.7434568
SP   1   1.00
      0.1267512              1.0000000              1.0000000
D    1   1.00
      0.8020000              1.0000000
D    1   1.00
      0.2005000              1.0000000
F    1   1.00
      0.5000000              1.0000000
****
C     0
S    6   1.00
   3047.5249000              0.0018347
    457.3695100              0.0140373
    103.9486900              0.0688426
     29.2101550              0.2321844
      9.2866630              0.4679413
      3.1639270              0.3623120
SP   3   1.00
      7.8682724             -0.1193324              0.0689991
      1.8812885             -0.1608542              0.3164240
      0.5442493              1.1434564              0.7443083
SP   1   1.00
      0.1687144              1.0000000              1.0000000
D    1   1.00
      1.2520000              1.0000000
D    1   1.00
      0.3130000              1.0000000
F    1   1.00
      0.8000000              1.0000000
****
N     0
S    6   1.00
   4173.5110000              0.0018348
    627.4579000              0.0139950
    142.9021000              0.0685870
     40.2343300              0.2322410
     12.8202100              0.4690700
      4.3904370              0.3604550
SP   3   1.00
     11.6263580             -0.1149610              0.0675800
      2.7162800             -0.1691180              0.3239070
      0.7722180              1.1458520              0.7408950
SP   1   1.00
      0.2120313              1.0000000              1.0000000
D    1   1.00
      1.8260000              1.0000000
D    1   1.00
      0.4565000              1.0000000
F    1   1.00
      1.0000000              1.0000000
****
O     0
S    6   1.00
   5484.6717000              0.0018311
    825.2349500              0.0139501
    188.0469600              0.0684451
     52.9645000              0.2327143
     16.8975700              0.4701930
      5.7996353              0.3585209
SP   3   1.00
     15.5396160             -0.1107775              0.0708743
      3.5999336             -0.1480263              0.3397528
      1.0137618              1.1307670              0.7271586
SP   1   1.00
      0.2700058              1.0000000              1.0000000
D    1   1.00
      2.5840000              1.0000000
D    1   1.00
      0.6460000              1.0000000
F    1   1.00
      1.4000000              1.0000000
****
F     0
S    6   1.00
   7001.7130900              0.0018196169
   1051.3660900              0.0139160796
    239.2856900              0.0684053245
     67.3974453              0.233185760
     21.5199573              0.471267439
      7.40310130             0.356618546
SP   3   1.00
     20.8479528             -0.108506975            0.0716287243
      4.80830834            -0.146451658            0.3459121030
      1.34406986             1.128688580            0.7224699570
SP   1   1.00
      0.358151393            1.0000000              1.0000000
D    1   1.00
      3.5000000              1.0000000
D    1   1.00
      0.8750000              1.0000000
F    1   1.00
      1.8500000              1.0000000
****
Al     0
S    6   1.00
  13983.1000000              0.00194267
   2098.7500000              0.0148599
    477.7050000              0.0728494
    134.3600000              0.2468300
     42.8709000              0.4872580
     14.5189000              0.3234960
SP   6   1.00
    239.6680000             -0.00292619             0.00460285
     57.4419000             -0.0374080              0.0331990
     18.2859000             -0.1144870              0.1362820
      6.5991400              0.1156350              0.3304760
      2.4904900              0.6125950              0.4491460
      0.9445400              0.3937990              0.2657040
SP   3   1.00
      1.2779000             -0.2276060             -0.0175130
      0.3975900              0.00144583             0.2445330
      0.1600950              1.0927900              0.8049340
SP   1   1.00
      0.0556577              1.0000000              1.0000000
D    1   1.00
      0.6500000              1.0000000
D    1   1.00
      0.1625000              1.0000000
F    1   1.00
      0.2500000              1.0000000
****
Si     0
S    6   1.00
  16115.9000000              0.00195948
   2425.5800000              0.01492880
    553.8670000              0.07284780
    156.3400000              0.24613000
     50.0683000              0.48591400
     17.0178000              0.32500200
SP   6   1.00
    292.7180000             -0.00278094             0.00443826
     69.8731000             -0.03571460             0.03266790
     22.3363000             -0.11498500             0.13472100
      8.1503900              0.09356340             0.32867800
      3.1345800              0.60301700             0.44964000
      1.2254300              0.41895900             0.26137200
SP   3   1.00
      1.7273800             -0.24463000            -0.01779510
      0.5729220              0.00431572             0.25353900
      0.2221920              1.09818000             0.80066900
SP   1   1.00
      0.0778369              1.00000000             1.00000000
D    1   1.00
      0.9000000              1.0000000
D    1   1.00
      0.2250000              1.0000000
F    1   1.00
      0.3200000              1.0000000
****
P     0
S    6   1.00
  19413.3000000              0.0018516
   2909.4200000              0.0142062
    661.3640000              0.0699995
    185.7590000              0.2400790
     59.1943000              0.4847620
     20.0310000              0.3352000
SP   6   1.00
    339.4780000             -0.00278217             0.00456462
     81.0101000             -0.0360499              0.03369360
     25.8780000             -0.1166310              0.13975500
      9.4522100              0.0968328              0.33936200
      3.6656600              0.6144180              0.45092100
      1.4674600              0.4037980              0.23858600
SP   3   1.00
      2.1562300             -0.2529230             -0.01776530
      0.7489970              0.0328517              0.27405800
      0.2831450              1.0812500              0.78542100
SP   1   1.00
      0.0998317              1.0000000              1.00000000
D    1   1.00
      1.1000000              1.0000000
D    1   1.00
      0.2750000              1.0000000
F    1   1.00
      0.4500000              1.0000000
****
S     0
S    6   1.00
  21917.1000000              0.0018690
   3301.4900000              0.0142300
    754.1460000              0.0696960
    212.7110000              0.2384870
     67.9896000              0.4833070
     23.0515000              0.3380740
SP   6   1.00
    423.7350000             -0.0023767              0.0040610
    100.7100000             -0.0316930              0.0306810
     32.1599000             -0.1133170              0.1304520
     11.8079000              0.0560900              0.3272050
      4.6311000              0.5922550              0.4528510
      1.8702500              0.4550060              0.2560420
SP   3   1.00
      2.6158400             -0.2503740             -0.0145110
      0.9221670              0.0669570              0.3102630
      0.3412870              1.0545100              0.7544830
SP   1   1.00
      0.1171670              1.0000000              1.0000000
D    1   1.00
      1.3000000              1.0000000
D    1   1.00
      0.3250000              1.0000000
F    1   1.00
      0.5500000              1.0000000
****
Cl     0
S    6   1.00
  25180.1000000              0.0018330
   3780.3500000              0.0140340
    860.4740000              0.0690970
    242.1450000              0.2374520
     77.3349000              0.4830340
     26.2470000              0.3398560
SP   6   1.00
    491.7650000             -0.0022974              0.0039894
    116.9840000             -0.0307140              0.0303180
     37.4153000             -0.1125280              0.1298800
     13.7834000              0.0450160              0.3279510
      5.4521500              0.5893530              0.4535270
      2.2258800              0.4652060              0.2521540
SP   3   1.00
      3.1864900             -0.2518300             -0.0142990
      1.1442700              0.0615890              0.3235720
      0.4203770              1.0601800              0.7435070
SP   1   1.00
      0.1426570              1.0000000              1.0000000
D    1   1.00
      1.5000000              1.0000000
D    1   1.00
      0.3750000              1.0000000
F    1   1.00
      0.7000000              1.0000000
****
}

set {
reference uhf
freeze_core true
e_convergence 10
d_convergence 10
dft_spherical_points 1202
dft_radial_points 99
}

e = energy('b3lyp')

print_out('Grab this energy {0}'.format(e))
--------------------------------------------------------------------------

    Molecular point group: cs

    Geometry (in Bohr), charge = 0, multiplicity = 2:

       Center              X                  Y                   Z               Mass
    ------------   -----------------  -----------------  -----------------  -----------------
         C           -0.324454531460    -0.001525995236     0.000000000000    12.000000000000
         C            0.061170100640    -1.401187164536    -2.425736873300    12.000000000000
         C            0.061282150340     2.803337378164     0.000000000000    12.000000000000
         C            0.061170100640    -1.401187164536     2.425736873300    12.000000000000
         H            2.088023219340    -1.642538040436    -2.838454483700     1.007825032230
         H           -0.762886887560    -0.387206708636    -4.024027200400     1.007825032230
         H           -0.765410704460    -3.294204496936    -2.356917568700     1.007825032230
         H            2.087563428340     3.287132433964     0.000000000000     1.007825032230
         H           -0.765075022360     3.683734480664     1.676705464800     1.007825032230
         H           -0.765075022360     3.683734480664    -1.676705464800     1.007825032230
         H            2.088023219340    -1.642538040436     2.838454483700     1.007825032230
         H           -0.765410704460    -3.294204496936     2.356917568700     1.007825032230
         H           -0.762886887560    -0.387206708636     4.024027200400     1.007825032230

  Charge       = 0
  Multiplicity = 2
  Basis Set: ANONYMOUS2C4BAC2E
    Blend: 6-31G_2DFP_
  Basis Set: (ANONYMOUS2C4BAC2E AUX)
    Blend: DEF2-UNIVERSAL-JKFIT

    Orbital Energies [Eh]
    ---------------------

    Alpha Occupied:

       1Ap   -10.180355     2Ap   -10.167246     1App  -10.166986
       3Ap   -10.166954     4Ap    -0.797703     2App   -0.686271
       5Ap    -0.686028     6Ap    -0.530764     7Ap    -0.441298
       3App   -0.434530     8Ap    -0.434387     4App   -0.382788
       9Ap    -0.382716     5App   -0.363473     6App   -0.338039
      10Ap    -0.337910    11Ap    -0.168871

    Alpha Virtual:

      12Ap     0.076037    13Ap     0.134173     7App    0.134237
       8App    0.142496    14Ap     0.142618    15Ap     0.154674
       9App    0.178778    16Ap     0.178854    17Ap     0.203416
      10App    0.214583    18Ap     0.275679    11App    0.276214
      19Ap     0.398958    12App    0.399041    20Ap     0.403426
      13App    0.424195    21Ap     0.424306    22Ap     0.456357
      14App    0.495353    23Ap     0.495472    15App    0.512349
      24Ap     0.513924    25Ap     0.578357    16App    0.578949
      26Ap     0.591540    17App    0.592127    27Ap     0.602807
      28Ap     0.624696    18App    0.631525    29Ap     0.636125
      19App    0.636192    20App    0.663102    30Ap     0.663168
      31Ap     0.683906    21App    0.683969    32Ap     0.734909
      22App    0.825290    33Ap     0.825720    23App    0.853575
      34Ap     0.914734    24App    0.915021    25App    0.943902
      35Ap     0.945407    26App    0.960879    36Ap     0.962269
      37Ap     1.002734    27App    1.127444    38Ap     1.127857
      39Ap     1.142809    28App    1.162626    40Ap     1.162827
      41Ap     1.223407    42Ap     1.274351    29App    1.274671
      43Ap     1.279135    30App    1.324073    44Ap     1.324082
      45Ap     1.356410    46Ap     1.365569    31App    1.365897
      32App    1.392643    47Ap     1.404008    33App    1.404636
      48Ap     1.416875    34App    1.417656    35App    1.427296
      36App    1.490896    49Ap     1.499392    37App    1.542493
      50Ap     1.543036    38App    1.575066    51Ap     1.575073
      52Ap     1.669768    53Ap     1.739175    39App    1.739939
      54Ap     1.768461    55Ap     1.830629    40App    1.831610
      41App    1.971632    56Ap     2.017825    42App    2.018162
      57Ap     2.018932    58Ap     2.051358    43App    2.052967
      44App    2.738630    59Ap     2.739172    60Ap     2.790704
      45App    2.810900    61Ap     2.889482    46App    2.890072
      62Ap     2.894737    63Ap     2.929016    47App    2.929066
      48App    2.958934    49App    2.964180    64Ap     2.964466
      65Ap     3.033529    50App    3.071620    66Ap     3.071896
      51App    3.084708    67Ap     3.168645    52App    3.169061
      68Ap     3.180426    69Ap     3.285680    53App    3.285757
      70Ap     3.325720    54App    3.326379    71Ap     3.375905
      72Ap     3.490488    55App    3.490789    56App    3.513748
      73Ap     3.525133    74Ap     3.567580    57App    3.568040
      58App    3.574442    59App    3.666246    75Ap     3.666587
      76Ap     3.678532    77Ap     3.694220    60App    3.695115
      61App    3.774423    78Ap     3.776876    79Ap     3.790467
      80Ap     3.911862    62App    3.912407    81Ap     4.035568
      82Ap     4.109994    63App    4.112484    83Ap     4.147426
      64App    4.149253    84Ap     4.173338    85Ap     4.202222
      65App    4.202301    86Ap     4.203054    66App    4.210362
      87Ap     4.314865    67App    4.316412    68App    4.357851
      69App    4.424714    88Ap     4.425213    70App    4.442459
      89Ap     4.515594    71App    4.516413    90Ap     4.576958
      72App    4.577635    91Ap     4.616988    92Ap     4.709171
      73App    4.773114    93Ap     4.775321    74App    4.837966
      94Ap     4.962341    95Ap     5.002724    75App    5.003410
      96Ap     5.227686    76App    5.246396    97Ap     5.247341
      98Ap     5.354204    77App    5.355645    78App    5.479091

    Beta Occupied:

       1Ap   -10.168003     1App  -10.167737     2Ap   -10.167720
       3Ap   -10.166527     4Ap    -0.781024     2App   -0.684068
       5Ap    -0.683840     6Ap    -0.511739     3App   -0.430900
       7Ap    -0.430784     8Ap    -0.421981     4App   -0.376879
       9Ap    -0.376816     5App   -0.362463     6App   -0.333154
      10Ap    -0.333034

    Beta Virtual:

      11Ap    -0.025576    12Ap     0.077049    13Ap     0.135056
       7App    0.135103     8App    0.144355    14Ap     0.144480
      15Ap     0.163084     9App    0.182475    16Ap     0.182513
      10App    0.214811    17Ap     0.218837    18Ap     0.282048
      11App    0.282562    19Ap     0.400129    12App    0.400204
      20Ap     0.419842    13App    0.427010    21Ap     0.427127
      22Ap     0.468187    14App    0.497602    23Ap     0.497716
      15App    0.514079    24Ap     0.556353    25Ap     0.583888
      16App    0.584479    26Ap     0.597757    17App    0.598318
      27Ap     0.610209    28Ap     0.628071    18App    0.631676
      29Ap     0.639399    19App    0.639505    20App    0.666642
      30Ap     0.666709    31Ap     0.686538    21App    0.686644
      32Ap     0.757468    22App    0.830421    33Ap     0.830894
      23App    0.854925    34Ap     0.922695    24App    0.922910
      25App    0.945740    35Ap     0.954249    26App    0.966268
      36Ap     0.967551    37Ap     1.007946    27App    1.131396
      38Ap     1.131959    39Ap     1.156408    28App    1.167787
      40Ap     1.167824    41Ap     1.232275    42Ap     1.279931
      29App    1.280249    43Ap     1.284823    44Ap     1.329016
      30App    1.329041    45Ap     1.365887    46Ap     1.370847
      31App    1.371117    32App    1.393687    47Ap     1.407430
      33App    1.408112    48Ap     1.421988    34App    1.422751
      35App    1.427561    36App    1.491955    49Ap     1.509859
      37App    1.546906    50Ap     1.547448    38App    1.582927
      51Ap     1.582935    52Ap     1.674612    53Ap     1.744928
      39App    1.745706    54Ap     1.779226    55Ap     1.834489
      40App    1.835465    41App    1.972484    42App    2.024524
      56Ap     2.024615    57Ap     2.039885    58Ap     2.058060
      43App    2.059722    44App    2.746971    59Ap     2.747483
      45App    2.811309    60Ap     2.815833    61Ap     2.902329
      46App    2.902766    62Ap     2.924428    63Ap     2.931495
      47App    2.931517    48App    2.959992    49App    2.968705
      64Ap     2.968956    65Ap     3.041473    50App    3.081553
      66Ap     3.081809    51App    3.086522    67Ap     3.184376
      52App    3.184857    68Ap     3.188082    69Ap     3.290476
      53App    3.290604    70Ap     3.329567    54App    3.330189
      71Ap     3.383751    72Ap     3.493170    55App    3.493431
      56App    3.512108    73Ap     3.528223    57App    3.574119
      74Ap     3.580933    58App    3.581665    75Ap     3.671201
      59App    3.671352    76Ap     3.691884    77Ap     3.725997
      60App    3.726245    61App    3.778930    78Ap     3.781294
      79Ap     3.818989    80Ap     3.921743    62App    3.922254
      81Ap     4.046402    82Ap     4.116832    63App    4.119101
      83Ap     4.154696    64App    4.156560    84Ap     4.187426
      85Ap     4.208191    65App    4.208287    86Ap     4.210966
      66App    4.214805    87Ap     4.322267    67App    4.323853
      68App    4.361197    69App    4.432968    88Ap     4.433376
      70App    4.445367    89Ap     4.523407    71App    4.524205
      90Ap     4.587538    72App    4.588212    91Ap     4.624261
      92Ap     4.719409    73App    4.780122    93Ap     4.782246
      74App    4.840881    94Ap     4.967138    95Ap     5.006739
      75App    5.007442    96Ap     5.233416    76App    5.248168
      97Ap     5.249130    98Ap     5.360661    77App    5.362146
      78App    5.481407

    Final Occupation by Irrep:
             Ap   App
    DOCC [    10,    6 ]
    SOCC [     1,    0 ]

  @DF-UKS Final Energy:  -157.81305833280427

   => Energetics <=

    Nuclear Repulsion Energy =            125.3830365993707403
    One-Electron Energy =                -458.7262740753452022
    Two-Electron Energy =                 195.8369770961480185
    DFT Exchange-Correlation Energy =     -20.3067979529778526
    Empirical Dispersion Energy =           0.0000000000000000
    VV10 Nonlocal Energy =                  0.0000000000000000
    Total Energy =                       -157.8130583328042746

  UHF NO Occupations:
  HONO-2 :    9 Ap 1.9996022
  HONO-1 :   10 Ap 1.9989785
  HONO-0 :   11 Ap 1.0000000
  LUNO+0 :   12 Ap 0.0010215
  LUNO+1 :   13 Ap 0.0003978
  LUNO+2 :   14 Ap 0.0001982
  LUNO+3 :    7App 0.0001975

Computation Completed

Properties will be evaluated at   0.000000,   0.000000,   0.000000 [a0]

Properties computed using the SCF density matrix

  Nuclear Dipole Moment: [e a0]
     X:     0.8319      Y:     0.0033      Z:    -0.0000

  Electronic Dipole Moment: [e a0]
     X:    -0.7535      Y:    -0.0033      Z:     0.0000

  Dipole Moment: [e a0]
     X:     0.0783      Y:    -0.0000      Z:    -0.0000     Total:     0.0783

  Dipole Moment: [D]
     X:     0.1991      Y:    -0.0000      Z:    -0.0000     Total:     0.1991

*** tstop() called on n056 at Fri Nov  5 15:31:36 2021
Module time:
	user time   =     541.75 seconds =       9.03 minutes
	system time =      11.88 seconds =       0.20 minutes
	total time  =        139 seconds =       2.32 minutes
Total time:
	user time   =     541.75 seconds =       9.03 minutes
	system time =      11.88 seconds =       0.20 minutes
	total time  =        139 seconds =       2.32 minutes
Grab this energy -157.81305833280427
    Psi4 stopped on: Friday, 05 November 2021 03:31PM
    Psi4 wall time for execution: 0:02:19.23

*** Psi4 exiting successfully. Buy a developer a beer!
