                               Psi4 1.4a2.dev629

  ==> Input File <==

--------------------------------------------------------------------------
import os
memory 14 GB

molecule {
 C   -0.3251187962    0.0002417842   -0.0000000000
 C    0.0611382719   -1.4010885664   -2.4264858601
 C    0.0593541237    2.8021384027    0.0000000000
 C    0.0611382719   -1.4010885664    2.4264858601
 H    2.0888832203   -1.6439989480   -2.8440496257
 H   -0.7633383146   -0.3884935448   -4.0257091682
 H   -0.7651689648   -3.2924311716   -2.3519618845
 H    2.0838468491    3.2759849733    0.0000000000
 H   -0.7668592395    3.6868174938    1.6760452018
 H   -0.7668592395    3.6868174938   -1.6760452018
 H    2.0888832203   -1.6439989480    2.8440496257
 H   -0.7651689648   -3.2924311716    2.3519618845
 H   -0.7633383146   -0.3884935448    4.0257091682
units bohr
0 2
}

basis {

assign 6-31g_2dfp_

[ 6-31g_2dfp_ ]

spherical

!----------------------------------------------------------------------
! Basis Set Exchange
! Version v0.8.13
! https://www.basissetexchange.org
!----------------------------------------------------------------------
!   Basis set: 6-31G(2df,p)
! Description: 6-31G(2df,p)
!        Role: orbital
!     Version: 0  (Data from the original Basis Set Exchange)
!----------------------------------------------------------------------

****
H     0
S    3   1.00
     18.7311370              0.03349460
      2.8253937              0.23472695
      0.6401217              0.81375733
S    1   1.00
      0.1612778              1.00000000
P    1   1.00
      1.5000000              1.0000000
P    1   1.00
      0.3750000              1.0000000
****
B     0
S    6   1.00
   2068.8823000              0.0018663
    310.6495700              0.0142515
     70.6830330              0.0695516
     19.8610800              0.2325729
      6.2993048              0.4670787
      2.1270270              0.3634314
SP   3   1.00
      4.7279710             -0.1303938              0.0745976
      1.1903377             -0.1307889              0.3078467
      0.3594117              1.1309444              0.7434568
SP   1   1.00
      0.1267512              1.0000000              1.0000000
D    1   1.00
      0.8020000              1.0000000
D    1   1.00
      0.2005000              1.0000000
F    1   1.00
      0.5000000              1.0000000
****
C     0
S    6   1.00
   3047.5249000              0.0018347
    457.3695100              0.0140373
    103.9486900              0.0688426
     29.2101550              0.2321844
      9.2866630              0.4679413
      3.1639270              0.3623120
SP   3   1.00
      7.8682724             -0.1193324              0.0689991
      1.8812885             -0.1608542              0.3164240
      0.5442493              1.1434564              0.7443083
SP   1   1.00
      0.1687144              1.0000000              1.0000000
D    1   1.00
      1.2520000              1.0000000
D    1   1.00
      0.3130000              1.0000000
F    1   1.00
      0.8000000              1.0000000
****
N     0
S    6   1.00
   4173.5110000              0.0018348
    627.4579000              0.0139950
    142.9021000              0.0685870
     40.2343300              0.2322410
     12.8202100              0.4690700
      4.3904370              0.3604550
SP   3   1.00
     11.6263580             -0.1149610              0.0675800
      2.7162800             -0.1691180              0.3239070
      0.7722180              1.1458520              0.7408950
SP   1   1.00
      0.2120313              1.0000000              1.0000000
D    1   1.00
      1.8260000              1.0000000
D    1   1.00
      0.4565000              1.0000000
F    1   1.00
      1.0000000              1.0000000
****
O     0
S    6   1.00
   5484.6717000              0.0018311
    825.2349500              0.0139501
    188.0469600              0.0684451
     52.9645000              0.2327143
     16.8975700              0.4701930
      5.7996353              0.3585209
SP   3   1.00
     15.5396160             -0.1107775              0.0708743
      3.5999336             -0.1480263              0.3397528
      1.0137618              1.1307670              0.7271586
SP   1   1.00
      0.2700058              1.0000000              1.0000000
D    1   1.00
      2.5840000              1.0000000
D    1   1.00
      0.6460000              1.0000000
F    1   1.00
      1.4000000              1.0000000
****
F     0
S    6   1.00
   7001.7130900              0.0018196169
   1051.3660900              0.0139160796
    239.2856900              0.0684053245
     67.3974453              0.233185760
     21.5199573              0.471267439
      7.40310130             0.356618546
SP   3   1.00
     20.8479528             -0.108506975            0.0716287243
      4.80830834            -0.146451658            0.3459121030
      1.34406986             1.128688580            0.7224699570
SP   1   1.00
      0.358151393            1.0000000              1.0000000
D    1   1.00
      3.5000000              1.0000000
D    1   1.00
      0.8750000              1.0000000
F    1   1.00
      1.8500000              1.0000000
****
Al     0
S    6   1.00
  13983.1000000              0.00194267
   2098.7500000              0.0148599
    477.7050000              0.0728494
    134.3600000              0.2468300
     42.8709000              0.4872580
     14.5189000              0.3234960
SP   6   1.00
    239.6680000             -0.00292619             0.00460285
     57.4419000             -0.0374080              0.0331990
     18.2859000             -0.1144870              0.1362820
      6.5991400              0.1156350              0.3304760
      2.4904900              0.6125950              0.4491460
      0.9445400              0.3937990              0.2657040
SP   3   1.00
      1.2779000             -0.2276060             -0.0175130
      0.3975900              0.00144583             0.2445330
      0.1600950              1.0927900              0.8049340
SP   1   1.00
      0.0556577              1.0000000              1.0000000
D    1   1.00
      0.6500000              1.0000000
D    1   1.00
      0.1625000              1.0000000
F    1   1.00
      0.2500000              1.0000000
****
Si     0
S    6   1.00
  16115.9000000              0.00195948
   2425.5800000              0.01492880
    553.8670000              0.07284780
    156.3400000              0.24613000
     50.0683000              0.48591400
     17.0178000              0.32500200
SP   6   1.00
    292.7180000             -0.00278094             0.00443826
     69.8731000             -0.03571460             0.03266790
     22.3363000             -0.11498500             0.13472100
      8.1503900              0.09356340             0.32867800
      3.1345800              0.60301700             0.44964000
      1.2254300              0.41895900             0.26137200
SP   3   1.00
      1.7273800             -0.24463000            -0.01779510
      0.5729220              0.00431572             0.25353900
      0.2221920              1.09818000             0.80066900
SP   1   1.00
      0.0778369              1.00000000             1.00000000
D    1   1.00
      0.9000000              1.0000000
D    1   1.00
      0.2250000              1.0000000
F    1   1.00
      0.3200000              1.0000000
****
P     0
S    6   1.00
  19413.3000000              0.0018516
   2909.4200000              0.0142062
    661.3640000              0.0699995
    185.7590000              0.2400790
     59.1943000              0.4847620
     20.0310000              0.3352000
SP   6   1.00
    339.4780000             -0.00278217             0.00456462
     81.0101000             -0.0360499              0.03369360
     25.8780000             -0.1166310              0.13975500
      9.4522100              0.0968328              0.33936200
      3.6656600              0.6144180              0.45092100
      1.4674600              0.4037980              0.23858600
SP   3   1.00
      2.1562300             -0.2529230             -0.01776530
      0.7489970              0.0328517              0.27405800
      0.2831450              1.0812500              0.78542100
SP   1   1.00
      0.0998317              1.0000000              1.00000000
D    1   1.00
      1.1000000              1.0000000
D    1   1.00
      0.2750000              1.0000000
F    1   1.00
      0.4500000              1.0000000
****
S     0
S    6   1.00
  21917.1000000              0.0018690
   3301.4900000              0.0142300
    754.1460000              0.0696960
    212.7110000              0.2384870
     67.9896000              0.4833070
     23.0515000              0.3380740
SP   6   1.00
    423.7350000             -0.0023767              0.0040610
    100.7100000             -0.0316930              0.0306810
     32.1599000             -0.1133170              0.1304520
     11.8079000              0.0560900              0.3272050
      4.6311000              0.5922550              0.4528510
      1.8702500              0.4550060              0.2560420
SP   3   1.00
      2.6158400             -0.2503740             -0.0145110
      0.9221670              0.0669570              0.3102630
      0.3412870              1.0545100              0.7544830
SP   1   1.00
      0.1171670              1.0000000              1.0000000
D    1   1.00
      1.3000000              1.0000000
D    1   1.00
      0.3250000              1.0000000
F    1   1.00
      0.5500000              1.0000000
****
Cl     0
S    6   1.00
  25180.1000000              0.0018330
   3780.3500000              0.0140340
    860.4740000              0.0690970
    242.1450000              0.2374520
     77.3349000              0.4830340
     26.2470000              0.3398560
SP   6   1.00
    491.7650000             -0.0022974              0.0039894
    116.9840000             -0.0307140              0.0303180
     37.4153000             -0.1125280              0.1298800
     13.7834000              0.0450160              0.3279510
      5.4521500              0.5893530              0.4535270
      2.2258800              0.4652060              0.2521540
SP   3   1.00
      3.1864900             -0.2518300             -0.0142990
      1.1442700              0.0615890              0.3235720
      0.4203770              1.0601800              0.7435070
SP   1   1.00
      0.1426570              1.0000000              1.0000000
D    1   1.00
      1.5000000              1.0000000
D    1   1.00
      0.3750000              1.0000000
F    1   1.00
      0.7000000              1.0000000
****
}

set {
reference uhf
freeze_core true
e_convergence 10
d_convergence 10
dft_spherical_points 1202
dft_radial_points 99
}

e = energy('b3lyp')

print_out('Grab this energy {0}'.format(e))
--------------------------------------------------------------------------

    Molecular point group: cs

    Geometry (in Bohr), charge = 0, multiplicity = 2:

       Center              X                  Y                   Z               Mass
    ------------   -----------------  -----------------  -----------------  -----------------
         C           -0.324454658856     0.000203103883     0.000000000000    12.000000000000
         C            0.061802409244    -1.401127246717    -2.426485860100    12.000000000000
         C            0.060018261044     2.802099722383     0.000000000000    12.000000000000
         C            0.061802409244    -1.401127246717     2.426485860100    12.000000000000
         H            2.089547357644    -1.644037628317    -2.844049625700     1.007825032230
         H           -0.762674177256    -0.388532225117    -4.025709168200     1.007825032230
         H           -0.764504827456    -3.292469851917    -2.351961884500     1.007825032230
         H            2.084510986444     3.275946292983     0.000000000000     1.007825032230
         H           -0.766195102156     3.686778813483     1.676045201800     1.007825032230
         H           -0.766195102156     3.686778813483    -1.676045201800     1.007825032230
         H            2.089547357644    -1.644037628317     2.844049625700     1.007825032230
         H           -0.764504827456    -3.292469851917     2.351961884500     1.007825032230
         H           -0.762674177256    -0.388532225117     4.025709168200     1.007825032230

  Charge       = 0
  Multiplicity = 2
  Basis Set: ANONYMOUS66C5D58A
    Blend: 6-31G_2DFP_
  Basis Set: (ANONYMOUS66C5D58A AUX)
    Blend: DEF2-UNIVERSAL-JKFIT

    Orbital Energies [Eh]
    ---------------------

    Alpha Occupied:

       1Ap   -10.180355     2Ap   -10.167101     1App  -10.167060
       3Ap   -10.167023     4Ap    -0.797702     5Ap    -0.686180
       2App   -0.686120     6Ap    -0.530764     7Ap    -0.441295
       8Ap    -0.434546     3App   -0.434375     9Ap    -0.382976
       4App   -0.382526     5App   -0.363472    10Ap    -0.338128
       6App   -0.337823    11Ap    -0.168871

    Alpha Virtual:

      12Ap     0.076037     7App    0.134157    13Ap     0.134252
       8App    0.142354    14Ap     0.142763    15Ap     0.154674
       9App    0.178680    16Ap     0.178948    17Ap     0.203418
      10App    0.214581    11App    0.275924    18Ap     0.275969
      19Ap     0.398873    12App    0.399130    20Ap     0.403418
      21Ap     0.424147    13App    0.424353    22Ap     0.456359
      23Ap     0.495399    14App    0.495424    15App    0.512351
      24Ap     0.513926    25Ap     0.578506    16App    0.578792
      17App    0.591570    26Ap     0.592079    27Ap     0.602835
      28Ap     0.624701    18App    0.631497    19App    0.635960
      29Ap     0.636375    30Ap     0.663098    20App    0.663176
      31Ap     0.683823    21App    0.684049    32Ap     0.734908
      22App    0.825445    33Ap     0.825565    23App    0.853574
      24App    0.914563    34Ap     0.915201    25App    0.943888
      35Ap     0.945408    26App    0.961505    36Ap     0.961659
      37Ap     1.002723    38Ap     1.127245    27App    1.128070
      39Ap     1.142792    40Ap     1.162565    28App    1.162885
      41Ap     1.223407    42Ap     1.274401    29App    1.274608
      43Ap     1.279157    30App    1.324005    44Ap     1.324143
      45Ap     1.356389    31App    1.365730    46Ap     1.365753
      32App    1.392638    33App    1.403842    47Ap     1.404787
      34App    1.416900    48Ap     1.417612    35App    1.427312
      36App    1.490903    49Ap     1.499376    37App    1.542757
      50Ap     1.542787    38App    1.574590    51Ap     1.575565
      52Ap     1.669767    39App    1.739464    53Ap     1.739632
      54Ap     1.768478    55Ap     1.830697    40App    1.831542
      41App    1.971626    42App    2.018125    56Ap     2.018286
      57Ap     2.018514    43App    2.051700    58Ap     2.052626
      44App    2.738888    59Ap     2.738922    60Ap     2.790701
      45App    2.810913    61Ap     2.889594    46App    2.889960
      62Ap     2.894727    47App    2.928733    63Ap     2.929343
      48App    2.958929    64Ap     2.964134    49App    2.964524
      65Ap     3.033523    50App    3.071111    66Ap     3.072410
      51App    3.084709    67Ap     3.168619    52App    3.169086
      68Ap     3.180422    69Ap     3.285607    53App    3.285831
      70Ap     3.325181    54App    3.326934    71Ap     3.375903
      55App    3.489585    72Ap     3.491713    56App    3.513730
      73Ap     3.525161    57App    3.567758    74Ap     3.567791
      58App    3.574491    59App    3.666025    75Ap     3.666823
      76Ap     3.678572    60App    3.693977    77Ap     3.695292
      78Ap     3.775565    61App    3.775722    79Ap     3.790483
      80Ap     3.912014    62App    3.912250    81Ap     4.035566
      63App    4.111128    82Ap     4.111364    64App    4.148327
      83Ap     4.148365    84Ap     4.173302    85Ap     4.201677
      65App    4.202626    86Ap     4.203297    66App    4.210341
      67App    4.315477    87Ap     4.315846    68App    4.357796
      69App    4.424903    88Ap     4.425044    70App    4.442420
      71App    4.515416    89Ap     4.516577    72App    4.577306
      90Ap     4.577327    91Ap     4.617043    92Ap     4.709117
      73App    4.773610    93Ap     4.774843    74App    4.837927
      94Ap     4.962346    75App    5.002508    95Ap     5.003627
      96Ap     5.227714    76App    5.246318    97Ap     5.247418
      98Ap     5.354884    77App    5.354981    78App    5.479080

    Beta Occupied:

       1Ap   -10.167852     1App  -10.167814     2Ap   -10.167794
       3Ap   -10.166527     4Ap    -0.781024     5Ap    -0.683979
       2App   -0.683929     6Ap    -0.511739     7Ap    -0.430937
       3App   -0.430742     8Ap    -0.421987     9Ap    -0.377077
       4App   -0.376615     5App   -0.362463    10Ap    -0.333235
       6App   -0.332954

    Beta Virtual:

      11Ap    -0.025577    12Ap     0.077050     7App    0.135038
      13Ap     0.135121     8App    0.144237    14Ap     0.144601
      15Ap     0.163084     9App    0.182354    16Ap     0.182631
      10App    0.214809    17Ap     0.218839    11App    0.282278
      18Ap     0.282333    19Ap     0.400041    12App    0.400291
      20Ap     0.419844    21Ap     0.426962    13App    0.427171
      22Ap     0.468189    23Ap     0.497646    14App    0.497671
      15App    0.514081    24Ap     0.556354    25Ap     0.584033
      16App    0.584327    17App    0.597771    26Ap     0.598289
      27Ap     0.610232    28Ap     0.628075    18App    0.631659
      19App    0.639245    29Ap     0.639667    30Ap     0.666629
      20App    0.666725    31Ap     0.686494    21App    0.686688
      32Ap     0.757468    22App    0.830600    33Ap     0.830715
      23App    0.854925    24App    0.922514    34Ap     0.923102
      25App    0.945727    35Ap     0.954253    26App    0.966849
      36Ap     0.966980    37Ap     1.007934    38Ap     1.131317
      27App    1.132050    39Ap     1.156382    40Ap     1.167620
      28App    1.167998    41Ap     1.232274    42Ap     1.279995
      29App    1.280174    43Ap     1.284844    30App    1.328950
      44Ap     1.329099    45Ap     1.365848    31App    1.370997
      46Ap     1.371005    32App    1.393681    33App    1.407286
      47Ap     1.408241    34App    1.421990    48Ap     1.422711
      35App    1.427593    36App    1.491962    49Ap     1.509839
      50Ap     1.547107    37App    1.547271    38App    1.582361
      51Ap     1.583513    52Ap     1.674611    39App    1.745227
      53Ap     1.745391    54Ap     1.779243    55Ap     1.834560
      40App    1.835395    41App    1.972479    42App    2.024517
      56Ap     2.024642    57Ap     2.039866    43App    2.058416
      58Ap     2.059370    44App    2.747200    59Ap     2.747259
      45App    2.811320    60Ap     2.815832    61Ap     2.902351
      46App    2.902739    62Ap     2.924420    47App    2.931209
      63Ap     2.931801    48App    2.959993    64Ap     2.968642
      49App    2.969026    65Ap     3.041467    50App    3.080992
      66Ap     3.082375    51App    3.086524    67Ap     3.184382
      52App    3.184849    68Ap     3.188077    69Ap     3.290391
      53App    3.290690    70Ap     3.329021    54App    3.330751
      71Ap     3.383748    55App    3.492271    72Ap     3.494354
      56App    3.512088    73Ap     3.528244    57App    3.574093
      58App    3.581213    74Ap     3.581400    59App    3.670877
      75Ap     3.671660    76Ap     3.691912    60App    3.725696
      77Ap     3.726529    78Ap     3.780061    61App    3.780157
      79Ap     3.818990    80Ap     3.921872    62App    3.922119
      81Ap     4.046401    63App    4.117880    82Ap     4.118067
      64App    4.155530    83Ap     4.155733    84Ap     4.187395
      85Ap     4.207790    65App    4.208600    86Ap     4.211080
      66App    4.214781    67App    4.322932    87Ap     4.323243
      68App    4.361135    69App    4.433103    88Ap     4.433264
      70App    4.445324    71App    4.523226    89Ap     4.524374
      90Ap     4.587891    72App    4.587901    91Ap     4.624313
      92Ap     4.719354    73App    4.780547    93Ap     4.781842
      74App    4.840841    94Ap     4.967144    75App    5.006546
      95Ap     5.007635    96Ap     5.233444    76App    5.248100
      97Ap     5.249196    98Ap     5.361370    77App    5.361453
      78App    5.481397

    Final Occupation by Irrep:
             Ap   App
    DOCC [    10,    6 ]
    SOCC [     1,    0 ]

  @DF-UKS Final Energy:  -157.81305671897559

   => Energetics <=

    Nuclear Repulsion Energy =            125.3830219732275850
    One-Electron Energy =                -458.7262381467908199
    Two-Electron Energy =                 195.8369575065296431
    DFT Exchange-Correlation Energy =     -20.3067980519419926
    Empirical Dispersion Energy =           0.0000000000000000
    VV10 Nonlocal Energy =                  0.0000000000000000
    Total Energy =                       -157.8130567189755880

  UHF NO Occupations:
  HONO-2 :    9 Ap 1.9996022
  HONO-1 :   10 Ap 1.9989785
  HONO-0 :   11 Ap 1.0000000
  LUNO+0 :   12 Ap 0.0010215
  LUNO+1 :   13 Ap 0.0003978
  LUNO+2 :    7App 0.0001980
  LUNO+3 :   14 Ap 0.0001977

Computation Completed

Properties will be evaluated at   0.000000,   0.000000,   0.000000 [a0]

Properties computed using the SCF density matrix

  Nuclear Dipole Moment: [e a0]
     X:     0.8319      Y:    -0.0003      Z:     0.0000

  Electronic Dipole Moment: [e a0]
     X:    -0.7535      Y:     0.0010      Z:     0.0000

  Dipole Moment: [e a0]
     X:     0.0783      Y:     0.0008      Z:     0.0000     Total:     0.0783

  Dipole Moment: [D]
     X:     0.1991      Y:     0.0019      Z:     0.0000     Total:     0.1991

*** tstop() called on n031 at Fri Nov  5 15:23:32 2021
Module time:
	user time   =     637.72 seconds =      10.63 minutes
	system time =      12.17 seconds =       0.20 minutes
	total time  =        164 seconds =       2.73 minutes
Total time:
	user time   =     637.72 seconds =      10.63 minutes
	system time =      12.17 seconds =       0.20 minutes
	total time  =        164 seconds =       2.73 minutes
Grab this energy -157.8130567189756
    Psi4 stopped on: Friday, 05 November 2021 03:23PM
    Psi4 wall time for execution: 0:02:43.54

*** Psi4 exiting successfully. Buy a developer a beer!
