                               Psi4 1.4a2.dev629

  ==> Input File <==

--------------------------------------------------------------------------
import os
memory 14 GB

molecule {
 C   -0.3233377212   -0.0000010114   -0.0000215849
 C    0.0603259958   -1.4021858228   -2.4280174689
 C    0.0610204298    2.8017609575    0.0006311664
 C    0.0619608198   -1.3995671330    2.4247437552
 H    2.0841866263   -1.6418877519   -2.8419494121
 H   -0.7664241249   -0.3885329934   -4.0271479414
 H   -0.7676081805   -3.2934253734   -2.3516634984
 H    2.0867986038    3.2881056282    0.0016687959
 H   -0.7666707653    3.6816846372    1.6758338117
 H   -0.7646215835    3.6788246946   -1.6771657826
 H    2.0896647529   -1.6463126329    2.8529515008
 H   -0.7635189832   -3.2905733943    2.3463184886
 H   -0.7643837464   -0.3879141181    4.0238181699
units bohr
0 2
}

basis {

assign 6-31g_2dfp_

[ 6-31g_2dfp_ ]

spherical

!----------------------------------------------------------------------
! Basis Set Exchange
! Version v0.8.13
! https://www.basissetexchange.org
!----------------------------------------------------------------------
!   Basis set: 6-31G(2df,p)
! Description: 6-31G(2df,p)
!        Role: orbital
!     Version: 0  (Data from the original Basis Set Exchange)
!----------------------------------------------------------------------

****
H     0
S    3   1.00
     18.7311370              0.03349460
      2.8253937              0.23472695
      0.6401217              0.81375733
S    1   1.00
      0.1612778              1.00000000
P    1   1.00
      1.5000000              1.0000000
P    1   1.00
      0.3750000              1.0000000
****
B     0
S    6   1.00
   2068.8823000              0.0018663
    310.6495700              0.0142515
     70.6830330              0.0695516
     19.8610800              0.2325729
      6.2993048              0.4670787
      2.1270270              0.3634314
SP   3   1.00
      4.7279710             -0.1303938              0.0745976
      1.1903377             -0.1307889              0.3078467
      0.3594117              1.1309444              0.7434568
SP   1   1.00
      0.1267512              1.0000000              1.0000000
D    1   1.00
      0.8020000              1.0000000
D    1   1.00
      0.2005000              1.0000000
F    1   1.00
      0.5000000              1.0000000
****
C     0
S    6   1.00
   3047.5249000              0.0018347
    457.3695100              0.0140373
    103.9486900              0.0688426
     29.2101550              0.2321844
      9.2866630              0.4679413
      3.1639270              0.3623120
SP   3   1.00
      7.8682724             -0.1193324              0.0689991
      1.8812885             -0.1608542              0.3164240
      0.5442493              1.1434564              0.7443083
SP   1   1.00
      0.1687144              1.0000000              1.0000000
D    1   1.00
      1.2520000              1.0000000
D    1   1.00
      0.3130000              1.0000000
F    1   1.00
      0.8000000              1.0000000
****
N     0
S    6   1.00
   4173.5110000              0.0018348
    627.4579000              0.0139950
    142.9021000              0.0685870
     40.2343300              0.2322410
     12.8202100              0.4690700
      4.3904370              0.3604550
SP   3   1.00
     11.6263580             -0.1149610              0.0675800
      2.7162800             -0.1691180              0.3239070
      0.7722180              1.1458520              0.7408950
SP   1   1.00
      0.2120313              1.0000000              1.0000000
D    1   1.00
      1.8260000              1.0000000
D    1   1.00
      0.4565000              1.0000000
F    1   1.00
      1.0000000              1.0000000
****
O     0
S    6   1.00
   5484.6717000              0.0018311
    825.2349500              0.0139501
    188.0469600              0.0684451
     52.9645000              0.2327143
     16.8975700              0.4701930
      5.7996353              0.3585209
SP   3   1.00
     15.5396160             -0.1107775              0.0708743
      3.5999336             -0.1480263              0.3397528
      1.0137618              1.1307670              0.7271586
SP   1   1.00
      0.2700058              1.0000000              1.0000000
D    1   1.00
      2.5840000              1.0000000
D    1   1.00
      0.6460000              1.0000000
F    1   1.00
      1.4000000              1.0000000
****
F     0
S    6   1.00
   7001.7130900              0.0018196169
   1051.3660900              0.0139160796
    239.2856900              0.0684053245
     67.3974453              0.233185760
     21.5199573              0.471267439
      7.40310130             0.356618546
SP   3   1.00
     20.8479528             -0.108506975            0.0716287243
      4.80830834            -0.146451658            0.3459121030
      1.34406986             1.128688580            0.7224699570
SP   1   1.00
      0.358151393            1.0000000              1.0000000
D    1   1.00
      3.5000000              1.0000000
D    1   1.00
      0.8750000              1.0000000
F    1   1.00
      1.8500000              1.0000000
****
Al     0
S    6   1.00
  13983.1000000              0.00194267
   2098.7500000              0.0148599
    477.7050000              0.0728494
    134.3600000              0.2468300
     42.8709000              0.4872580
     14.5189000              0.3234960
SP   6   1.00
    239.6680000             -0.00292619             0.00460285
     57.4419000             -0.0374080              0.0331990
     18.2859000             -0.1144870              0.1362820
      6.5991400              0.1156350              0.3304760
      2.4904900              0.6125950              0.4491460
      0.9445400              0.3937990              0.2657040
SP   3   1.00
      1.2779000             -0.2276060             -0.0175130
      0.3975900              0.00144583             0.2445330
      0.1600950              1.0927900              0.8049340
SP   1   1.00
      0.0556577              1.0000000              1.0000000
D    1   1.00
      0.6500000              1.0000000
D    1   1.00
      0.1625000              1.0000000
F    1   1.00
      0.2500000              1.0000000
****
Si     0
S    6   1.00
  16115.9000000              0.00195948
   2425.5800000              0.01492880
    553.8670000              0.07284780
    156.3400000              0.24613000
     50.0683000              0.48591400
     17.0178000              0.32500200
SP   6   1.00
    292.7180000             -0.00278094             0.00443826
     69.8731000             -0.03571460             0.03266790
     22.3363000             -0.11498500             0.13472100
      8.1503900              0.09356340             0.32867800
      3.1345800              0.60301700             0.44964000
      1.2254300              0.41895900             0.26137200
SP   3   1.00
      1.7273800             -0.24463000            -0.01779510
      0.5729220              0.00431572             0.25353900
      0.2221920              1.09818000             0.80066900
SP   1   1.00
      0.0778369              1.00000000             1.00000000
D    1   1.00
      0.9000000              1.0000000
D    1   1.00
      0.2250000              1.0000000
F    1   1.00
      0.3200000              1.0000000
****
P     0
S    6   1.00
  19413.3000000              0.0018516
   2909.4200000              0.0142062
    661.3640000              0.0699995
    185.7590000              0.2400790
     59.1943000              0.4847620
     20.0310000              0.3352000
SP   6   1.00
    339.4780000             -0.00278217             0.00456462
     81.0101000             -0.0360499              0.03369360
     25.8780000             -0.1166310              0.13975500
      9.4522100              0.0968328              0.33936200
      3.6656600              0.6144180              0.45092100
      1.4674600              0.4037980              0.23858600
SP   3   1.00
      2.1562300             -0.2529230             -0.01776530
      0.7489970              0.0328517              0.27405800
      0.2831450              1.0812500              0.78542100
SP   1   1.00
      0.0998317              1.0000000              1.00000000
D    1   1.00
      1.1000000              1.0000000
D    1   1.00
      0.2750000              1.0000000
F    1   1.00
      0.4500000              1.0000000
****
S     0
S    6   1.00
  21917.1000000              0.0018690
   3301.4900000              0.0142300
    754.1460000              0.0696960
    212.7110000              0.2384870
     67.9896000              0.4833070
     23.0515000              0.3380740
SP   6   1.00
    423.7350000             -0.0023767              0.0040610
    100.7100000             -0.0316930              0.0306810
     32.1599000             -0.1133170              0.1304520
     11.8079000              0.0560900              0.3272050
      4.6311000              0.5922550              0.4528510
      1.8702500              0.4550060              0.2560420
SP   3   1.00
      2.6158400             -0.2503740             -0.0145110
      0.9221670              0.0669570              0.3102630
      0.3412870              1.0545100              0.7544830
SP   1   1.00
      0.1171670              1.0000000              1.0000000
D    1   1.00
      1.3000000              1.0000000
D    1   1.00
      0.3250000              1.0000000
F    1   1.00
      0.5500000              1.0000000
****
Cl     0
S    6   1.00
  25180.1000000              0.0018330
   3780.3500000              0.0140340
    860.4740000              0.0690970
    242.1450000              0.2374520
     77.3349000              0.4830340
     26.2470000              0.3398560
SP   6   1.00
    491.7650000             -0.0022974              0.0039894
    116.9840000             -0.0307140              0.0303180
     37.4153000             -0.1125280              0.1298800
     13.7834000              0.0450160              0.3279510
      5.4521500              0.5893530              0.4535270
      2.2258800              0.4652060              0.2521540
SP   3   1.00
      3.1864900             -0.2518300             -0.0142990
      1.1442700              0.0615890              0.3235720
      0.4203770              1.0601800              0.7435070
SP   1   1.00
      0.1426570              1.0000000              1.0000000
D    1   1.00
      1.5000000              1.0000000
D    1   1.00
      0.3750000              1.0000000
F    1   1.00
      0.7000000              1.0000000
****
}

set {
reference uhf
freeze_core true
e_convergence 10
d_convergence 10
dft_spherical_points 1202
dft_radial_points 99
}

e = energy('b3lyp')

print_out('Grab this energy {0}'.format(e))
--------------------------------------------------------------------------

    Molecular point group: c1

    Geometry (in Bohr), charge = 0, multiplicity = 2:

       Center              X                  Y                   Z               Mass
    ------------   -----------------  -----------------  -----------------  -----------------
         C           -0.323339552712    -0.000001928419     0.000491546147    12.000000000000
         C            0.060324164288    -1.402186739819    -2.427504337853    12.000000000000
         C            0.061018598288     2.801760040481     0.001144297447    12.000000000000
         C            0.061958988288    -1.399568050019     2.425256886247    12.000000000000
         H            2.084184794788    -1.641888668919    -2.841436281053     1.007825032230
         H           -0.766425956412    -0.388533910419    -4.026634810353     1.007825032230
         H           -0.767610012012    -3.293426290419    -2.351150367353     1.007825032230
         H            2.086796772288     3.288104711181     0.002181926947     1.007825032230
         H           -0.766672596812     3.681683720181     1.676346942747     1.007825032230
         H           -0.764623415012     3.678823777581    -1.676652651553     1.007825032230
         H            2.089662921388    -1.646313549919     2.853464631847     1.007825032230
         H           -0.763520814712    -3.290574311319     2.346831619647     1.007825032230
         H           -0.764385577912    -0.387915035119     4.024331300947     1.007825032230

  Charge       = 0
  Multiplicity = 2
  Basis Set: ANONYMOUSEE5E8206
    Blend: 6-31G_2DFP_
  Basis Set: (ANONYMOUSEE5E8206 AUX)
    Blend: DEF2-UNIVERSAL-JKFIT

    Orbital Energies [Eh]
    ---------------------

    Alpha Occupied:

       1A    -10.180342     2A    -10.167035     3A    -10.167026
       4A    -10.166984     5A     -0.797767     6A     -0.686240
       7A     -0.686134     8A     -0.530776     9A     -0.441126
      10A     -0.434676    11A     -0.434667    12A     -0.382913
      13A     -0.382283    14A     -0.363611    15A     -0.338054
      16A     -0.337944    17A     -0.168961

    Alpha Virtual:

      18A      0.076073    19A      0.134088    20A      0.134221
      21A      0.142486    22A      0.142770    23A      0.154880
      24A      0.178559    25A      0.178995    26A      0.203549
      27A      0.214802    28A      0.275781    29A      0.276190
      30A      0.399091    31A      0.399362    32A      0.403345
      33A      0.423951    34A      0.424244    35A      0.456597
      36A      0.495356    37A      0.495422    38A      0.512162
      39A      0.513981    40A      0.578640    41A      0.578967
      42A      0.591312    43A      0.591944    44A      0.602613
      45A      0.624762    46A      0.631765    47A      0.636197
      48A      0.636305    49A      0.663311    50A      0.663514
      51A      0.683759    52A      0.683945    53A      0.734993
      54A      0.825294    55A      0.825521    56A      0.853916
      57A      0.914722    58A      0.915327    59A      0.944110
      60A      0.944611    61A      0.961192    62A      0.961416
      63A      1.003452    64A      1.127629    65A      1.128589
      66A      1.142196    67A      1.162837    68A      1.163729
      69A      1.223323    70A      1.274054    71A      1.274857
      72A      1.279424    73A      1.324347    74A      1.324364
      75A      1.355984    76A      1.365909    77A      1.366218
      78A      1.392444    79A      1.403359    80A      1.404688
      81A      1.416919    82A      1.417293    83A      1.427965
      84A      1.491498    85A      1.499065    86A      1.542754
      87A      1.542908    88A      1.574160    89A      1.574750
      90A      1.669824    91A      1.739187    92A      1.739648
      93A      1.768322    94A      1.831321    95A      1.831474
      96A      1.971718    97A      2.018217    98A      2.018643
      99A      2.019528   100A      2.052431   101A      2.052873
     102A      2.738357   103A      2.738622   104A      2.790929
     105A      2.811425   106A      2.889678   107A      2.890158
     108A      2.895014   109A      2.929247   110A      2.929740
     111A      2.958998   112A      2.964116   113A      2.964638
     114A      3.033999   115A      3.070509   116A      3.072064
     117A      3.084347   118A      3.168356   119A      3.169190
     120A      3.180601   121A      3.285192   122A      3.285445
     123A      3.326102   124A      3.328231   125A      3.375613
     126A      3.489415   127A      3.490883   128A      3.514009
     129A      3.525338   130A      3.568126   131A      3.568486
     132A      3.575326   133A      3.665259   134A      3.667509
     135A      3.679600   136A      3.693368   137A      3.694913
     138A      3.776548   139A      3.777043   140A      3.789162
     141A      3.911354   142A      3.913107   143A      4.034443
     144A      4.111337   145A      4.111396   146A      4.147838
     147A      4.148373   148A      4.173245   149A      4.202305
     150A      4.202688   151A      4.203852   152A      4.210838
     153A      4.315426   154A      4.316483   155A      4.358953
     156A      4.423589   157A      4.425280   158A      4.443534
     159A      4.516778   160A      4.516853   161A      4.578243
     162A      4.578318   163A      4.617574   164A      4.709411
     165A      4.773682   166A      4.775500   167A      4.836906
     168A      4.962807   169A      5.001726   170A      5.004243
     171A      5.228068   172A      5.246459   173A      5.247158
     174A      5.355392   175A      5.355618   176A      5.479350

    Beta Occupied:

       1A    -10.167793     2A    -10.167778     3A    -10.167753
       4A    -10.166520     5A     -0.781092     6A     -0.684043
       7A     -0.683937     8A     -0.511747     9A     -0.431056
      10A     -0.431028    11A     -0.421825    12A     -0.377023
      13A     -0.376341    14A     -0.362596    15A     -0.333189
      16A     -0.333054

    Beta Virtual:

      17A     -0.025744    18A      0.077082    19A      0.135007
      20A      0.135084    21A      0.144362    22A      0.144634
      23A      0.163340    24A      0.182239    25A      0.182659
      26A      0.215031    27A      0.218931    28A      0.282143
      29A      0.282524    30A      0.400267    31A      0.400524
      32A      0.419791    33A      0.426759    34A      0.427058
      35A      0.468505    36A      0.497609    37A      0.497691
      38A      0.513897    39A      0.556326    40A      0.584181
      41A      0.584531    42A      0.597488    43A      0.598130
      44A      0.610029    45A      0.628139    46A      0.631924
      47A      0.639480    48A      0.639592    49A      0.666861
      50A      0.667092    51A      0.686398    52A      0.686576
      53A      0.757516    54A      0.830460    55A      0.830692
      56A      0.855269    57A      0.922722    58A      0.923271
      59A      0.945949    60A      0.953536    61A      0.966515
      62A      0.966706    63A      1.008691    64A      1.131708
      65A      1.132568    66A      1.155552    67A      1.167868
      68A      1.168863    69A      1.232295    70A      1.279663
      71A      1.280447    72A      1.285176    73A      1.329319
      74A      1.329370    75A      1.365390    76A      1.371167
      77A      1.371457    78A      1.393506    79A      1.406868
      80A      1.408107    81A      1.421933    82A      1.422339
      83A      1.428271    84A      1.492547    85A      1.509505
      86A      1.547057    87A      1.547428    88A      1.581946
      89A      1.582704    90A      1.674670    91A      1.744948
      92A      1.745411    93A      1.779101    94A      1.835181
      95A      1.835324    96A      1.972579    97A      2.024976
      98A      2.025942    99A      2.039629   100A      2.059166
     101A      2.059586   102A      2.746703   103A      2.746947
     104A      2.811837   105A      2.816064   106A      2.902393
     107A      2.902875   108A      2.924647   109A      2.931731
     110A      2.932233   111A      2.960063   112A      2.968646
     113A      2.969196   114A      3.041934   115A      3.080382
     116A      3.082012   117A      3.086164   118A      3.184066
     119A      3.184924   120A      3.188337   121A      3.289980
     122A      3.290254   123A      3.329925   124A      3.332016
     125A      3.383432   126A      3.492189   127A      3.493568
     128A      3.512375   129A      3.528383   130A      3.574845
     131A      3.581716   132A      3.581917   133A      3.669991
     134A      3.672270   135A      3.692915   136A      3.725231
     137A      3.726308   138A      3.781063   139A      3.781588
     140A      3.817692   141A      3.921215   142A      3.922879
     143A      4.045331   144A      4.118025   145A      4.118340
     146A      4.155227   147A      4.155407   148A      4.187295
     149A      4.208266   150A      4.209767   151A      4.210658
     152A      4.215312   153A      4.322810   154A      4.323979
     155A      4.362316   156A      4.431836   157A      4.433438
     158A      4.446440   159A      4.524567   160A      4.524645
     161A      4.588813   162A      4.588951   163A      4.624766
     164A      4.719757   165A      4.780625   166A      4.782464
     167A      4.839823   168A      4.967602   169A      5.005795
     170A      5.008251   171A      5.233784   172A      5.248237
     173A      5.248948   174A      5.361859   175A      5.362113
     176A      5.481671

    Final Occupation by Irrep:
              A
    DOCC [    16 ]
    SOCC [     1 ]

  @DF-UKS Final Energy:  -157.81306622904521

   => Energetics <=

    Nuclear Repulsion Energy =            125.3946059765871865
    One-Electron Energy =                -458.7488645656533208
    Two-Electron Energy =                 195.8483353892339665
    DFT Exchange-Correlation Energy =     -20.3071430292130160
    Empirical Dispersion Energy =           0.0000000000000000
    VV10 Nonlocal Energy =                  0.0000000000000000
    Total Energy =                       -157.8130662290452051

  UHF NO Occupations:
  HONO-2 :   15  A 1.9996008
  HONO-1 :   16  A 1.9989805
  HONO-0 :   17  A 1.0000000
  LUNO+0 :   18  A 0.0010195
  LUNO+1 :   19  A 0.0003992
  LUNO+2 :   20  A 0.0001978
  LUNO+3 :   21  A 0.0001973

Computation Completed

Properties will be evaluated at   0.000000,   0.000000,   0.000000 [a0]

Properties computed using the SCF density matrix

  Nuclear Dipole Moment: [e a0]
     X:     0.8272      Y:    -0.0000      Z:     0.0036

  Electronic Dipole Moment: [e a0]
     X:    -0.7493      Y:     0.0000      Z:    -0.0044

  Dipole Moment: [e a0]
     X:     0.0779      Y:     0.0000      Z:    -0.0008     Total:     0.0779

  Dipole Moment: [D]
     X:     0.1980      Y:     0.0000      Z:    -0.0021     Total:     0.1980

*** tstop() called on n080 at Fri Nov  5 13:13:08 2021
Module time:
	user time   =     496.47 seconds =       8.27 minutes
	system time =       4.63 seconds =       0.08 minutes
	total time  =        126 seconds =       2.10 minutes
Total time:
	user time   =     496.47 seconds =       8.27 minutes
	system time =       4.63 seconds =       0.08 minutes
	total time  =        126 seconds =       2.10 minutes
Grab this energy -157.8130662290452
    Psi4 stopped on: Friday, 05 November 2021 01:13PM
    Psi4 wall time for execution: 0:02:06.01

*** Psi4 exiting successfully. Buy a developer a beer!
