                               Psi4 1.4a2.dev629

  ==> Input File <==

--------------------------------------------------------------------------
import os
memory 14 GB

molecule {
 C   -0.3233318827   -0.0050088864   -0.0002562624
 C    0.0590626644   -1.3985227323   -2.4323048711
 C    0.0616264434    2.7938385612    0.0007678753
 C    0.0626158833   -1.3978436131    2.4326773680
 H    2.0867198410   -1.6379226190   -2.8562669288
 H   -0.7677005352   -0.3795221806   -4.0274527195
 H   -0.7632295664   -3.2903538377   -2.3621181211
 H    2.0875786573    3.2789402975   -0.0002345225
 H   -0.7647248546    3.6723656917    1.6761386807
 H   -0.7644507071    3.6722765357   -1.6764710941
 H    2.0863734180   -1.6381224884    2.8561631932
 H   -0.7641923373   -3.2901518938    2.3621518518
 H   -0.7689549007   -0.3799971481    4.0272055506
units bohr
0 2
}

basis {

assign 6-31g_2dfp_

[ 6-31g_2dfp_ ]

spherical

!----------------------------------------------------------------------
! Basis Set Exchange
! Version v0.8.13
! https://www.basissetexchange.org
!----------------------------------------------------------------------
!   Basis set: 6-31G(2df,p)
! Description: 6-31G(2df,p)
!        Role: orbital
!     Version: 0  (Data from the original Basis Set Exchange)
!----------------------------------------------------------------------

****
H     0
S    3   1.00
     18.7311370              0.03349460
      2.8253937              0.23472695
      0.6401217              0.81375733
S    1   1.00
      0.1612778              1.00000000
P    1   1.00
      1.5000000              1.0000000
P    1   1.00
      0.3750000              1.0000000
****
B     0
S    6   1.00
   2068.8823000              0.0018663
    310.6495700              0.0142515
     70.6830330              0.0695516
     19.8610800              0.2325729
      6.2993048              0.4670787
      2.1270270              0.3634314
SP   3   1.00
      4.7279710             -0.1303938              0.0745976
      1.1903377             -0.1307889              0.3078467
      0.3594117              1.1309444              0.7434568
SP   1   1.00
      0.1267512              1.0000000              1.0000000
D    1   1.00
      0.8020000              1.0000000
D    1   1.00
      0.2005000              1.0000000
F    1   1.00
      0.5000000              1.0000000
****
C     0
S    6   1.00
   3047.5249000              0.0018347
    457.3695100              0.0140373
    103.9486900              0.0688426
     29.2101550              0.2321844
      9.2866630              0.4679413
      3.1639270              0.3623120
SP   3   1.00
      7.8682724             -0.1193324              0.0689991
      1.8812885             -0.1608542              0.3164240
      0.5442493              1.1434564              0.7443083
SP   1   1.00
      0.1687144              1.0000000              1.0000000
D    1   1.00
      1.2520000              1.0000000
D    1   1.00
      0.3130000              1.0000000
F    1   1.00
      0.8000000              1.0000000
****
N     0
S    6   1.00
   4173.5110000              0.0018348
    627.4579000              0.0139950
    142.9021000              0.0685870
     40.2343300              0.2322410
     12.8202100              0.4690700
      4.3904370              0.3604550
SP   3   1.00
     11.6263580             -0.1149610              0.0675800
      2.7162800             -0.1691180              0.3239070
      0.7722180              1.1458520              0.7408950
SP   1   1.00
      0.2120313              1.0000000              1.0000000
D    1   1.00
      1.8260000              1.0000000
D    1   1.00
      0.4565000              1.0000000
F    1   1.00
      1.0000000              1.0000000
****
O     0
S    6   1.00
   5484.6717000              0.0018311
    825.2349500              0.0139501
    188.0469600              0.0684451
     52.9645000              0.2327143
     16.8975700              0.4701930
      5.7996353              0.3585209
SP   3   1.00
     15.5396160             -0.1107775              0.0708743
      3.5999336             -0.1480263              0.3397528
      1.0137618              1.1307670              0.7271586
SP   1   1.00
      0.2700058              1.0000000              1.0000000
D    1   1.00
      2.5840000              1.0000000
D    1   1.00
      0.6460000              1.0000000
F    1   1.00
      1.4000000              1.0000000
****
F     0
S    6   1.00
   7001.7130900              0.0018196169
   1051.3660900              0.0139160796
    239.2856900              0.0684053245
     67.3974453              0.233185760
     21.5199573              0.471267439
      7.40310130             0.356618546
SP   3   1.00
     20.8479528             -0.108506975            0.0716287243
      4.80830834            -0.146451658            0.3459121030
      1.34406986             1.128688580            0.7224699570
SP   1   1.00
      0.358151393            1.0000000              1.0000000
D    1   1.00
      3.5000000              1.0000000
D    1   1.00
      0.8750000              1.0000000
F    1   1.00
      1.8500000              1.0000000
****
Al     0
S    6   1.00
  13983.1000000              0.00194267
   2098.7500000              0.0148599
    477.7050000              0.0728494
    134.3600000              0.2468300
     42.8709000              0.4872580
     14.5189000              0.3234960
SP   6   1.00
    239.6680000             -0.00292619             0.00460285
     57.4419000             -0.0374080              0.0331990
     18.2859000             -0.1144870              0.1362820
      6.5991400              0.1156350              0.3304760
      2.4904900              0.6125950              0.4491460
      0.9445400              0.3937990              0.2657040
SP   3   1.00
      1.2779000             -0.2276060             -0.0175130
      0.3975900              0.00144583             0.2445330
      0.1600950              1.0927900              0.8049340
SP   1   1.00
      0.0556577              1.0000000              1.0000000
D    1   1.00
      0.6500000              1.0000000
D    1   1.00
      0.1625000              1.0000000
F    1   1.00
      0.2500000              1.0000000
****
Si     0
S    6   1.00
  16115.9000000              0.00195948
   2425.5800000              0.01492880
    553.8670000              0.07284780
    156.3400000              0.24613000
     50.0683000              0.48591400
     17.0178000              0.32500200
SP   6   1.00
    292.7180000             -0.00278094             0.00443826
     69.8731000             -0.03571460             0.03266790
     22.3363000             -0.11498500             0.13472100
      8.1503900              0.09356340             0.32867800
      3.1345800              0.60301700             0.44964000
      1.2254300              0.41895900             0.26137200
SP   3   1.00
      1.7273800             -0.24463000            -0.01779510
      0.5729220              0.00431572             0.25353900
      0.2221920              1.09818000             0.80066900
SP   1   1.00
      0.0778369              1.00000000             1.00000000
D    1   1.00
      0.9000000              1.0000000
D    1   1.00
      0.2250000              1.0000000
F    1   1.00
      0.3200000              1.0000000
****
P     0
S    6   1.00
  19413.3000000              0.0018516
   2909.4200000              0.0142062
    661.3640000              0.0699995
    185.7590000              0.2400790
     59.1943000              0.4847620
     20.0310000              0.3352000
SP   6   1.00
    339.4780000             -0.00278217             0.00456462
     81.0101000             -0.0360499              0.03369360
     25.8780000             -0.1166310              0.13975500
      9.4522100              0.0968328              0.33936200
      3.6656600              0.6144180              0.45092100
      1.4674600              0.4037980              0.23858600
SP   3   1.00
      2.1562300             -0.2529230             -0.01776530
      0.7489970              0.0328517              0.27405800
      0.2831450              1.0812500              0.78542100
SP   1   1.00
      0.0998317              1.0000000              1.00000000
D    1   1.00
      1.1000000              1.0000000
D    1   1.00
      0.2750000              1.0000000
F    1   1.00
      0.4500000              1.0000000
****
S     0
S    6   1.00
  21917.1000000              0.0018690
   3301.4900000              0.0142300
    754.1460000              0.0696960
    212.7110000              0.2384870
     67.9896000              0.4833070
     23.0515000              0.3380740
SP   6   1.00
    423.7350000             -0.0023767              0.0040610
    100.7100000             -0.0316930              0.0306810
     32.1599000             -0.1133170              0.1304520
     11.8079000              0.0560900              0.3272050
      4.6311000              0.5922550              0.4528510
      1.8702500              0.4550060              0.2560420
SP   3   1.00
      2.6158400             -0.2503740             -0.0145110
      0.9221670              0.0669570              0.3102630
      0.3412870              1.0545100              0.7544830
SP   1   1.00
      0.1171670              1.0000000              1.0000000
D    1   1.00
      1.3000000              1.0000000
D    1   1.00
      0.3250000              1.0000000
F    1   1.00
      0.5500000              1.0000000
****
Cl     0
S    6   1.00
  25180.1000000              0.0018330
   3780.3500000              0.0140340
    860.4740000              0.0690970
    242.1450000              0.2374520
     77.3349000              0.4830340
     26.2470000              0.3398560
SP   6   1.00
    491.7650000             -0.0022974              0.0039894
    116.9840000             -0.0307140              0.0303180
     37.4153000             -0.1125280              0.1298800
     13.7834000              0.0450160              0.3279510
      5.4521500              0.5893530              0.4535270
      2.2258800              0.4652060              0.2521540
SP   3   1.00
      3.1864900             -0.2518300             -0.0142990
      1.1442700              0.0615890              0.3235720
      0.4203770              1.0601800              0.7435070
SP   1   1.00
      0.1426570              1.0000000              1.0000000
D    1   1.00
      1.5000000              1.0000000
D    1   1.00
      0.3750000              1.0000000
F    1   1.00
      0.7000000              1.0000000
****
}

set {
reference uhf
freeze_core true
e_convergence 10
d_convergence 10
dft_spherical_points 1202
dft_radial_points 99
}

e = energy('b3lyp')

print_out('Grab this energy {0}'.format(e))
--------------------------------------------------------------------------

    Molecular point group: c1

    Geometry (in Bohr), charge = 0, multiplicity = 2:

       Center              X                  Y                   Z               Mass
    ------------   -----------------  -----------------  -----------------  -----------------
         C           -0.323334404555    -0.003556840002    -0.000426548317    12.000000000000
         C            0.059060142545    -1.397070685902    -2.432475157017    12.000000000000
         C            0.061623921545     2.795290607598     0.000597589383    12.000000000000
         C            0.062613361445    -1.396391566702     2.432507082083    12.000000000000
         H            2.086717319145    -1.636470572602    -2.856437214717     1.007825032230
         H           -0.767703057055    -0.378070134202    -4.027623005417     1.007825032230
         H           -0.763232088255    -3.288901791302    -2.362288407017     1.007825032230
         H            2.087576135445     3.280392343898    -0.000404808417     1.007825032230
         H           -0.764727376455     3.673817738098     1.675968394783     1.007825032230
         H           -0.764453228955     3.673728582098    -1.676641380017     1.007825032230
         H            2.086370896145    -1.636670442002     2.855992907283     1.007825032230
         H           -0.764194859155    -3.288699847402     2.361981565883     1.007825032230
         H           -0.768957422555    -0.378545101702     4.027035264683     1.007825032230

  Charge       = 0
  Multiplicity = 2
  Basis Set: ANONYMOUS9095F40F
    Blend: 6-31G_2DFP_
  Basis Set: (ANONYMOUS9095F40F AUX)
    Blend: DEF2-UNIVERSAL-JKFIT

    Orbital Energies [Eh]
    ---------------------

    Alpha Occupied:

       1A    -10.180341     2A    -10.167203     3A    -10.167140
       4A    -10.166702     5A     -0.797769     6A     -0.686408
       7A     -0.685963     8A     -0.530776     9A     -0.441128
      10A     -0.434953    11A     -0.434387    12A     -0.382807
      13A     -0.382390    14A     -0.363611    15A     -0.338282
      16A     -0.337713    17A     -0.168961

    Alpha Virtual:

      18A      0.076072    19A      0.133914    20A      0.134397
      21A      0.142477    22A      0.142778    23A      0.154880
      24A      0.178529    25A      0.179030    26A      0.203544
      27A      0.214807    28A      0.275807    29A      0.276165
      30A      0.399019    31A      0.399366    32A      0.403421
      33A      0.423959    34A      0.424244    35A      0.456595
      36A      0.494985    37A      0.495785    38A      0.512172
      39A      0.513987    40A      0.578550    41A      0.579059
      42A      0.591515    43A      0.591759    44A      0.602575
      45A      0.624767    46A      0.631767    47A      0.636007
      48A      0.636494    49A      0.663141    50A      0.663688
      51A      0.683573    52A      0.684136    53A      0.734994
      54A      0.824578    55A      0.826224    56A      0.853915
      57A      0.914791    58A      0.915264    59A      0.944055
      60A      0.944515    61A      0.961131    62A      0.961657
      63A      1.003469    64A      1.126967    65A      1.129272
      66A      1.142214    67A      1.162776    68A      1.163757
      69A      1.223331    70A      1.273953    71A      1.275038
      72A      1.279358    73A      1.324084    74A      1.324624
      75A      1.355985    76A      1.365207    77A      1.366849
      78A      1.392423    79A      1.403293    80A      1.404891
      81A      1.416545    82A      1.417700    83A      1.427929
      84A      1.491433    85A      1.499066    86A      1.542494
      87A      1.543173    88A      1.572661    89A      1.576342
      90A      1.669822    91A      1.738276    92A      1.740519
      93A      1.768358    94A      1.830855    95A      1.831946
      96A      1.971726    97A      2.017443    98A      2.018328
      99A      2.020589   100A      2.050119   101A      2.055258
     102A      2.738216   103A      2.738752   104A      2.790922
     105A      2.811440   106A      2.889654   107A      2.890244
     108A      2.894946   109A      2.929319   110A      2.929670
     111A      2.958987   112A      2.963505   113A      2.965277
     114A      3.034011   115A      3.070250   116A      3.072286
     117A      3.084387   118A      3.168041   119A      3.169563
     120A      3.180560   121A      3.284597   122A      3.286019
     123A      3.326212   124A      3.328121   125A      3.375666
     126A      3.489525   127A      3.490723   128A      3.514037
     129A      3.525305   130A      3.567087   131A      3.569586
     132A      3.575335   133A      3.666078   134A      3.666710
     135A      3.679655   136A      3.693648   137A      3.694564
     138A      3.775873   139A      3.777650   140A      3.789282
     141A      3.910806   142A      3.913648   143A      4.034474
     144A      4.110013   145A      4.112754   146A      4.146460
     147A      4.149752   148A      4.173230   149A      4.201264
     150A      4.202710   151A      4.204793   152A      4.210938
     153A      4.315497   154A      4.316391   155A      4.359009
     156A      4.424161   157A      4.424629   158A      4.443531
     159A      4.515547   160A      4.518170   161A      4.577180
     162A      4.579363   163A      4.617535   164A      4.709438
     165A      4.773167   166A      4.776030   167A      4.836949
     168A      4.962859   169A      5.001855   170A      5.004051
     171A      5.228035   172A      5.246667   173A      5.246977
     174A      5.354755   175A      5.356253   176A      5.479331

    Beta Occupied:

       1A    -10.167960     2A    -10.167898     3A    -10.167467
       4A    -10.166518     5A     -0.781095     6A     -0.684214
       7A     -0.683762     8A     -0.511748     9A     -0.431336
      10A     -0.430751    11A     -0.421822    12A     -0.376905
      13A     -0.376462    14A     -0.362595    15A     -0.333409
      16A     -0.332831

    Beta Virtual:

      17A     -0.025743    18A      0.077081    19A      0.134794
      20A      0.135296    21A      0.144354    22A      0.144642
      23A      0.163339    24A      0.182191    25A      0.182710
      26A      0.215037    27A      0.218927    28A      0.282144
      29A      0.282523    30A      0.400204    31A      0.400584
      32A      0.419800    33A      0.426755    34A      0.427072
      35A      0.468506    36A      0.497241    37A      0.498054
      38A      0.513907    39A      0.556328    40A      0.584129
      41A      0.584582    42A      0.597687    43A      0.597944
      44A      0.609995    45A      0.628147    46A      0.631926
      47A      0.639277    48A      0.639794    49A      0.666692
      50A      0.667263    51A      0.686163    52A      0.686818
      53A      0.757516    54A      0.829735    55A      0.831402
      56A      0.855268    57A      0.922750    58A      0.923245
      59A      0.945914    60A      0.953428    61A      0.966406
      62A      0.966993    63A      1.008706    64A      1.130998
      65A      1.133300    66A      1.155586    67A      1.167823
      68A      1.168861    69A      1.232301    70A      1.279545
      71A      1.280641    72A      1.285110    73A      1.329058
      74A      1.329628    75A      1.365400    76A      1.370350
      77A      1.372187    78A      1.393486    79A      1.406791
      80A      1.408331    81A      1.421597    82A      1.422739
      83A      1.428202    84A      1.492485    85A      1.509508
      86A      1.546805    87A      1.547674    88A      1.580676
      89A      1.584071    90A      1.674668    91A      1.744045
      92A      1.746276    93A      1.779135    94A      1.834694
      95A      1.835818    96A      1.972588    97A      2.023833
      98A      2.027047    99A      2.039650   100A      2.056924
     101A      2.061886   102A      2.746507   103A      2.747133
     104A      2.811852   105A      2.816057   106A      2.902365
     107A      2.902911   108A      2.924651   109A      2.931890
     110A      2.932065   111A      2.960056   112A      2.968075
     113A      2.969789   114A      3.041947   115A      3.079961
     116A      3.082284   117A      3.086325   118A      3.183890
     119A      3.185190   120A      3.188251   121A      3.289467
     122A      3.290750   123A      3.330007   124A      3.331937
     125A      3.383482   126A      3.492253   127A      3.493448
     128A      3.512412   129A      3.528358   130A      3.574721
     131A      3.580901   132A      3.582920   133A      3.670867
     134A      3.671409   135A      3.692953   136A      3.725297
     137A      3.726176   138A      3.780453   139A      3.782193
     140A      3.817756   141A      3.920623   142A      3.923465
     143A      4.045362   144A      4.116836   145A      4.119560
     146A      4.153721   147A      4.156910   148A      4.187292
     149A      4.207204   150A      4.210466   151A      4.210925
     152A      4.215427   153A      4.322909   154A      4.323857
     155A      4.362374   156A      4.432357   157A      4.432817
     158A      4.446463   159A      4.523392   160A      4.525897
     161A      4.587706   162A      4.590041   163A      4.624728
     164A      4.719784   165A      4.780091   166A      4.783011
     167A      4.839868   168A      4.967653   169A      5.005902
     170A      5.008084   171A      5.233747   172A      5.248449
     173A      5.248766   174A      5.361219   175A      5.362750
     176A      5.481652

    Final Occupation by Irrep:
              A
    DOCC [    16 ]
    SOCC [     1 ]

  @DF-UKS Final Energy:  -157.81306291257405

   => Energetics <=

    Nuclear Repulsion Energy =            125.3948495645638275
    One-Electron Energy =                -458.7493480062374829
    Two-Electron Energy =                 195.8485810855245290
    DFT Exchange-Correlation Energy =     -20.3071455564249526
    Empirical Dispersion Energy =           0.0000000000000000
    VV10 Nonlocal Energy =                  0.0000000000000000
    Total Energy =                       -157.8130629125740541

  UHF NO Occupations:
  HONO-2 :   15  A 1.9996009
  HONO-1 :   16  A 1.9989804
  HONO-0 :   17  A 1.0000000
  LUNO+0 :   18  A 0.0010196
  LUNO+1 :   19  A 0.0003991
  LUNO+2 :   20  A 0.0001979
  LUNO+3 :   21  A 0.0001972

Computation Completed

Properties will be evaluated at   0.000000,   0.000000,   0.000000 [a0]

Properties computed using the SCF density matrix

  Nuclear Dipole Moment: [e a0]
     X:     0.8272      Y:     0.0102      Z:    -0.0012

  Electronic Dipole Moment: [e a0]
     X:    -0.7493      Y:    -0.0109      Z:     0.0011

  Dipole Moment: [e a0]
     X:     0.0779      Y:    -0.0007      Z:    -0.0001     Total:     0.0779

  Dipole Moment: [D]
     X:     0.1980      Y:    -0.0019      Z:    -0.0003     Total:     0.1980

*** tstop() called on n080 at Fri Nov  5 12:26:37 2021
Module time:
	user time   =     494.15 seconds =       8.24 minutes
	system time =       4.49 seconds =       0.07 minutes
	total time  =        125 seconds =       2.08 minutes
Total time:
	user time   =     494.15 seconds =       8.24 minutes
	system time =       4.49 seconds =       0.07 minutes
	total time  =        125 seconds =       2.08 minutes
Grab this energy -157.81306291257405
    Psi4 stopped on: Friday, 05 November 2021 12:26PM
    Psi4 wall time for execution: 0:02:05.44

*** Psi4 exiting successfully. Buy a developer a beer!
