                               Psi4 1.4a2.dev629

  ==> Input File <==

--------------------------------------------------------------------------
import os
memory 14 GB

molecule {
 C   -0.3233405393    0.0017505877   -0.0000000000
 C    0.0606604283   -1.4001418473   -2.4273651589
 C    0.0619771398    2.8007905403   -0.0000000000
 C    0.0606604283   -1.4001418473    2.4273651589
 H    2.0851969106   -1.6392619555   -2.8493665575
 H   -0.7684979863   -0.3927054166   -4.0317308556
 H   -0.7646157539   -3.2911277442   -2.3442442427
 H    2.0902673189    3.2896123971   -0.0000000000
 H   -0.7634994967    3.6771480442    1.6756198557
 H   -0.7634994967    3.6771480442   -1.6756198557
 H    2.0851969106   -1.6392619555    2.8493665575
 H   -0.7646157539   -3.2911277442    2.3442442427
 H   -0.7684979863   -0.3927054166    4.0317308556
units bohr
0 2
}

basis {

assign 6-31g_2dfp_

[ 6-31g_2dfp_ ]

spherical

!----------------------------------------------------------------------
! Basis Set Exchange
! Version v0.8.13
! https://www.basissetexchange.org
!----------------------------------------------------------------------
!   Basis set: 6-31G(2df,p)
! Description: 6-31G(2df,p)
!        Role: orbital
!     Version: 0  (Data from the original Basis Set Exchange)
!----------------------------------------------------------------------

****
H     0
S    3   1.00
     18.7311370              0.03349460
      2.8253937              0.23472695
      0.6401217              0.81375733
S    1   1.00
      0.1612778              1.00000000
P    1   1.00
      1.5000000              1.0000000
P    1   1.00
      0.3750000              1.0000000
****
B     0
S    6   1.00
   2068.8823000              0.0018663
    310.6495700              0.0142515
     70.6830330              0.0695516
     19.8610800              0.2325729
      6.2993048              0.4670787
      2.1270270              0.3634314
SP   3   1.00
      4.7279710             -0.1303938              0.0745976
      1.1903377             -0.1307889              0.3078467
      0.3594117              1.1309444              0.7434568
SP   1   1.00
      0.1267512              1.0000000              1.0000000
D    1   1.00
      0.8020000              1.0000000
D    1   1.00
      0.2005000              1.0000000
F    1   1.00
      0.5000000              1.0000000
****
C     0
S    6   1.00
   3047.5249000              0.0018347
    457.3695100              0.0140373
    103.9486900              0.0688426
     29.2101550              0.2321844
      9.2866630              0.4679413
      3.1639270              0.3623120
SP   3   1.00
      7.8682724             -0.1193324              0.0689991
      1.8812885             -0.1608542              0.3164240
      0.5442493              1.1434564              0.7443083
SP   1   1.00
      0.1687144              1.0000000              1.0000000
D    1   1.00
      1.2520000              1.0000000
D    1   1.00
      0.3130000              1.0000000
F    1   1.00
      0.8000000              1.0000000
****
N     0
S    6   1.00
   4173.5110000              0.0018348
    627.4579000              0.0139950
    142.9021000              0.0685870
     40.2343300              0.2322410
     12.8202100              0.4690700
      4.3904370              0.3604550
SP   3   1.00
     11.6263580             -0.1149610              0.0675800
      2.7162800             -0.1691180              0.3239070
      0.7722180              1.1458520              0.7408950
SP   1   1.00
      0.2120313              1.0000000              1.0000000
D    1   1.00
      1.8260000              1.0000000
D    1   1.00
      0.4565000              1.0000000
F    1   1.00
      1.0000000              1.0000000
****
O     0
S    6   1.00
   5484.6717000              0.0018311
    825.2349500              0.0139501
    188.0469600              0.0684451
     52.9645000              0.2327143
     16.8975700              0.4701930
      5.7996353              0.3585209
SP   3   1.00
     15.5396160             -0.1107775              0.0708743
      3.5999336             -0.1480263              0.3397528
      1.0137618              1.1307670              0.7271586
SP   1   1.00
      0.2700058              1.0000000              1.0000000
D    1   1.00
      2.5840000              1.0000000
D    1   1.00
      0.6460000              1.0000000
F    1   1.00
      1.4000000              1.0000000
****
F     0
S    6   1.00
   7001.7130900              0.0018196169
   1051.3660900              0.0139160796
    239.2856900              0.0684053245
     67.3974453              0.233185760
     21.5199573              0.471267439
      7.40310130             0.356618546
SP   3   1.00
     20.8479528             -0.108506975            0.0716287243
      4.80830834            -0.146451658            0.3459121030
      1.34406986             1.128688580            0.7224699570
SP   1   1.00
      0.358151393            1.0000000              1.0000000
D    1   1.00
      3.5000000              1.0000000
D    1   1.00
      0.8750000              1.0000000
F    1   1.00
      1.8500000              1.0000000
****
Al     0
S    6   1.00
  13983.1000000              0.00194267
   2098.7500000              0.0148599
    477.7050000              0.0728494
    134.3600000              0.2468300
     42.8709000              0.4872580
     14.5189000              0.3234960
SP   6   1.00
    239.6680000             -0.00292619             0.00460285
     57.4419000             -0.0374080              0.0331990
     18.2859000             -0.1144870              0.1362820
      6.5991400              0.1156350              0.3304760
      2.4904900              0.6125950              0.4491460
      0.9445400              0.3937990              0.2657040
SP   3   1.00
      1.2779000             -0.2276060             -0.0175130
      0.3975900              0.00144583             0.2445330
      0.1600950              1.0927900              0.8049340
SP   1   1.00
      0.0556577              1.0000000              1.0000000
D    1   1.00
      0.6500000              1.0000000
D    1   1.00
      0.1625000              1.0000000
F    1   1.00
      0.2500000              1.0000000
****
Si     0
S    6   1.00
  16115.9000000              0.00195948
   2425.5800000              0.01492880
    553.8670000              0.07284780
    156.3400000              0.24613000
     50.0683000              0.48591400
     17.0178000              0.32500200
SP   6   1.00
    292.7180000             -0.00278094             0.00443826
     69.8731000             -0.03571460             0.03266790
     22.3363000             -0.11498500             0.13472100
      8.1503900              0.09356340             0.32867800
      3.1345800              0.60301700             0.44964000
      1.2254300              0.41895900             0.26137200
SP   3   1.00
      1.7273800             -0.24463000            -0.01779510
      0.5729220              0.00431572             0.25353900
      0.2221920              1.09818000             0.80066900
SP   1   1.00
      0.0778369              1.00000000             1.00000000
D    1   1.00
      0.9000000              1.0000000
D    1   1.00
      0.2250000              1.0000000
F    1   1.00
      0.3200000              1.0000000
****
P     0
S    6   1.00
  19413.3000000              0.0018516
   2909.4200000              0.0142062
    661.3640000              0.0699995
    185.7590000              0.2400790
     59.1943000              0.4847620
     20.0310000              0.3352000
SP   6   1.00
    339.4780000             -0.00278217             0.00456462
     81.0101000             -0.0360499              0.03369360
     25.8780000             -0.1166310              0.13975500
      9.4522100              0.0968328              0.33936200
      3.6656600              0.6144180              0.45092100
      1.4674600              0.4037980              0.23858600
SP   3   1.00
      2.1562300             -0.2529230             -0.01776530
      0.7489970              0.0328517              0.27405800
      0.2831450              1.0812500              0.78542100
SP   1   1.00
      0.0998317              1.0000000              1.00000000
D    1   1.00
      1.1000000              1.0000000
D    1   1.00
      0.2750000              1.0000000
F    1   1.00
      0.4500000              1.0000000
****
S     0
S    6   1.00
  21917.1000000              0.0018690
   3301.4900000              0.0142300
    754.1460000              0.0696960
    212.7110000              0.2384870
     67.9896000              0.4833070
     23.0515000              0.3380740
SP   6   1.00
    423.7350000             -0.0023767              0.0040610
    100.7100000             -0.0316930              0.0306810
     32.1599000             -0.1133170              0.1304520
     11.8079000              0.0560900              0.3272050
      4.6311000              0.5922550              0.4528510
      1.8702500              0.4550060              0.2560420
SP   3   1.00
      2.6158400             -0.2503740             -0.0145110
      0.9221670              0.0669570              0.3102630
      0.3412870              1.0545100              0.7544830
SP   1   1.00
      0.1171670              1.0000000              1.0000000
D    1   1.00
      1.3000000              1.0000000
D    1   1.00
      0.3250000              1.0000000
F    1   1.00
      0.5500000              1.0000000
****
Cl     0
S    6   1.00
  25180.1000000              0.0018330
   3780.3500000              0.0140340
    860.4740000              0.0690970
    242.1450000              0.2374520
     77.3349000              0.4830340
     26.2470000              0.3398560
SP   6   1.00
    491.7650000             -0.0022974              0.0039894
    116.9840000             -0.0307140              0.0303180
     37.4153000             -0.1125280              0.1298800
     13.7834000              0.0450160              0.3279510
      5.4521500              0.5893530              0.4535270
      2.2258800              0.4652060              0.2521540
SP   3   1.00
      3.1864900             -0.2518300             -0.0142990
      1.1442700              0.0615890              0.3235720
      0.4203770              1.0601800              0.7435070
SP   1   1.00
      0.1426570              1.0000000              1.0000000
D    1   1.00
      1.5000000              1.0000000
D    1   1.00
      0.3750000              1.0000000
F    1   1.00
      0.7000000              1.0000000
****
}

set {
reference uhf
freeze_core true
e_convergence 10
d_convergence 10
dft_spherical_points 1202
dft_radial_points 99
}

e = energy('b3lyp')

print_out('Grab this energy {0}'.format(e))
--------------------------------------------------------------------------

    Molecular point group: cs

    Geometry (in Bohr), charge = 0, multiplicity = 2:

       Center              X                  Y                   Z               Mass
    ------------   -----------------  -----------------  -----------------  -----------------
         C           -0.323340046602     0.001316219131     0.000000000000    12.000000000000
         C            0.060660920998    -1.400576215869    -2.427365158900    12.000000000000
         C            0.061977632498     2.800356171731     0.000000000000    12.000000000000
         C            0.060660920998    -1.400576215869     2.427365158900    12.000000000000
         H            2.085197403298    -1.639696324069    -2.849366557500     1.007825032230
         H           -0.768497493602    -0.393139785169    -4.031730855600     1.007825032230
         H           -0.764615261202    -3.291562112769    -2.344244242700     1.007825032230
         H            2.090267811598     3.289178028531     0.000000000000     1.007825032230
         H           -0.763499004002     3.676713675631     1.675619855700     1.007825032230
         H           -0.763499004002     3.676713675631    -1.675619855700     1.007825032230
         H            2.085197403298    -1.639696324069     2.849366557500     1.007825032230
         H           -0.764615261202    -3.291562112769     2.344244242700     1.007825032230
         H           -0.768497493602    -0.393139785169     4.031730855600     1.007825032230

  Charge       = 0
  Multiplicity = 2
  Basis Set: ANONYMOUS60022AEC
    Blend: 6-31G_2DFP_
  Basis Set: (ANONYMOUS60022AEC AUX)
    Blend: DEF2-UNIVERSAL-JKFIT

    Orbital Energies [Eh]
    ---------------------

    Alpha Occupied:

       1Ap   -10.180342     1App  -10.167138     2Ap   -10.167109
       3Ap   -10.166798     4Ap    -0.797767     5Ap    -0.686280
       2App   -0.686095     6Ap    -0.530775     7Ap    -0.441129
       3App   -0.434691     8Ap    -0.434649     4App   -0.382788
       9Ap    -0.382409     5App   -0.363609     6App   -0.338086
      10Ap    -0.337912    11Ap    -0.168961

    Alpha Virtual:

      12Ap     0.076073    13Ap     0.134135     7App    0.134172
      14Ap     0.142358     8App    0.142896    15Ap     0.154882
      16Ap     0.178600     9App    0.178953    17Ap     0.203553
      10App    0.214802    11App    0.275737    18Ap     0.276233
      12App    0.399070    19Ap     0.399381    20Ap     0.403349
      13App    0.424051    21Ap     0.424147    22Ap     0.456595
      23Ap     0.495341    14App    0.495436    15App    0.512161
      24Ap     0.513980    16App    0.578400    25Ap     0.579216
      17App    0.591599    26Ap     0.591669    27Ap     0.602584
      28Ap     0.624755    18App    0.631739    29Ap     0.636078
      19App    0.636469    20App    0.663404    30Ap     0.663421
      21App    0.683712    31Ap     0.683994    32Ap     0.734993
      33Ap     0.825131    22App    0.825677    23App    0.853914
      34Ap     0.914846    24App    0.915204    25App    0.944118
      35Ap     0.944589    36Ap     0.960548    26App    0.962063
      37Ap     1.003466    27App    1.127914    38Ap     1.128273
      39Ap     1.142201    28App    1.163237    40Ap     1.163349
      41Ap     1.223329    29App    1.274235    42Ap     1.274737
      43Ap     1.279364    44Ap     1.324279    30App    1.324426
      45Ap     1.355975    31App    1.365875    46Ap     1.366234
      32App    1.392454    47Ap     1.403874    33App    1.404232
      34App    1.417023    48Ap     1.417173    35App    1.427929
      36App    1.491507    49Ap     1.499060    50Ap     1.542575
      37App    1.543091    51Ap     1.573952    38App    1.574949
      52Ap     1.669836    39App    1.739147    53Ap     1.739669
      54Ap     1.768340    40App    1.830474    55Ap     1.832321
      41App    1.971711    56Ap     2.018025    57Ap     2.019187
      42App    2.019188    43App    2.052304    58Ap     2.052994
      59Ap     2.738191    44App    2.738775    60Ap     2.790931
      45App    2.811419    46App    2.889545    61Ap     2.890211
      62Ap     2.895113    63Ap     2.929208    47App    2.929789
      48App    2.958986    49App    2.964366    64Ap     2.964397
      65Ap     3.034013    66Ap     3.070519    50App    3.072041
      51App    3.084346    52App    3.168362    67Ap     3.169210
      68Ap     3.180577    53App    3.285157    69Ap     3.285482
      54App    3.325960    70Ap     3.328355    71Ap     3.375620
      72Ap     3.489255    55App    3.491033    56App    3.514028
      73Ap     3.525313    57App    3.567985    74Ap     3.568802
      58App    3.575167    75Ap     3.665676    59App    3.667001
      76Ap     3.679645    77Ap     3.693976    60App    3.694345
      78Ap     3.775646    61App    3.777994    79Ap     3.789149
      62App    3.911835    80Ap     3.912628    81Ap     4.034456
      63App    4.110210    82Ap     4.112500    64App    4.147270
      83Ap     4.148945    84Ap     4.173253    85Ap     4.202268
      65App    4.202674    86Ap     4.203887    66App    4.210842
      67App    4.315289    87Ap     4.316546    68App    4.359063
      88Ap     4.424119    69App    4.424822    70App    4.443427
      89Ap     4.516590    71App    4.517082    72App    4.577916
      90Ap     4.578602    91Ap     4.617555    92Ap     4.709390
      93Ap     4.772991    73App    4.776251    74App    4.836928
      94Ap     4.962874    95Ap     5.002757    75App    5.003132
      96Ap     5.228058    97Ap     5.245813    76App    5.247822
      77App    5.354736    98Ap     5.356270    78App    5.479358

    Beta Occupied:

       1App  -10.167889     1Ap   -10.167871     2Ap   -10.167563
       3Ap   -10.166519     4Ap    -0.781092     5Ap    -0.684080
       2App   -0.683900     6Ap    -0.511747     3App   -0.431082
       7Ap    -0.431011     8Ap    -0.421816     4App   -0.376884
       9Ap    -0.376483     5App   -0.362593     6App   -0.333201
      10Ap    -0.333042

    Beta Virtual:

      11Ap    -0.025744    12Ap     0.077082    13Ap     0.135024
       7App    0.135063    14Ap     0.144251     8App    0.144746
      15Ap     0.163340    16Ap     0.182286     9App    0.182611
      10App    0.215031    17Ap     0.218933    11App    0.282100
      18Ap     0.282566    12App    0.400244    19Ap     0.400552
      20Ap     0.419787    13App    0.426861    21Ap     0.426961
      22Ap     0.468503    23Ap     0.497606    14App    0.497693
      15App    0.513896    24Ap     0.556325    16App    0.583943
      25Ap     0.584775    17App    0.597797    26Ap     0.597829
      27Ap     0.610004    28Ap     0.628133    18App    0.631908
      29Ap     0.639385    19App    0.639719    20App    0.666961
      30Ap     0.666992    21App    0.686342    31Ap     0.686634
      32Ap     0.757516    33Ap     0.830280    22App    0.830865
      23App    0.855267    34Ap     0.922809    24App    0.923183
      25App    0.945955    35Ap     0.953506    36Ap     0.965936
      26App    0.967302    37Ap     1.008705    27App    1.132062
      38Ap     1.132182    39Ap     1.155577    28App    1.168194
      40Ap     1.168541    41Ap     1.232302    29App    1.279847
      42Ap     1.280321    43Ap     1.285116    44Ap     1.329280
      30App    1.329405    45Ap     1.365382    31App    1.371132
      46Ap     1.371476    32App    1.393513    47Ap     1.407357
      33App    1.407670    34App    1.422066    48Ap     1.422225
      35App    1.428210    36App    1.492556    49Ap     1.509499
      50Ap     1.547087    37App    1.547401    51Ap     1.581734
      38App    1.582907    52Ap     1.674683    39App    1.744897
      53Ap     1.745447    54Ap     1.779116    40App    1.834336
      55Ap     1.836170    41App    1.972572    56Ap     2.025317
      42App    2.025582    57Ap     2.039672    43App    2.059002
      58Ap     2.059731    59Ap     2.746533    44App    2.747107
      45App    2.811833    60Ap     2.816065    46App    2.902264
      61Ap     2.902997    62Ap     2.924682    63Ap     2.931695
      47App    2.932273    48App    2.960054    49App    2.968887
      64Ap     2.968958    65Ap     3.041948    66Ap     3.080394
      50App    3.081984    51App    3.086165    52App    3.184080
      67Ap     3.184997    68Ap     3.188254    53App    3.289893
      69Ap     3.290343    54App    3.329791    70Ap     3.332133
      71Ap     3.383438    72Ap     3.491991    55App    3.493756
      56App    3.512394    73Ap     3.528364    57App    3.575023
      58App    3.581496    74Ap     3.581960    75Ap     3.670724
      59App    3.671514    76Ap     3.692919    77Ap     3.725502
      60App    3.726043    78Ap     3.780202    61App    3.782501
      79Ap     3.817686    62App    3.921663    80Ap     3.922432
      81Ap     4.045343    63App    4.117111    82Ap     4.119235
      64App    4.154534    83Ap     4.156097    84Ap     4.187307
      65App    4.208595    85Ap     4.209143    86Ap     4.210939
      66App    4.215315    67App    4.322670    87Ap     4.324039
      68App    4.362430    88Ap     4.432371    69App    4.432997
      70App    4.446316    89Ap     4.524377    71App    4.524874
      72App    4.588503    90Ap     4.589213    91Ap     4.624751
      92Ap     4.719732    93Ap     4.779960    73App    4.783192
      74App    4.839845    94Ap     4.967669    95Ap     5.006822
      75App    5.007146    96Ap     5.233773    97Ap     5.247591
      76App    5.249612    77App    5.361203    98Ap     5.362765
      78App    5.481680

    Final Occupation by Irrep:
             Ap   App
    DOCC [    10,    6 ]
    SOCC [     1,    0 ]

  @DF-UKS Final Energy:  -157.81306382603859

   => Energetics <=

    Nuclear Repulsion Energy =            125.3946277172626367
    One-Electron Energy =                -458.7489036228249688
    Two-Electron Energy =                 195.8483560885327392
    DFT Exchange-Correlation Energy =     -20.3071440090090327
    Empirical Dispersion Energy =           0.0000000000000000
    VV10 Nonlocal Energy =                  0.0000000000000000
    Total Energy =                       -157.8130638260385865

  UHF NO Occupations:
  HONO-2 :    9 Ap 1.9996008
  HONO-1 :   10 Ap 1.9989804
  HONO-0 :   11 Ap 1.0000000
  LUNO+0 :   12 Ap 0.0010196
  LUNO+1 :   13 Ap 0.0003992
  LUNO+2 :    7App 0.0001977
  LUNO+3 :   14 Ap 0.0001974

Computation Completed

Properties will be evaluated at   0.000000,   0.000000,   0.000000 [a0]

Properties computed using the SCF density matrix

  Nuclear Dipole Moment: [e a0]
     X:     0.8272      Y:    -0.0031      Z:     0.0000

  Electronic Dipole Moment: [e a0]
     X:    -0.7493      Y:     0.0023      Z:     0.0000

  Dipole Moment: [e a0]
     X:     0.0779      Y:    -0.0007      Z:     0.0000     Total:     0.0779

  Dipole Moment: [D]
     X:     0.1980      Y:    -0.0019      Z:     0.0000     Total:     0.1980

*** tstop() called on n089 at Fri Nov  5 15:21:41 2021
Module time:
	user time   =     507.59 seconds =       8.46 minutes
	system time =       4.58 seconds =       0.08 minutes
	total time  =        129 seconds =       2.15 minutes
Total time:
	user time   =     507.59 seconds =       8.46 minutes
	system time =       4.58 seconds =       0.08 minutes
	total time  =        129 seconds =       2.15 minutes
Grab this energy -157.8130638260386
    Psi4 stopped on: Friday, 05 November 2021 03:21PM
    Psi4 wall time for execution: 0:02:08.80

*** Psi4 exiting successfully. Buy a developer a beer!
