                               Psi4 1.4a2.dev629

  ==> Input File <==

--------------------------------------------------------------------------
import os
memory 14 GB

molecule {
 C   -0.3233401721   -0.0000020512   -0.0000017734
 C    0.0611397924   -1.4009179504   -2.4263567282
 C    0.0610204895    2.8017596489   -0.0000483210
 C    0.0611407813   -1.4008374201    2.4264050466
 H    2.0869309051   -1.6481306350   -2.8451140148
 H   -0.7613919792   -0.3863833288   -4.0262793352
 H   -0.7695793730   -3.2903802709   -2.3501819293
 H    2.0867938290    3.2881037697   -0.0046524811
 H   -0.7616368591    3.6800245948    1.6784872578
 H   -0.7696516440    3.6804832909   -1.6745043180
 H    2.0869345697   -1.6400656188    2.8497692526
 H   -0.7615536429   -3.2936114337    2.3477979306
 H   -0.7694145735   -0.3900669092    4.0246794134
units bohr
0 2
}

basis {

assign 6-31g_2dfp_

[ 6-31g_2dfp_ ]

spherical

!----------------------------------------------------------------------
! Basis Set Exchange
! Version v0.8.13
! https://www.basissetexchange.org
!----------------------------------------------------------------------
!   Basis set: 6-31G(2df,p)
! Description: 6-31G(2df,p)
!        Role: orbital
!     Version: 0  (Data from the original Basis Set Exchange)
!----------------------------------------------------------------------

****
H     0
S    3   1.00
     18.7311370              0.03349460
      2.8253937              0.23472695
      0.6401217              0.81375733
S    1   1.00
      0.1612778              1.00000000
P    1   1.00
      1.5000000              1.0000000
P    1   1.00
      0.3750000              1.0000000
****
B     0
S    6   1.00
   2068.8823000              0.0018663
    310.6495700              0.0142515
     70.6830330              0.0695516
     19.8610800              0.2325729
      6.2993048              0.4670787
      2.1270270              0.3634314
SP   3   1.00
      4.7279710             -0.1303938              0.0745976
      1.1903377             -0.1307889              0.3078467
      0.3594117              1.1309444              0.7434568
SP   1   1.00
      0.1267512              1.0000000              1.0000000
D    1   1.00
      0.8020000              1.0000000
D    1   1.00
      0.2005000              1.0000000
F    1   1.00
      0.5000000              1.0000000
****
C     0
S    6   1.00
   3047.5249000              0.0018347
    457.3695100              0.0140373
    103.9486900              0.0688426
     29.2101550              0.2321844
      9.2866630              0.4679413
      3.1639270              0.3623120
SP   3   1.00
      7.8682724             -0.1193324              0.0689991
      1.8812885             -0.1608542              0.3164240
      0.5442493              1.1434564              0.7443083
SP   1   1.00
      0.1687144              1.0000000              1.0000000
D    1   1.00
      1.2520000              1.0000000
D    1   1.00
      0.3130000              1.0000000
F    1   1.00
      0.8000000              1.0000000
****
N     0
S    6   1.00
   4173.5110000              0.0018348
    627.4579000              0.0139950
    142.9021000              0.0685870
     40.2343300              0.2322410
     12.8202100              0.4690700
      4.3904370              0.3604550
SP   3   1.00
     11.6263580             -0.1149610              0.0675800
      2.7162800             -0.1691180              0.3239070
      0.7722180              1.1458520              0.7408950
SP   1   1.00
      0.2120313              1.0000000              1.0000000
D    1   1.00
      1.8260000              1.0000000
D    1   1.00
      0.4565000              1.0000000
F    1   1.00
      1.0000000              1.0000000
****
O     0
S    6   1.00
   5484.6717000              0.0018311
    825.2349500              0.0139501
    188.0469600              0.0684451
     52.9645000              0.2327143
     16.8975700              0.4701930
      5.7996353              0.3585209
SP   3   1.00
     15.5396160             -0.1107775              0.0708743
      3.5999336             -0.1480263              0.3397528
      1.0137618              1.1307670              0.7271586
SP   1   1.00
      0.2700058              1.0000000              1.0000000
D    1   1.00
      2.5840000              1.0000000
D    1   1.00
      0.6460000              1.0000000
F    1   1.00
      1.4000000              1.0000000
****
F     0
S    6   1.00
   7001.7130900              0.0018196169
   1051.3660900              0.0139160796
    239.2856900              0.0684053245
     67.3974453              0.233185760
     21.5199573              0.471267439
      7.40310130             0.356618546
SP   3   1.00
     20.8479528             -0.108506975            0.0716287243
      4.80830834            -0.146451658            0.3459121030
      1.34406986             1.128688580            0.7224699570
SP   1   1.00
      0.358151393            1.0000000              1.0000000
D    1   1.00
      3.5000000              1.0000000
D    1   1.00
      0.8750000              1.0000000
F    1   1.00
      1.8500000              1.0000000
****
Al     0
S    6   1.00
  13983.1000000              0.00194267
   2098.7500000              0.0148599
    477.7050000              0.0728494
    134.3600000              0.2468300
     42.8709000              0.4872580
     14.5189000              0.3234960
SP   6   1.00
    239.6680000             -0.00292619             0.00460285
     57.4419000             -0.0374080              0.0331990
     18.2859000             -0.1144870              0.1362820
      6.5991400              0.1156350              0.3304760
      2.4904900              0.6125950              0.4491460
      0.9445400              0.3937990              0.2657040
SP   3   1.00
      1.2779000             -0.2276060             -0.0175130
      0.3975900              0.00144583             0.2445330
      0.1600950              1.0927900              0.8049340
SP   1   1.00
      0.0556577              1.0000000              1.0000000
D    1   1.00
      0.6500000              1.0000000
D    1   1.00
      0.1625000              1.0000000
F    1   1.00
      0.2500000              1.0000000
****
Si     0
S    6   1.00
  16115.9000000              0.00195948
   2425.5800000              0.01492880
    553.8670000              0.07284780
    156.3400000              0.24613000
     50.0683000              0.48591400
     17.0178000              0.32500200
SP   6   1.00
    292.7180000             -0.00278094             0.00443826
     69.8731000             -0.03571460             0.03266790
     22.3363000             -0.11498500             0.13472100
      8.1503900              0.09356340             0.32867800
      3.1345800              0.60301700             0.44964000
      1.2254300              0.41895900             0.26137200
SP   3   1.00
      1.7273800             -0.24463000            -0.01779510
      0.5729220              0.00431572             0.25353900
      0.2221920              1.09818000             0.80066900
SP   1   1.00
      0.0778369              1.00000000             1.00000000
D    1   1.00
      0.9000000              1.0000000
D    1   1.00
      0.2250000              1.0000000
F    1   1.00
      0.3200000              1.0000000
****
P     0
S    6   1.00
  19413.3000000              0.0018516
   2909.4200000              0.0142062
    661.3640000              0.0699995
    185.7590000              0.2400790
     59.1943000              0.4847620
     20.0310000              0.3352000
SP   6   1.00
    339.4780000             -0.00278217             0.00456462
     81.0101000             -0.0360499              0.03369360
     25.8780000             -0.1166310              0.13975500
      9.4522100              0.0968328              0.33936200
      3.6656600              0.6144180              0.45092100
      1.4674600              0.4037980              0.23858600
SP   3   1.00
      2.1562300             -0.2529230             -0.01776530
      0.7489970              0.0328517              0.27405800
      0.2831450              1.0812500              0.78542100
SP   1   1.00
      0.0998317              1.0000000              1.00000000
D    1   1.00
      1.1000000              1.0000000
D    1   1.00
      0.2750000              1.0000000
F    1   1.00
      0.4500000              1.0000000
****
S     0
S    6   1.00
  21917.1000000              0.0018690
   3301.4900000              0.0142300
    754.1460000              0.0696960
    212.7110000              0.2384870
     67.9896000              0.4833070
     23.0515000              0.3380740
SP   6   1.00
    423.7350000             -0.0023767              0.0040610
    100.7100000             -0.0316930              0.0306810
     32.1599000             -0.1133170              0.1304520
     11.8079000              0.0560900              0.3272050
      4.6311000              0.5922550              0.4528510
      1.8702500              0.4550060              0.2560420
SP   3   1.00
      2.6158400             -0.2503740             -0.0145110
      0.9221670              0.0669570              0.3102630
      0.3412870              1.0545100              0.7544830
SP   1   1.00
      0.1171670              1.0000000              1.0000000
D    1   1.00
      1.3000000              1.0000000
D    1   1.00
      0.3250000              1.0000000
F    1   1.00
      0.5500000              1.0000000
****
Cl     0
S    6   1.00
  25180.1000000              0.0018330
   3780.3500000              0.0140340
    860.4740000              0.0690970
    242.1450000              0.2374520
     77.3349000              0.4830340
     26.2470000              0.3398560
SP   6   1.00
    491.7650000             -0.0022974              0.0039894
    116.9840000             -0.0307140              0.0303180
     37.4153000             -0.1125280              0.1298800
     13.7834000              0.0450160              0.3279510
      5.4521500              0.5893530              0.4535270
      2.2258800              0.4652060              0.2521540
SP   3   1.00
      3.1864900             -0.2518300             -0.0142990
      1.1442700              0.0615890              0.3235720
      0.4203770              1.0601800              0.7435070
SP   1   1.00
      0.1426570              1.0000000              1.0000000
D    1   1.00
      1.5000000              1.0000000
D    1   1.00
      0.3750000              1.0000000
F    1   1.00
      0.7000000              1.0000000
****
}

set {
reference uhf
freeze_core true
e_convergence 10
d_convergence 10
dft_spherical_points 1202
dft_radial_points 99
}

e = energy('b3lyp')

print_out('Grab this energy {0}'.format(e))
--------------------------------------------------------------------------

    Molecular point group: c1

    Geometry (in Bohr), charge = 0, multiplicity = 2:

       Center              X                  Y                   Z               Mass
    ------------   -----------------  -----------------  -----------------  -----------------
         C           -0.323340340811    -0.000002050810    -0.000001431330    12.000000000000
         C            0.061139623689    -1.400917950010    -2.426356386130    12.000000000000
         C            0.061020320789     2.801759649290    -0.000047978930    12.000000000000
         C            0.061140612589    -1.400837419710     2.426405388670    12.000000000000
         H            2.086930736389    -1.648130634610    -2.845113672730     1.007825032230
         H           -0.761392147911    -0.386383328410    -4.026278993130     1.007825032230
         H           -0.769579541711    -3.290380270510    -2.350181587230     1.007825032230
         H            2.086793660289     3.288103770090    -0.004652139030     1.007825032230
         H           -0.761637027811     3.680024595190     1.678487599870     1.007825032230
         H           -0.769651812711     3.680483291290    -1.674503975930     1.007825032230
         H            2.086934400989    -1.640065618410     2.849769594670     1.007825032230
         H           -0.761553811611    -3.293611433310     2.347798272670     1.007825032230
         H           -0.769414742211    -0.390066908810     4.024679755470     1.007825032230

  Charge       = 0
  Multiplicity = 2
  Basis Set: ANONYMOUS85277752
    Blend: 6-31G_2DFP_
  Basis Set: (ANONYMOUS85277752 AUX)
    Blend: DEF2-UNIVERSAL-JKFIT

    Orbital Energies [Eh]
    ---------------------

    Alpha Occupied:

       1A    -10.180342     2A    -10.167030     3A    -10.167030
       4A    -10.166984     5A     -0.797765     6A     -0.686187
       7A     -0.686186     8A     -0.530775     9A     -0.441123
      10A     -0.434671    11A     -0.434670    12A     -0.382600
      13A     -0.382598    14A     -0.363611    15A     -0.338000
      16A     -0.337999    17A     -0.168961

    Alpha Virtual:

      18A      0.076073    19A      0.134156    20A      0.134157
      21A      0.142629    22A      0.142629    23A      0.154879
      24A      0.178777    25A      0.178777    26A      0.203546
      27A      0.214802    28A      0.275985    29A      0.275987
      30A      0.399227    31A      0.399231    32A      0.403344
      33A      0.424097    34A      0.424097    35A      0.456593
      36A      0.495389    37A      0.495390    38A      0.512147
      39A      0.513993    40A      0.578813    41A      0.578822
      42A      0.591633    43A      0.591635    44A      0.602568
      45A      0.624762    46A      0.631778    47A      0.636243
      48A      0.636247    49A      0.663411    50A      0.663412
      51A      0.683850    52A      0.683852    53A      0.734994
      54A      0.825407    55A      0.825410    56A      0.853914
      57A      0.915021    58A      0.915027    59A      0.944012
      60A      0.944719    61A      0.961289    62A      0.961305
      63A      1.003465    64A      1.128106    65A      1.128118
      66A      1.142223    67A      1.163262    68A      1.163275
      69A      1.223324    70A      1.274486    71A      1.274489
      72A      1.279351    73A      1.324358    74A      1.324360
      75A      1.355978    76A      1.366050    77A      1.366055
      78A      1.392473    79A      1.404052    80A      1.404055
      81A      1.417106    82A      1.417112    83A      1.427905
      84A      1.491467    85A      1.499102    86A      1.542826
      87A      1.542828    88A      1.574442    89A      1.574444
      90A      1.669825    91A      1.739413    92A      1.739425
      93A      1.768315    94A      1.831394    95A      1.831395
      96A      1.971723    97A      2.018301    98A      2.019041
      99A      2.019045   100A      2.052633   101A      2.052635
     102A      2.738486   103A      2.738487   104A      2.790916
     105A      2.811427   106A      2.889952   107A      2.889958
     108A      2.894942   109A      2.929491   110A      2.929499
     111A      2.958993   112A      2.964367   113A      2.964381
     114A      3.034008   115A      3.071277   116A      3.071290
     117A      3.084349   118A      3.168778   119A      3.168786
     120A      3.180583   121A      3.285314   122A      3.285314
     123A      3.327157   124A      3.327163   125A      3.375621
     126A      3.490156   127A      3.490176   128A      3.513999
     129A      3.525337   130A      3.568382   131A      3.568402
     132A      3.575147   133A      3.666388   134A      3.666396
     135A      3.679651   136A      3.694111   137A      3.694127
     138A      3.776788   139A      3.776814   140A      3.789116
     141A      3.912217   142A      3.912224   143A      4.034460
     144A      4.111374   145A      4.111378   146A      4.148124
     147A      4.148132   148A      4.173243   149A      4.202650
     150A      4.203070   151A      4.203073   152A      4.210846
     153A      4.315954   154A      4.315974   155A      4.358974
     156A      4.424456   157A      4.424459   158A      4.443425
     159A      4.516836   160A      4.516838   161A      4.578269
     162A      4.578281   163A      4.617531   164A      4.709442
     165A      4.774581   166A      4.774588   167A      4.836897
     168A      4.962863   169A      5.002943   170A      5.002955
     171A      5.228042   172A      5.246807   173A      5.246807
     174A      5.355493   175A      5.355506   176A      5.479346

    Beta Occupied:

       1A    -10.167783     2A    -10.167783     3A    -10.167758
       4A    -10.166519     5A     -0.781090     6A     -0.683989
       7A     -0.683989     8A     -0.511747     9A     -0.431042
      10A     -0.431041    11A     -0.421821    12A     -0.376685
      13A     -0.376683    14A     -0.362595    15A     -0.333123
      16A     -0.333122

    Beta Virtual:

      17A     -0.025742    18A      0.077082    19A      0.135046
      20A      0.135047    21A      0.144499    22A      0.144499
      23A      0.163338    24A      0.182448    25A      0.182449
      26A      0.215030    27A      0.218930    28A      0.282332
      29A      0.282335    30A      0.400396    31A      0.400400
      32A      0.419792    33A      0.426908    34A      0.426909
      35A      0.468501    36A      0.497650    37A      0.497650
      38A      0.513895    39A      0.556326    40A      0.584364
      41A      0.584372    42A      0.597813    43A      0.597814
      44A      0.609992    45A      0.628136    46A      0.631934
      47A      0.639529    48A      0.639533    49A      0.666975
      50A      0.666976    51A      0.686485    52A      0.686487
      53A      0.757518    54A      0.830575    55A      0.830578
      56A      0.855268    57A      0.922992    58A      0.922999
      59A      0.945944    60A      0.953553    61A      0.966595
      62A      0.966611    63A      1.008705    64A      1.132134
      65A      1.132145    66A      1.155603    67A      1.168335
      68A      1.168348    69A      1.232296    70A      1.280083
      71A      1.280087    72A      1.285104    73A      1.329347
      74A      1.329349    75A      1.365389    76A      1.371293
      77A      1.371298    78A      1.393536    79A      1.407517
      80A      1.407520    81A      1.422157    82A      1.422163
      83A      1.428173    84A      1.492528    85A      1.509531
      86A      1.547234    87A      1.547234    88A      1.582315
      89A      1.582315    90A      1.674672    91A      1.745175
      92A      1.745186    93A      1.779095    94A      1.835249
      95A      1.835250    96A      1.972583    97A      2.025445
      98A      2.025448    99A      2.039675   100A      2.059347
     101A      2.059349   102A      2.746821   103A      2.746822
     104A      2.811792   105A      2.816099   106A      2.902641
     107A      2.902646   108A      2.924654   109A      2.931969
     110A      2.931978   111A      2.960055   112A      2.968911
     113A      2.968925   114A      3.041942   115A      3.081188
     116A      3.081200   117A      3.086166   118A      3.184535
     119A      3.184539   120A      3.188256   121A      3.290112
     122A      3.290112   123A      3.330963   124A      3.330968
     125A      3.383439   126A      3.492887   127A      3.492907
     128A      3.512368   129A      3.528377   130A      3.575010
     131A      3.581721   132A      3.581743   133A      3.671130
     134A      3.671141   135A      3.692946   136A      3.725748
     137A      3.725764   138A      3.781313   139A      3.781339
     140A      3.817663   141A      3.922034   142A      3.922041
     143A      4.045347   144A      4.118190   145A      4.118192
     146A      4.155331   147A      4.155340   148A      4.187305
     149A      4.209009   150A      4.209012   151A      4.210616
     152A      4.215319   153A      4.323395   154A      4.323415
     155A      4.362336   156A      4.432673   157A      4.432676
     158A      4.446304   159A      4.524626   160A      4.524628
     161A      4.588871   162A      4.588883   163A      4.624723
     164A      4.719787   165A      4.781534   166A      4.781542
     167A      4.839814   168A      4.967658   169A      5.006982
     170A      5.006994   171A      5.233758   172A      5.248591
     173A      5.248591   174A      5.361973   175A      5.361986
     176A      5.481668

    Final Occupation by Irrep:
              A
    DOCC [    16 ]
    SOCC [     1 ]

  @DF-UKS Final Energy:  -157.81307442823370

   => Energetics <=

    Nuclear Repulsion Energy =            125.3945624528599154
    One-Electron Energy =                -458.7488061369344905
    Two-Electron Energy =                 195.8483102776968963
    DFT Exchange-Correlation Energy =     -20.3071410218560331
    Empirical Dispersion Energy =           0.0000000000000000
    VV10 Nonlocal Energy =                  0.0000000000000000
    Total Energy =                       -157.8130744282337048

  UHF NO Occupations:
  HONO-2 :   15  A 1.9996009
  HONO-1 :   16  A 1.9989805
  HONO-0 :   17  A 1.0000000
  LUNO+0 :   18  A 0.0010195
  LUNO+1 :   19  A 0.0003991
  LUNO+2 :   20  A 0.0001975
  LUNO+3 :   21  A 0.0001975

Computation Completed

Properties will be evaluated at   0.000000,   0.000000,   0.000000 [a0]

Properties computed using the SCF density matrix

  Nuclear Dipole Moment: [e a0]
     X:     0.8272      Y:    -0.0000      Z:     0.0000

  Electronic Dipole Moment: [e a0]
     X:    -0.7493      Y:     0.0000      Z:    -0.0000

  Dipole Moment: [e a0]
     X:     0.0779      Y:     0.0000      Z:     0.0000     Total:     0.0779

  Dipole Moment: [D]
     X:     0.1980      Y:     0.0000      Z:     0.0000     Total:     0.1980

*** tstop() called on n021 at Fri Nov  5 15:43:02 2021
Module time:
	user time   =     636.75 seconds =      10.61 minutes
	system time =      12.79 seconds =       0.21 minutes
	total time  =        164 seconds =       2.73 minutes
Total time:
	user time   =     636.75 seconds =      10.61 minutes
	system time =      12.79 seconds =       0.21 minutes
	total time  =        164 seconds =       2.73 minutes
Grab this energy -157.8130744282337
    Psi4 stopped on: Friday, 05 November 2021 03:43PM
    Psi4 wall time for execution: 0:02:43.42

*** Psi4 exiting successfully. Buy a developer a beer!
