                               Psi4 1.4a2.dev629

  ==> Input File <==

--------------------------------------------------------------------------
import os
memory 14 GB

molecule {
 C   -0.3233405983   -0.0002268650    0.0002238303
 C    0.0612013924   -1.4018646649   -2.4267717724
 C    0.0611873689    2.8040292665    0.0004822800
 C    0.0609107032   -1.3994814243    2.4236079436
 H    2.0869671855   -1.6437537863   -2.8473515191
 H   -0.7653692085   -0.3879338052   -4.0253502547
 H   -0.7656996738   -3.2918268442   -2.3488285301
 H    2.0868773856    3.2874219975   -0.0001859394
 H   -0.7658357410    3.6796081733    1.6765588462
 H   -0.7657133368    3.6795824541   -1.6767456607
 H    2.0868211346   -1.6445082574    2.8482866382
 H   -0.7654112934   -3.2922399718    2.3499009825
 H   -0.7652031953   -0.3888305860    4.0261731556
units bohr
0 2
}

basis {

assign 6-31g_2dfp_

[ 6-31g_2dfp_ ]

spherical

!----------------------------------------------------------------------
! Basis Set Exchange
! Version v0.8.13
! https://www.basissetexchange.org
!----------------------------------------------------------------------
!   Basis set: 6-31G(2df,p)
! Description: 6-31G(2df,p)
!        Role: orbital
!     Version: 0  (Data from the original Basis Set Exchange)
!----------------------------------------------------------------------

****
H     0
S    3   1.00
     18.7311370              0.03349460
      2.8253937              0.23472695
      0.6401217              0.81375733
S    1   1.00
      0.1612778              1.00000000
P    1   1.00
      1.5000000              1.0000000
P    1   1.00
      0.3750000              1.0000000
****
B     0
S    6   1.00
   2068.8823000              0.0018663
    310.6495700              0.0142515
     70.6830330              0.0695516
     19.8610800              0.2325729
      6.2993048              0.4670787
      2.1270270              0.3634314
SP   3   1.00
      4.7279710             -0.1303938              0.0745976
      1.1903377             -0.1307889              0.3078467
      0.3594117              1.1309444              0.7434568
SP   1   1.00
      0.1267512              1.0000000              1.0000000
D    1   1.00
      0.8020000              1.0000000
D    1   1.00
      0.2005000              1.0000000
F    1   1.00
      0.5000000              1.0000000
****
C     0
S    6   1.00
   3047.5249000              0.0018347
    457.3695100              0.0140373
    103.9486900              0.0688426
     29.2101550              0.2321844
      9.2866630              0.4679413
      3.1639270              0.3623120
SP   3   1.00
      7.8682724             -0.1193324              0.0689991
      1.8812885             -0.1608542              0.3164240
      0.5442493              1.1434564              0.7443083
SP   1   1.00
      0.1687144              1.0000000              1.0000000
D    1   1.00
      1.2520000              1.0000000
D    1   1.00
      0.3130000              1.0000000
F    1   1.00
      0.8000000              1.0000000
****
N     0
S    6   1.00
   4173.5110000              0.0018348
    627.4579000              0.0139950
    142.9021000              0.0685870
     40.2343300              0.2322410
     12.8202100              0.4690700
      4.3904370              0.3604550
SP   3   1.00
     11.6263580             -0.1149610              0.0675800
      2.7162800             -0.1691180              0.3239070
      0.7722180              1.1458520              0.7408950
SP   1   1.00
      0.2120313              1.0000000              1.0000000
D    1   1.00
      1.8260000              1.0000000
D    1   1.00
      0.4565000              1.0000000
F    1   1.00
      1.0000000              1.0000000
****
O     0
S    6   1.00
   5484.6717000              0.0018311
    825.2349500              0.0139501
    188.0469600              0.0684451
     52.9645000              0.2327143
     16.8975700              0.4701930
      5.7996353              0.3585209
SP   3   1.00
     15.5396160             -0.1107775              0.0708743
      3.5999336             -0.1480263              0.3397528
      1.0137618              1.1307670              0.7271586
SP   1   1.00
      0.2700058              1.0000000              1.0000000
D    1   1.00
      2.5840000              1.0000000
D    1   1.00
      0.6460000              1.0000000
F    1   1.00
      1.4000000              1.0000000
****
F     0
S    6   1.00
   7001.7130900              0.0018196169
   1051.3660900              0.0139160796
    239.2856900              0.0684053245
     67.3974453              0.233185760
     21.5199573              0.471267439
      7.40310130             0.356618546
SP   3   1.00
     20.8479528             -0.108506975            0.0716287243
      4.80830834            -0.146451658            0.3459121030
      1.34406986             1.128688580            0.7224699570
SP   1   1.00
      0.358151393            1.0000000              1.0000000
D    1   1.00
      3.5000000              1.0000000
D    1   1.00
      0.8750000              1.0000000
F    1   1.00
      1.8500000              1.0000000
****
Al     0
S    6   1.00
  13983.1000000              0.00194267
   2098.7500000              0.0148599
    477.7050000              0.0728494
    134.3600000              0.2468300
     42.8709000              0.4872580
     14.5189000              0.3234960
SP   6   1.00
    239.6680000             -0.00292619             0.00460285
     57.4419000             -0.0374080              0.0331990
     18.2859000             -0.1144870              0.1362820
      6.5991400              0.1156350              0.3304760
      2.4904900              0.6125950              0.4491460
      0.9445400              0.3937990              0.2657040
SP   3   1.00
      1.2779000             -0.2276060             -0.0175130
      0.3975900              0.00144583             0.2445330
      0.1600950              1.0927900              0.8049340
SP   1   1.00
      0.0556577              1.0000000              1.0000000
D    1   1.00
      0.6500000              1.0000000
D    1   1.00
      0.1625000              1.0000000
F    1   1.00
      0.2500000              1.0000000
****
Si     0
S    6   1.00
  16115.9000000              0.00195948
   2425.5800000              0.01492880
    553.8670000              0.07284780
    156.3400000              0.24613000
     50.0683000              0.48591400
     17.0178000              0.32500200
SP   6   1.00
    292.7180000             -0.00278094             0.00443826
     69.8731000             -0.03571460             0.03266790
     22.3363000             -0.11498500             0.13472100
      8.1503900              0.09356340             0.32867800
      3.1345800              0.60301700             0.44964000
      1.2254300              0.41895900             0.26137200
SP   3   1.00
      1.7273800             -0.24463000            -0.01779510
      0.5729220              0.00431572             0.25353900
      0.2221920              1.09818000             0.80066900
SP   1   1.00
      0.0778369              1.00000000             1.00000000
D    1   1.00
      0.9000000              1.0000000
D    1   1.00
      0.2250000              1.0000000
F    1   1.00
      0.3200000              1.0000000
****
P     0
S    6   1.00
  19413.3000000              0.0018516
   2909.4200000              0.0142062
    661.3640000              0.0699995
    185.7590000              0.2400790
     59.1943000              0.4847620
     20.0310000              0.3352000
SP   6   1.00
    339.4780000             -0.00278217             0.00456462
     81.0101000             -0.0360499              0.03369360
     25.8780000             -0.1166310              0.13975500
      9.4522100              0.0968328              0.33936200
      3.6656600              0.6144180              0.45092100
      1.4674600              0.4037980              0.23858600
SP   3   1.00
      2.1562300             -0.2529230             -0.01776530
      0.7489970              0.0328517              0.27405800
      0.2831450              1.0812500              0.78542100
SP   1   1.00
      0.0998317              1.0000000              1.00000000
D    1   1.00
      1.1000000              1.0000000
D    1   1.00
      0.2750000              1.0000000
F    1   1.00
      0.4500000              1.0000000
****
S     0
S    6   1.00
  21917.1000000              0.0018690
   3301.4900000              0.0142300
    754.1460000              0.0696960
    212.7110000              0.2384870
     67.9896000              0.4833070
     23.0515000              0.3380740
SP   6   1.00
    423.7350000             -0.0023767              0.0040610
    100.7100000             -0.0316930              0.0306810
     32.1599000             -0.1133170              0.1304520
     11.8079000              0.0560900              0.3272050
      4.6311000              0.5922550              0.4528510
      1.8702500              0.4550060              0.2560420
SP   3   1.00
      2.6158400             -0.2503740             -0.0145110
      0.9221670              0.0669570              0.3102630
      0.3412870              1.0545100              0.7544830
SP   1   1.00
      0.1171670              1.0000000              1.0000000
D    1   1.00
      1.3000000              1.0000000
D    1   1.00
      0.3250000              1.0000000
F    1   1.00
      0.5500000              1.0000000
****
Cl     0
S    6   1.00
  25180.1000000              0.0018330
   3780.3500000              0.0140340
    860.4740000              0.0690970
    242.1450000              0.2374520
     77.3349000              0.4830340
     26.2470000              0.3398560
SP   6   1.00
    491.7650000             -0.0022974              0.0039894
    116.9840000             -0.0307140              0.0303180
     37.4153000             -0.1125280              0.1298800
     13.7834000              0.0450160              0.3279510
      5.4521500              0.5893530              0.4535270
      2.2258800              0.4652060              0.2521540
SP   3   1.00
      3.1864900             -0.2518300             -0.0142990
      1.1442700              0.0615890              0.3235720
      0.4203770              1.0601800              0.7435070
SP   1   1.00
      0.1426570              1.0000000              1.0000000
D    1   1.00
      1.5000000              1.0000000
D    1   1.00
      0.3750000              1.0000000
F    1   1.00
      0.7000000              1.0000000
****
}

set {
reference uhf
freeze_core true
e_convergence 10
d_convergence 10
dft_spherical_points 1202
dft_radial_points 99
}

e = energy('b3lyp')

print_out('Grab this energy {0}'.format(e))
--------------------------------------------------------------------------

    Molecular point group: c1

    Geometry (in Bohr), charge = 0, multiplicity = 2:

       Center              X                  Y                   Z               Mass
    ------------   -----------------  -----------------  -----------------  -----------------
         C           -0.323340376999    -0.000699539077     0.000697204585    12.000000000000
         C            0.061201613701    -1.402337338977    -2.426298398115    12.000000000000
         C            0.061187590201     2.803556592423     0.000955654285    12.000000000000
         C            0.060910924501    -1.399954098377     2.424081317885    12.000000000000
         H            2.086967406801    -1.644226460377    -2.846878144815     1.007825032230
         H           -0.765368987199    -0.388406479277    -4.024876880415     1.007825032230
         H           -0.765699452499    -3.292299518277    -2.348355155815     1.007825032230
         H            2.086877606901     3.286949323423     0.000287434885     1.007825032230
         H           -0.765835519699     3.679135499223     1.677032220485     1.007825032230
         H           -0.765713115499     3.679109780023    -1.676272286415     1.007825032230
         H            2.086821355901    -1.644980931477     2.848760012485     1.007825032230
         H           -0.765411072099    -3.292712645877     2.350374356785     1.007825032230
         H           -0.765202973999    -0.389303260077     4.026646529885     1.007825032230

  Charge       = 0
  Multiplicity = 2
  Basis Set: ANONYMOUSF596CB66
    Blend: 6-31G_2DFP_
  Basis Set: (ANONYMOUSF596CB66 AUX)
    Blend: DEF2-UNIVERSAL-JKFIT

    Orbital Energies [Eh]
    ---------------------

    Alpha Occupied:

       1A    -10.180342     2A    -10.167077     3A    -10.167006
       4A    -10.166963     5A     -0.797766     6A     -0.686220
       7A     -0.686154     8A     -0.530777     9A     -0.441124
      10A     -0.434787    11A     -0.434555    12A     -0.382727
      13A     -0.382471    14A     -0.363613    15A     -0.338293
      16A     -0.337703    17A     -0.168961

    Alpha Virtual:

      18A      0.076073    19A      0.134129    20A      0.134179
      21A      0.142539    22A      0.142720    23A      0.154880
      24A      0.178662    25A      0.178894    26A      0.203543
      27A      0.214802    28A      0.275668    29A      0.276305
      30A      0.399212    31A      0.399241    32A      0.403348
      33A      0.424036    34A      0.424160    35A      0.456593
      36A      0.495358    37A      0.495419    38A      0.512160
      39A      0.513981    40A      0.578758    41A      0.578867
      42A      0.591550    43A      0.591723    44A      0.602576
      45A      0.624762    46A      0.631769    47A      0.636020
      48A      0.636481    49A      0.663325    50A      0.663498
      51A      0.683823    52A      0.683881    53A      0.734994
      54A      0.825329    55A      0.825487    56A      0.853916
      57A      0.915007    58A      0.915045    59A      0.944126
      60A      0.944613    61A      0.961240    62A      0.961344
      63A      1.003451    64A      1.127999    65A      1.128209
      66A      1.142234    67A      1.162857    68A      1.163684
      69A      1.223324    70A      1.274058    71A      1.274890
      72A      1.279393    73A      1.324266    74A      1.324450
      75A      1.355990    76A      1.365844    77A      1.366276
      78A      1.392443    79A      1.403793    80A      1.404294
      81A      1.416887    82A      1.417328    83A      1.427935
      84A      1.491488    85A      1.499080    86A      1.542728
      87A      1.542925    88A      1.574170    89A      1.574718
      90A      1.669817    91A      1.739237    92A      1.739609
      93A      1.768314    94A      1.830690    95A      1.832113
      96A      1.971730    97A      2.018144    98A      2.018384
      99A      2.019859   100A      2.051678   101A      2.053619
     102A      2.738314   103A      2.738657   104A      2.790923
     105A      2.811426   106A      2.889843   107A      2.890054
     108A      2.894955   109A      2.929405   110A      2.929585
     111A      2.958992   112A      2.964260   113A      2.964492
     114A      3.034009   115A      3.071087   116A      3.071480
     117A      3.084353   118A      3.168506   119A      3.169015
     120A      3.180627   121A      3.285299   122A      3.285330
     123A      3.326892   124A      3.327424   125A      3.375611
     126A      3.489690   127A      3.490610   128A      3.514015
     129A      3.525331   130A      3.568284   131A      3.568507
     132A      3.575142   133A      3.665375   134A      3.667345
     135A      3.679678   136A      3.693963   137A      3.694303
     138A      3.776530   139A      3.777066   140A      3.789124
     141A      3.911165   142A      3.913289   143A      4.034451
     144A      4.111145   145A      4.111598   146A      4.147700
     147A      4.148539   148A      4.173250   149A      4.202264
     150A      4.202657   151A      4.203890   152A      4.210871
     153A      4.314899   154A      4.316981   155A      4.358983
     156A      4.422990   157A      4.425754   158A      4.443617
     159A      4.515924   160A      4.517760   161A      4.578248
     162A      4.578285   163A      4.617544   164A      4.709451
     165A      4.774132   166A      4.774983   167A      4.836939
     168A      4.962794   169A      5.002009   170A      5.003979
     171A      5.228039   172A      5.246530   173A      5.247092
     174A      5.355406   175A      5.355599   176A      5.479345

    Beta Occupied:

       1A    -10.167838     2A    -10.167760     3A    -10.167726
       4A    -10.166519     5A     -0.781091     6A     -0.684030
       7A     -0.683949     8A     -0.511748     9A     -0.431160
      10A     -0.430924    11A     -0.421821    12A     -0.376840
      13A     -0.376527    14A     -0.362597    15A     -0.333417
      16A     -0.332825

    Beta Virtual:

      17A     -0.025743    18A      0.077082    19A      0.135040
      20A      0.135049    21A      0.144433    22A      0.144567
      23A      0.163339    24A      0.182351    25A      0.182548
      26A      0.215032    27A      0.218926    28A      0.282029
      29A      0.282640    30A      0.400386    31A      0.400408
      32A      0.419792    33A      0.426845    34A      0.426972
      35A      0.468501    36A      0.497609    37A      0.497691
      38A      0.513895    39A      0.556325    40A      0.584301
      41A      0.584425    42A      0.597730    43A      0.597901
      44A      0.610000    45A      0.628135    46A      0.631928
      47A      0.639309    48A      0.639761    49A      0.666880
      50A      0.667070    51A      0.686476    52A      0.686499
      53A      0.757517    54A      0.830491    55A      0.830662
      56A      0.855269    57A      0.922975    58A      0.923020
      59A      0.945962    60A      0.953541    61A      0.966551
      62A      0.966645    63A      1.008691    64A      1.132036
      65A      1.132238    66A      1.155598    67A      1.167904
      68A      1.168787    69A      1.232297    70A      1.279650
      71A      1.280492    72A      1.285147    73A      1.329275
      74A      1.329420    75A      1.365406    76A      1.371125
      77A      1.371479    78A      1.393503    79A      1.407333
      80A      1.407685    81A      1.421953    82A      1.422351
      83A      1.428214    84A      1.492536    85A      1.509523
      86A      1.547123    87A      1.547345    88A      1.582035
      89A      1.582597    90A      1.674665    91A      1.744993
      92A      1.745376    93A      1.779095    94A      1.834559
      95A      1.835954    96A      1.972590    97A      2.024686
      98A      2.026219    99A      2.039651   100A      2.058393
     101A      2.060346   102A      2.746681   103A      2.746961
     104A      2.811838   105A      2.816058   106A      2.902564
     107A      2.902721   108A      2.924644   109A      2.931908
     110A      2.932051   111A      2.960055   112A      2.968783
     113A      2.969056   114A      3.041944   115A      3.081005
     116A      3.081374   117A      3.086178   118A      3.184223
     119A      3.184694   120A      3.188412   121A      3.290091
     122A      3.290136   123A      3.330708   124A      3.331216
     125A      3.383431   126A      3.492387   127A      3.493371
     128A      3.512382   129A      3.528376   130A      3.574992
     131A      3.581606   132A      3.581871   133A      3.670096
     134A      3.672134   135A      3.692972   136A      3.725571
     137A      3.725951   138A      3.780993   139A      3.781651
     140A      3.817671   141A      3.921053   142A      3.923034
     143A      4.045338   144A      4.117817   145A      4.118554
     146A      4.155045   147A      4.155617   148A      4.187306
     149A      4.208402   150A      4.209365   151A      4.210884
     152A      4.215349   153A      4.322296   154A      4.324461
     155A      4.362347   156A      4.431208   157A      4.433916
     158A      4.446554   159A      4.523720   160A      4.525542
     161A      4.588827   162A      4.588909   163A      4.624737
     164A      4.719796   165A      4.781112   166A      4.781907
     167A      4.839858   168A      4.967591   169A      5.006068
     170A      5.007998   171A      5.233755   172A      5.248324
     173A      5.248866   174A      5.361857   175A      5.362110
     176A      5.481667

    Final Occupation by Irrep:
              A
    DOCC [    16 ]
    SOCC [     1 ]

  @DF-UKS Final Energy:  -157.81306944593391

   => Energetics <=

    Nuclear Repulsion Energy =            125.3945862536602220
    One-Electron Energy =                -458.7488356384143913
    Two-Electron Energy =                 195.8483228661368116
    DFT Exchange-Correlation Energy =     -20.3071429273165691
    Empirical Dispersion Energy =           0.0000000000000000
    VV10 Nonlocal Energy =                  0.0000000000000000
    Total Energy =                       -157.8130694459339054

  UHF NO Occupations:
  HONO-2 :   15  A 1.9996009
  HONO-1 :   16  A 1.9989804
  HONO-0 :   17  A 1.0000000
  LUNO+0 :   18  A 0.0010196
  LUNO+1 :   19  A 0.0003991
  LUNO+2 :   20  A 0.0001981
  LUNO+3 :   21  A 0.0001970

Computation Completed

Properties will be evaluated at   0.000000,   0.000000,   0.000000 [a0]

Properties computed using the SCF density matrix

  Nuclear Dipole Moment: [e a0]
     X:     0.8272      Y:    -0.0033      Z:     0.0033

  Electronic Dipole Moment: [e a0]
     X:    -0.7493      Y:     0.0034      Z:    -0.0034

  Dipole Moment: [e a0]
     X:     0.0779      Y:     0.0001      Z:    -0.0001     Total:     0.0779

  Dipole Moment: [D]
     X:     0.1980      Y:     0.0002      Z:    -0.0002     Total:     0.1980

*** tstop() called on n058 at Fri Nov  5 12:54:28 2021
Module time:
	user time   =     508.08 seconds =       8.47 minutes
	system time =      11.23 seconds =       0.19 minutes
	total time  =        131 seconds =       2.18 minutes
Total time:
	user time   =     508.08 seconds =       8.47 minutes
	system time =      11.23 seconds =       0.19 minutes
	total time  =        131 seconds =       2.18 minutes
Grab this energy -157.8130694459339
    Psi4 stopped on: Friday, 05 November 2021 12:54PM
    Psi4 wall time for execution: 0:02:10.66

*** Psi4 exiting successfully. Buy a developer a beer!
