                               Psi4 1.4a2.dev629

  ==> Input File <==

--------------------------------------------------------------------------
import os
memory 14 GB

molecule {
 C   -0.3233170538   -0.0000017344   -0.0002466632
 C    0.0602730689   -1.4013244630   -2.4270070424
 C    0.0611137501    2.8024186926    0.0001482055
 C    0.0621957370   -1.4010887303    2.4268953049
 H    2.0809698591   -1.6424443808   -2.8427274314
 H   -0.7648146324   -0.3912907646   -4.0259898300
 H   -0.7659387977   -3.2911162065   -2.3534140800
 H    2.0836453636    3.2884628788    0.0018521579
 H   -0.7650832380    3.6814702958    1.6731388832
 H   -0.7631576317    3.6786378348   -1.6742840904
 H    2.0865872609   -1.6461129485    2.8527860501
 H   -0.7621402221   -3.2878496434    2.3470083346
 H   -0.7629413407   -0.3897851439    4.0218402013
units bohr
0 2
}

basis {

assign 6-31g_2dfp_

[ 6-31g_2dfp_ ]

spherical

!----------------------------------------------------------------------
! Basis Set Exchange
! Version v0.8.13
! https://www.basissetexchange.org
!----------------------------------------------------------------------
!   Basis set: 6-31G(2df,p)
! Description: 6-31G(2df,p)
!        Role: orbital
!     Version: 0  (Data from the original Basis Set Exchange)
!----------------------------------------------------------------------

****
H     0
S    3   1.00
     18.7311370              0.03349460
      2.8253937              0.23472695
      0.6401217              0.81375733
S    1   1.00
      0.1612778              1.00000000
P    1   1.00
      1.5000000              1.0000000
P    1   1.00
      0.3750000              1.0000000
****
B     0
S    6   1.00
   2068.8823000              0.0018663
    310.6495700              0.0142515
     70.6830330              0.0695516
     19.8610800              0.2325729
      6.2993048              0.4670787
      2.1270270              0.3634314
SP   3   1.00
      4.7279710             -0.1303938              0.0745976
      1.1903377             -0.1307889              0.3078467
      0.3594117              1.1309444              0.7434568
SP   1   1.00
      0.1267512              1.0000000              1.0000000
D    1   1.00
      0.8020000              1.0000000
D    1   1.00
      0.2005000              1.0000000
F    1   1.00
      0.5000000              1.0000000
****
C     0
S    6   1.00
   3047.5249000              0.0018347
    457.3695100              0.0140373
    103.9486900              0.0688426
     29.2101550              0.2321844
      9.2866630              0.4679413
      3.1639270              0.3623120
SP   3   1.00
      7.8682724             -0.1193324              0.0689991
      1.8812885             -0.1608542              0.3164240
      0.5442493              1.1434564              0.7443083
SP   1   1.00
      0.1687144              1.0000000              1.0000000
D    1   1.00
      1.2520000              1.0000000
D    1   1.00
      0.3130000              1.0000000
F    1   1.00
      0.8000000              1.0000000
****
N     0
S    6   1.00
   4173.5110000              0.0018348
    627.4579000              0.0139950
    142.9021000              0.0685870
     40.2343300              0.2322410
     12.8202100              0.4690700
      4.3904370              0.3604550
SP   3   1.00
     11.6263580             -0.1149610              0.0675800
      2.7162800             -0.1691180              0.3239070
      0.7722180              1.1458520              0.7408950
SP   1   1.00
      0.2120313              1.0000000              1.0000000
D    1   1.00
      1.8260000              1.0000000
D    1   1.00
      0.4565000              1.0000000
F    1   1.00
      1.0000000              1.0000000
****
O     0
S    6   1.00
   5484.6717000              0.0018311
    825.2349500              0.0139501
    188.0469600              0.0684451
     52.9645000              0.2327143
     16.8975700              0.4701930
      5.7996353              0.3585209
SP   3   1.00
     15.5396160             -0.1107775              0.0708743
      3.5999336             -0.1480263              0.3397528
      1.0137618              1.1307670              0.7271586
SP   1   1.00
      0.2700058              1.0000000              1.0000000
D    1   1.00
      2.5840000              1.0000000
D    1   1.00
      0.6460000              1.0000000
F    1   1.00
      1.4000000              1.0000000
****
F     0
S    6   1.00
   7001.7130900              0.0018196169
   1051.3660900              0.0139160796
    239.2856900              0.0684053245
     67.3974453              0.233185760
     21.5199573              0.471267439
      7.40310130             0.356618546
SP   3   1.00
     20.8479528             -0.108506975            0.0716287243
      4.80830834            -0.146451658            0.3459121030
      1.34406986             1.128688580            0.7224699570
SP   1   1.00
      0.358151393            1.0000000              1.0000000
D    1   1.00
      3.5000000              1.0000000
D    1   1.00
      0.8750000              1.0000000
F    1   1.00
      1.8500000              1.0000000
****
Al     0
S    6   1.00
  13983.1000000              0.00194267
   2098.7500000              0.0148599
    477.7050000              0.0728494
    134.3600000              0.2468300
     42.8709000              0.4872580
     14.5189000              0.3234960
SP   6   1.00
    239.6680000             -0.00292619             0.00460285
     57.4419000             -0.0374080              0.0331990
     18.2859000             -0.1144870              0.1362820
      6.5991400              0.1156350              0.3304760
      2.4904900              0.6125950              0.4491460
      0.9445400              0.3937990              0.2657040
SP   3   1.00
      1.2779000             -0.2276060             -0.0175130
      0.3975900              0.00144583             0.2445330
      0.1600950              1.0927900              0.8049340
SP   1   1.00
      0.0556577              1.0000000              1.0000000
D    1   1.00
      0.6500000              1.0000000
D    1   1.00
      0.1625000              1.0000000
F    1   1.00
      0.2500000              1.0000000
****
Si     0
S    6   1.00
  16115.9000000              0.00195948
   2425.5800000              0.01492880
    553.8670000              0.07284780
    156.3400000              0.24613000
     50.0683000              0.48591400
     17.0178000              0.32500200
SP   6   1.00
    292.7180000             -0.00278094             0.00443826
     69.8731000             -0.03571460             0.03266790
     22.3363000             -0.11498500             0.13472100
      8.1503900              0.09356340             0.32867800
      3.1345800              0.60301700             0.44964000
      1.2254300              0.41895900             0.26137200
SP   3   1.00
      1.7273800             -0.24463000            -0.01779510
      0.5729220              0.00431572             0.25353900
      0.2221920              1.09818000             0.80066900
SP   1   1.00
      0.0778369              1.00000000             1.00000000
D    1   1.00
      0.9000000              1.0000000
D    1   1.00
      0.2250000              1.0000000
F    1   1.00
      0.3200000              1.0000000
****
P     0
S    6   1.00
  19413.3000000              0.0018516
   2909.4200000              0.0142062
    661.3640000              0.0699995
    185.7590000              0.2400790
     59.1943000              0.4847620
     20.0310000              0.3352000
SP   6   1.00
    339.4780000             -0.00278217             0.00456462
     81.0101000             -0.0360499              0.03369360
     25.8780000             -0.1166310              0.13975500
      9.4522100              0.0968328              0.33936200
      3.6656600              0.6144180              0.45092100
      1.4674600              0.4037980              0.23858600
SP   3   1.00
      2.1562300             -0.2529230             -0.01776530
      0.7489970              0.0328517              0.27405800
      0.2831450              1.0812500              0.78542100
SP   1   1.00
      0.0998317              1.0000000              1.00000000
D    1   1.00
      1.1000000              1.0000000
D    1   1.00
      0.2750000              1.0000000
F    1   1.00
      0.4500000              1.0000000
****
S     0
S    6   1.00
  21917.1000000              0.0018690
   3301.4900000              0.0142300
    754.1460000              0.0696960
    212.7110000              0.2384870
     67.9896000              0.4833070
     23.0515000              0.3380740
SP   6   1.00
    423.7350000             -0.0023767              0.0040610
    100.7100000             -0.0316930              0.0306810
     32.1599000             -0.1133170              0.1304520
     11.8079000              0.0560900              0.3272050
      4.6311000              0.5922550              0.4528510
      1.8702500              0.4550060              0.2560420
SP   3   1.00
      2.6158400             -0.2503740             -0.0145110
      0.9221670              0.0669570              0.3102630
      0.3412870              1.0545100              0.7544830
SP   1   1.00
      0.1171670              1.0000000              1.0000000
D    1   1.00
      1.3000000              1.0000000
D    1   1.00
      0.3250000              1.0000000
F    1   1.00
      0.5500000              1.0000000
****
Cl     0
S    6   1.00
  25180.1000000              0.0018330
   3780.3500000              0.0140340
    860.4740000              0.0690970
    242.1450000              0.2374520
     77.3349000              0.4830340
     26.2470000              0.3398560
SP   6   1.00
    491.7650000             -0.0022974              0.0039894
    116.9840000             -0.0307140              0.0303180
     37.4153000             -0.1125280              0.1298800
     13.7834000              0.0450160              0.3279510
      5.4521500              0.5893530              0.4535270
      2.2258800              0.4652060              0.2521540
SP   3   1.00
      3.1864900             -0.2518300             -0.0142990
      1.1442700              0.0615890              0.3235720
      0.4203770              1.0601800              0.7435070
SP   1   1.00
      0.1426570              1.0000000              1.0000000
D    1   1.00
      1.5000000              1.0000000
D    1   1.00
      0.3750000              1.0000000
F    1   1.00
      0.7000000              1.0000000
****
}

set {
reference uhf
freeze_core true
e_convergence 10
d_convergence 10
dft_spherical_points 1202
dft_radial_points 99
}

e = energy('b3lyp')

print_out('Grab this energy {0}'.format(e))
--------------------------------------------------------------------------

    Molecular point group: c1

    Geometry (in Bohr), charge = 0, multiplicity = 2:

       Center              X                  Y                   Z               Mass
    ------------   -----------------  -----------------  -----------------  -----------------
         C           -0.323375892803    -0.000002030189    -0.000206178092    12.000000000000
         C            0.060214229897    -1.401324758789    -2.426966557292    12.000000000000
         C            0.061054911097     2.802418396811     0.000188690608    12.000000000000
         C            0.062136897997    -1.401089026089     2.426935790008    12.000000000000
         H            2.080911020097    -1.642444676589    -2.842686946292     1.007825032230
         H           -0.764873471403    -0.391291060389    -4.025949344892     1.007825032230
         H           -0.765997636703    -3.291116502289    -2.353373594892     1.007825032230
         H            2.083586524597     3.288462583011     0.001892643008     1.007825032230
         H           -0.765142077003     3.681470000011     1.673179368308     1.007825032230
         H           -0.763216470703     3.678637539011    -1.674243605292     1.007825032230
         H            2.086528421897    -1.646113244289     2.852826535208     1.007825032230
         H           -0.762199061103    -3.287849939189     2.347048819708     1.007825032230
         H           -0.763000179703    -0.389785439689     4.021880686408     1.007825032230

  Charge       = 0
  Multiplicity = 2
  Basis Set: ANONYMOUS8EC0E0DB
    Blend: 6-31G_2DFP_
  Basis Set: (ANONYMOUS8EC0E0DB AUX)
    Blend: DEF2-UNIVERSAL-JKFIT

    Orbital Energies [Eh]
    ---------------------

    Alpha Occupied:

       1A    -10.180275     2A    -10.166515     3A    -10.166484
       4A    -10.166438     5A     -0.797728     6A     -0.686577
       7A     -0.686518     8A     -0.531086     9A     -0.441226
      10A     -0.434897    11A     -0.434724    12A     -0.383082
      13A     -0.382632    14A     -0.363926    15A     -0.338158
      16A     -0.337852    17A     -0.168899

    Alpha Virtual:

      18A      0.076404    19A      0.134473    20A      0.134568
      21A      0.142832    22A      0.143244    23A      0.155179
      24A      0.179147    25A      0.179419    26A      0.203440
      27A      0.215257    28A      0.275988    29A      0.276030
      30A      0.399047    31A      0.399298    32A      0.403551
      33A      0.424268    34A      0.424474    35A      0.456726
      36A      0.495602    37A      0.495625    38A      0.512433
      39A      0.514114    40A      0.579019    41A      0.579276
      42A      0.591968    43A      0.592482    44A      0.603255
      45A      0.625744    46A      0.632451    47A      0.636604
      48A      0.637045    49A      0.663712    50A      0.663788
      51A      0.684291    52A      0.684520    53A      0.735303
      54A      0.826164    55A      0.826284    56A      0.854431
      57A      0.915419    58A      0.916056    59A      0.944736
      60A      0.945405    61A      0.961879    62A      0.962038
      63A      1.003551    64A      1.128127    65A      1.128933
      66A      1.143075    67A      1.163369    68A      1.163694
      69A      1.223768    70A      1.274918    71A      1.275117
      72A      1.278918    73A      1.324992    74A      1.325131
      75A      1.356833    76A      1.366554    77A      1.366566
      78A      1.393031    79A      1.404587    80A      1.405559
      81A      1.417689    82A      1.418372    83A      1.428677
      84A      1.492397    85A      1.500412    86A      1.543296
      87A      1.543354    88A      1.574142    89A      1.575157
      90A      1.671988    91A      1.740751    92A      1.740936
      93A      1.769861    94A      1.833463    95A      1.834328
      96A      1.973349    97A      2.019382    98A      2.020167
      99A      2.020334   100A      2.053256   101A      2.054187
     102A      2.739454   103A      2.739479   104A      2.791139
     105A      2.811943   106A      2.890331   107A      2.890659
     108A      2.895056   109A      2.929577   110A      2.930193
     111A      2.959617   112A      2.964864   113A      2.965223
     114A      3.034917   115A      3.071599   116A      3.072882
     117A      3.085282   118A      3.167904   119A      3.168355
     120A      3.180878   121A      3.285166   122A      3.285395
     123A      3.325787   124A      3.327539   125A      3.374915
     126A      3.488091   127A      3.490236   128A      3.513720
     129A      3.524723   130A      3.568360   131A      3.568591
     132A      3.573678   133A      3.666646   134A      3.667496
     135A      3.681468   136A      3.694303   137A      3.695640
     138A      3.777271   139A      3.777407   140A      3.789732
     141A      3.913046   142A      3.913290   143A      4.036781
     144A      4.113695   145A      4.113975   146A      4.151425
     147A      4.151448   148A      4.176233   149A      4.203637
     150A      4.204401   151A      4.205099   152A      4.214543
     153A      4.318024   154A      4.318412   155A      4.361395
     156A      4.426960   157A      4.427129   158A      4.445423
     159A      4.518617   160A      4.519883   161A      4.579738
     162A      4.579776   163A      4.618254   164A      4.711436
     165A      4.775779   166A      4.776972   167A      4.839231
     168A      4.963679   169A      5.003520   170A      5.004607
     171A      5.233357   172A      5.251557   173A      5.252658
     174A      5.360064   175A      5.360151   176A      5.482590

    Beta Occupied:

       1A    -10.167265     2A    -10.167240     3A    -10.167212
       4A    -10.166432     5A     -0.781080     6A     -0.684373
       7A     -0.684324     8A     -0.512000     9A     -0.431288
      10A     -0.431092    11A     -0.421959    12A     -0.377182
      13A     -0.376719    14A     -0.362914    15A     -0.333260
      16A     -0.332977

    Beta Virtual:

      17A     -0.025510    18A      0.077409    19A      0.135378
      20A      0.135458    21A      0.144697    22A      0.145066
      23A      0.163575    24A      0.182805    25A      0.183086
      26A      0.215484    27A      0.218841    28A      0.282340
      29A      0.282392    30A      0.400216    31A      0.400459
      32A      0.420013    33A      0.427080    34A      0.427289
      35A      0.468615    36A      0.497861    37A      0.497886
      38A      0.514162    39A      0.556516    40A      0.584582
      41A      0.584849    42A      0.598165    43A      0.598689
      44A      0.610660    45A      0.629109    46A      0.632612
      47A      0.639865    48A      0.640302    49A      0.667272
      50A      0.667365    51A      0.686907    52A      0.687104
      53A      0.757851    54A      0.831334    55A      0.831447
      56A      0.855760    57A      0.923402    58A      0.923987
      59A      0.946574    60A      0.954353    61A      0.967190
      62A      0.967323    63A      1.008803    64A      1.132186
      65A      1.132902    66A      1.156437    67A      1.168441
      68A      1.168833    69A      1.232723    70A      1.280517
      71A      1.280690    72A      1.284657    73A      1.330003
      74A      1.330152    75A      1.366258    76A      1.371786
      77A      1.371833    78A      1.394083    79A      1.408043
      80A      1.409025    81A      1.422736    82A      1.423410
      83A      1.428949    84A      1.493451    85A      1.510854
      86A      1.547484    87A      1.547730    88A      1.582032
      89A      1.583219    90A      1.676910    91A      1.746522
      92A      1.746702    93A      1.780582    94A      1.837292
      95A      1.838149    96A      1.974206    97A      2.026572
      98A      2.026700    99A      2.040732   100A      2.059957
     101A      2.060913   102A      2.747790   103A      2.747839
     104A      2.812358   105A      2.816301   106A      2.903053
     107A      2.903432   108A      2.924770   109A      2.932018
     110A      2.932613   111A      2.960690   112A      2.969449
     113A      2.969805   114A      3.042772   115A      3.081525
     116A      3.082896   117A      3.087103   118A      3.183608
     119A      3.184063   120A      3.188607   121A      3.289873
     122A      3.290177   123A      3.329609   124A      3.331340
     125A      3.382757   126A      3.490889   127A      3.492989
     128A      3.512091   129A      3.527784   130A      3.573243
     131A      3.581832   132A      3.582124   133A      3.671696
     134A      3.672522   135A      3.694818   136A      3.726020
     137A      3.726862   138A      3.781810   139A      3.781898
     140A      3.818289   141A      3.922843   142A      3.923099
     143A      4.047794   144A      4.120614   145A      4.120842
     146A      4.158518   147A      4.158706   148A      4.190147
     149A      4.210006   150A      4.210701   151A      4.212192
     152A      4.218989   153A      4.325411   154A      4.325743
     155A      4.364747   156A      4.435137   157A      4.435327
     158A      4.448286   159A      4.526404   160A      4.527655
     161A      4.590291   162A      4.590360   163A      4.625438
     164A      4.721775   165A      4.782699   166A      4.783952
     167A      4.842154   168A      4.968447   169A      5.007555
     170A      5.008611   171A      5.239048   172A      5.253337
     173A      5.254435   174A      5.366524   175A      5.366597
     176A      5.484900

    Final Occupation by Irrep:
              A
    DOCC [    16 ]
    SOCC [     1 ]

  @DF-UKS Final Energy:  -157.81301675213984

   => Energetics <=

    Nuclear Repulsion Energy =            125.4320447146902353
    One-Electron Energy =                -458.8198047174955718
    Two-Electron Energy =                 195.8859165540741003
    DFT Exchange-Correlation Energy =     -20.3111733034086051
    Empirical Dispersion Energy =           0.0000000000000000
    VV10 Nonlocal Energy =                  0.0000000000000000
    Total Energy =                       -157.8130167521398448

  UHF NO Occupations:
  HONO-2 :   15  A 1.9996034
  HONO-1 :   16  A 1.9989798
  HONO-0 :   17  A 1.0000000
  LUNO+0 :   18  A 0.0010202
  LUNO+1 :   19  A 0.0003966
  LUNO+2 :   20  A 0.0001981
  LUNO+3 :   21  A 0.0001978

Computation Completed

Properties will be evaluated at   0.000000,   0.000000,   0.000000 [a0]

Properties computed using the SCF density matrix

  Nuclear Dipole Moment: [e a0]
     X:     0.8268      Y:    -0.0000      Z:     0.0003

  Electronic Dipole Moment: [e a0]
     X:    -0.7482      Y:     0.0000      Z:    -0.0010

  Dipole Moment: [e a0]
     X:     0.0785      Y:     0.0000      Z:    -0.0008     Total:     0.0785

  Dipole Moment: [D]
     X:     0.1996      Y:     0.0000      Z:    -0.0019     Total:     0.1996

*** tstop() called on n056 at Fri Nov  5 14:56:27 2021
Module time:
	user time   =     506.94 seconds =       8.45 minutes
	system time =      11.27 seconds =       0.19 minutes
	total time  =        130 seconds =       2.17 minutes
Total time:
	user time   =     506.94 seconds =       8.45 minutes
	system time =      11.27 seconds =       0.19 minutes
	total time  =        130 seconds =       2.17 minutes
Grab this energy -157.81301675213984
    Psi4 stopped on: Friday, 05 November 2021 02:56PM
    Psi4 wall time for execution: 0:02:10.36

*** Psi4 exiting successfully. Buy a developer a beer!
