                               Psi4 1.4a2.dev629

  ==> Input File <==

--------------------------------------------------------------------------
import os
memory 14 GB

molecule {
 C   -0.3218901288   -0.0000025452    0.0019976590
 C    0.0604159062   -1.4017913030   -2.4268085927
 C    0.0601637081    2.8018530116    0.0011546249
 C    0.0601524183   -1.4000583416    2.4261162950
 H    2.0867876899   -1.6478365777   -2.8498217582
 H   -0.7649936980   -0.3857551768   -4.0234390453
 H   -0.7665361060   -3.2935880543   -2.3510985172
 H    2.0868454403    3.2880615333    0.0040993014
 H   -0.7668594583    3.6858768306    1.6757516981
 H   -0.7641059054    3.6746322099   -1.6773432682
 H    2.0871816520   -1.6403118878    2.8449873301
 H   -0.7642791024   -3.2905080836    2.3468266228
 H   -0.7654902927   -0.3905959291    4.0275776504
units bohr
0 2
}

basis {

assign 6-31g_2dfp_

[ 6-31g_2dfp_ ]

spherical

!----------------------------------------------------------------------
! Basis Set Exchange
! Version v0.8.13
! https://www.basissetexchange.org
!----------------------------------------------------------------------
!   Basis set: 6-31G(2df,p)
! Description: 6-31G(2df,p)
!        Role: orbital
!     Version: 0  (Data from the original Basis Set Exchange)
!----------------------------------------------------------------------

****
H     0
S    3   1.00
     18.7311370              0.03349460
      2.8253937              0.23472695
      0.6401217              0.81375733
S    1   1.00
      0.1612778              1.00000000
P    1   1.00
      1.5000000              1.0000000
P    1   1.00
      0.3750000              1.0000000
****
B     0
S    6   1.00
   2068.8823000              0.0018663
    310.6495700              0.0142515
     70.6830330              0.0695516
     19.8610800              0.2325729
      6.2993048              0.4670787
      2.1270270              0.3634314
SP   3   1.00
      4.7279710             -0.1303938              0.0745976
      1.1903377             -0.1307889              0.3078467
      0.3594117              1.1309444              0.7434568
SP   1   1.00
      0.1267512              1.0000000              1.0000000
D    1   1.00
      0.8020000              1.0000000
D    1   1.00
      0.2005000              1.0000000
F    1   1.00
      0.5000000              1.0000000
****
C     0
S    6   1.00
   3047.5249000              0.0018347
    457.3695100              0.0140373
    103.9486900              0.0688426
     29.2101550              0.2321844
      9.2866630              0.4679413
      3.1639270              0.3623120
SP   3   1.00
      7.8682724             -0.1193324              0.0689991
      1.8812885             -0.1608542              0.3164240
      0.5442493              1.1434564              0.7443083
SP   1   1.00
      0.1687144              1.0000000              1.0000000
D    1   1.00
      1.2520000              1.0000000
D    1   1.00
      0.3130000              1.0000000
F    1   1.00
      0.8000000              1.0000000
****
N     0
S    6   1.00
   4173.5110000              0.0018348
    627.4579000              0.0139950
    142.9021000              0.0685870
     40.2343300              0.2322410
     12.8202100              0.4690700
      4.3904370              0.3604550
SP   3   1.00
     11.6263580             -0.1149610              0.0675800
      2.7162800             -0.1691180              0.3239070
      0.7722180              1.1458520              0.7408950
SP   1   1.00
      0.2120313              1.0000000              1.0000000
D    1   1.00
      1.8260000              1.0000000
D    1   1.00
      0.4565000              1.0000000
F    1   1.00
      1.0000000              1.0000000
****
O     0
S    6   1.00
   5484.6717000              0.0018311
    825.2349500              0.0139501
    188.0469600              0.0684451
     52.9645000              0.2327143
     16.8975700              0.4701930
      5.7996353              0.3585209
SP   3   1.00
     15.5396160             -0.1107775              0.0708743
      3.5999336             -0.1480263              0.3397528
      1.0137618              1.1307670              0.7271586
SP   1   1.00
      0.2700058              1.0000000              1.0000000
D    1   1.00
      2.5840000              1.0000000
D    1   1.00
      0.6460000              1.0000000
F    1   1.00
      1.4000000              1.0000000
****
F     0
S    6   1.00
   7001.7130900              0.0018196169
   1051.3660900              0.0139160796
    239.2856900              0.0684053245
     67.3974453              0.233185760
     21.5199573              0.471267439
      7.40310130             0.356618546
SP   3   1.00
     20.8479528             -0.108506975            0.0716287243
      4.80830834            -0.146451658            0.3459121030
      1.34406986             1.128688580            0.7224699570
SP   1   1.00
      0.358151393            1.0000000              1.0000000
D    1   1.00
      3.5000000              1.0000000
D    1   1.00
      0.8750000              1.0000000
F    1   1.00
      1.8500000              1.0000000
****
Al     0
S    6   1.00
  13983.1000000              0.00194267
   2098.7500000              0.0148599
    477.7050000              0.0728494
    134.3600000              0.2468300
     42.8709000              0.4872580
     14.5189000              0.3234960
SP   6   1.00
    239.6680000             -0.00292619             0.00460285
     57.4419000             -0.0374080              0.0331990
     18.2859000             -0.1144870              0.1362820
      6.5991400              0.1156350              0.3304760
      2.4904900              0.6125950              0.4491460
      0.9445400              0.3937990              0.2657040
SP   3   1.00
      1.2779000             -0.2276060             -0.0175130
      0.3975900              0.00144583             0.2445330
      0.1600950              1.0927900              0.8049340
SP   1   1.00
      0.0556577              1.0000000              1.0000000
D    1   1.00
      0.6500000              1.0000000
D    1   1.00
      0.1625000              1.0000000
F    1   1.00
      0.2500000              1.0000000
****
Si     0
S    6   1.00
  16115.9000000              0.00195948
   2425.5800000              0.01492880
    553.8670000              0.07284780
    156.3400000              0.24613000
     50.0683000              0.48591400
     17.0178000              0.32500200
SP   6   1.00
    292.7180000             -0.00278094             0.00443826
     69.8731000             -0.03571460             0.03266790
     22.3363000             -0.11498500             0.13472100
      8.1503900              0.09356340             0.32867800
      3.1345800              0.60301700             0.44964000
      1.2254300              0.41895900             0.26137200
SP   3   1.00
      1.7273800             -0.24463000            -0.01779510
      0.5729220              0.00431572             0.25353900
      0.2221920              1.09818000             0.80066900
SP   1   1.00
      0.0778369              1.00000000             1.00000000
D    1   1.00
      0.9000000              1.0000000
D    1   1.00
      0.2250000              1.0000000
F    1   1.00
      0.3200000              1.0000000
****
P     0
S    6   1.00
  19413.3000000              0.0018516
   2909.4200000              0.0142062
    661.3640000              0.0699995
    185.7590000              0.2400790
     59.1943000              0.4847620
     20.0310000              0.3352000
SP   6   1.00
    339.4780000             -0.00278217             0.00456462
     81.0101000             -0.0360499              0.03369360
     25.8780000             -0.1166310              0.13975500
      9.4522100              0.0968328              0.33936200
      3.6656600              0.6144180              0.45092100
      1.4674600              0.4037980              0.23858600
SP   3   1.00
      2.1562300             -0.2529230             -0.01776530
      0.7489970              0.0328517              0.27405800
      0.2831450              1.0812500              0.78542100
SP   1   1.00
      0.0998317              1.0000000              1.00000000
D    1   1.00
      1.1000000              1.0000000
D    1   1.00
      0.2750000              1.0000000
F    1   1.00
      0.4500000              1.0000000
****
S     0
S    6   1.00
  21917.1000000              0.0018690
   3301.4900000              0.0142300
    754.1460000              0.0696960
    212.7110000              0.2384870
     67.9896000              0.4833070
     23.0515000              0.3380740
SP   6   1.00
    423.7350000             -0.0023767              0.0040610
    100.7100000             -0.0316930              0.0306810
     32.1599000             -0.1133170              0.1304520
     11.8079000              0.0560900              0.3272050
      4.6311000              0.5922550              0.4528510
      1.8702500              0.4550060              0.2560420
SP   3   1.00
      2.6158400             -0.2503740             -0.0145110
      0.9221670              0.0669570              0.3102630
      0.3412870              1.0545100              0.7544830
SP   1   1.00
      0.1171670              1.0000000              1.0000000
D    1   1.00
      1.3000000              1.0000000
D    1   1.00
      0.3250000              1.0000000
F    1   1.00
      0.5500000              1.0000000
****
Cl     0
S    6   1.00
  25180.1000000              0.0018330
   3780.3500000              0.0140340
    860.4740000              0.0690970
    242.1450000              0.2374520
     77.3349000              0.4830340
     26.2470000              0.3398560
SP   6   1.00
    491.7650000             -0.0022974              0.0039894
    116.9840000             -0.0307140              0.0303180
     37.4153000             -0.1125280              0.1298800
     13.7834000              0.0450160              0.3279510
      5.4521500              0.5893530              0.4535270
      2.2258800              0.4652060              0.2521540
SP   3   1.00
      3.1864900             -0.2518300             -0.0142990
      1.1442700              0.0615890              0.3235720
      0.4203770              1.0601800              0.7435070
SP   1   1.00
      0.1426570              1.0000000              1.0000000
D    1   1.00
      1.5000000              1.0000000
D    1   1.00
      0.3750000              1.0000000
F    1   1.00
      0.7000000              1.0000000
****
}

set {
reference uhf
freeze_core true
e_convergence 10
d_convergence 10
dft_spherical_points 1202
dft_radial_points 99
}

e = energy('b3lyp')

print_out('Grab this energy {0}'.format(e))
--------------------------------------------------------------------------

    Molecular point group: c1

    Geometry (in Bohr), charge = 0, multiplicity = 2:

       Center              X                  Y                   Z               Mass
    ------------   -----------------  -----------------  -----------------  -----------------
         C           -0.321674772498    -0.000002274121     0.001523847938    12.000000000000
         C            0.060631262502    -1.401791031921    -2.427282403762    12.000000000000
         C            0.060379064402     2.801853282679     0.000680813838    12.000000000000
         C            0.060367774602    -1.400058070521     2.425642483938    12.000000000000
         H            2.087003046202    -1.647836306621    -2.850295569262     1.007825032230
         H           -0.764778341698    -0.385754905721    -4.023912856362     1.007825032230
         H           -0.766320749698    -3.293587783221    -2.351572328262     1.007825032230
         H            2.087060796602     3.288061804379     0.003625490338     1.007825032230
         H           -0.766644101998     3.685877101679     1.675277887038     1.007825032230
         H           -0.763890549098     3.674632480979    -1.677817079262     1.007825032230
         H            2.087397008302    -1.640311616721     2.844513519038     1.007825032230
         H           -0.764063746098    -3.290507812521     2.346352811738     1.007825032230
         H           -0.765274936398    -0.390595658021     4.027103839338     1.007825032230

  Charge       = 0
  Multiplicity = 2
  Basis Set: ANONYMOUS0C436118
    Blend: 6-31G_2DFP_
  Basis Set: (ANONYMOUS0C436118 AUX)
    Blend: DEF2-UNIVERSAL-JKFIT

    Orbital Energies [Eh]
    ---------------------

    Alpha Occupied:

       1A    -10.180277     2A    -10.167183     3A    -10.167024
       4A    -10.166863     5A     -0.797782     6A     -0.686326
       7A     -0.686082     8A     -0.530770     9A     -0.441072
      10A     -0.434802    11A     -0.434663    12A     -0.382528
      13A     -0.382456    14A     -0.363738    15A     -0.338155
      16A     -0.338024    17A     -0.168778

    Alpha Virtual:

      18A      0.076069    19A      0.134127    20A      0.134191
      21A      0.142589    22A      0.142711    23A      0.154800
      24A      0.178669    25A      0.178749    26A      0.203522
      27A      0.214852    28A      0.275890    29A      0.276426
      30A      0.399209    31A      0.399282    32A      0.403432
      33A      0.424070    34A      0.424181    35A      0.456499
      36A      0.495356    37A      0.495474    38A      0.512114
      39A      0.514078    40A      0.578400    41A      0.578977
      42A      0.591311    43A      0.591899    44A      0.602356
      45A      0.624840    46A      0.631837    47A      0.636370
      48A      0.636447    49A      0.663220    50A      0.663285
      51A      0.683932    52A      0.683992    53A      0.735190
      54A      0.825246    55A      0.825677    56A      0.853914
      57A      0.914946    58A      0.915221    59A      0.944076
      60A      0.944564    61A      0.960591    62A      0.961967
      63A      1.003462    64A      1.127795    65A      1.128220
      66A      1.142205    67A      1.162741    68A      1.162952
      69A      1.223488    70A      1.274399    71A      1.274709
      72A      1.279108    73A      1.324606    74A      1.324611
      75A      1.355758    76A      1.366268    77A      1.366589
      78A      1.392449    79A      1.403697    80A      1.404318
      81A      1.416474    82A      1.417274    83A      1.427860
      84A      1.491677    85A      1.498684    86A      1.542507
      87A      1.543055    88A      1.574720    89A      1.574736
      90A      1.670099    91A      1.739285    92A      1.740035
      93A      1.768256    94A      1.831297    95A      1.832275
      96A      1.971990    97A      2.018430    98A      2.018753
      99A      2.019622   100A      2.051445   101A      2.053052
     102A      2.738400   103A      2.738955   104A      2.790730
     105A      2.811447   106A      2.889920   107A      2.890449
     108A      2.894683   109A      2.929455   110A      2.929500
     111A      2.959062   112A      2.964333   113A      2.964635
     114A      3.033655   115A      3.071995   116A      3.072256
     117A      3.084423   118A      3.168462   119A      3.168869
     120A      3.180619   121A      3.284474   122A      3.284556
     123A      3.326474   124A      3.327134   125A      3.375451
     126A      3.490214   127A      3.490543   128A      3.514205
     129A      3.524845   130A      3.568326   131A      3.568947
     132A      3.574635   133A      3.666748   134A      3.667126
     135A      3.679849   136A      3.693643   137A      3.694518
     138A      3.775859   139A      3.778318   140A      3.790418
     141A      3.911988   142A      3.912521   143A      4.034761
     144A      4.110335   145A      4.112864   146A      4.147262
     147A      4.149014   148A      4.173321   149A      4.202735
     150A      4.202813   151A      4.203059   152A      4.210803
     153A      4.314958   154A      4.316523   155A      4.358547
     156A      4.424365   157A      4.424863   158A      4.443705
     159A      4.516116   160A      4.516950   161A      4.577812
     162A      4.578480   163A      4.618020   164A      4.709128
     165A      4.773668   166A      4.775819   167A      4.838144
     168A      4.962760   169A      5.002450   170A      5.003159
     171A      5.228146   172A      5.246450   173A      5.247387
     174A      5.355058   175A      5.356498   176A      5.479721

    Beta Occupied:

       1A    -10.167943     2A    -10.167785     3A    -10.167627
       4A    -10.166458     5A     -0.781103     6A     -0.684123
       7A     -0.683895     8A     -0.511750     9A     -0.431178
      10A     -0.431057    11A     -0.421730    12A     -0.376598
      13A     -0.376535    14A     -0.362722    15A     -0.333270
      16A     -0.333148

    Beta Virtual:

      17A     -0.025642    18A      0.077083    19A      0.135036
      20A      0.135083    21A      0.144455    22A      0.144581
      23A      0.163270    24A      0.182358    25A      0.182401
      26A      0.215081    27A      0.218926    28A      0.282236
      29A      0.282752    30A      0.400383    31A      0.400454
      32A      0.419895    33A      0.426879    34A      0.426993
      35A      0.468393    36A      0.497614    37A      0.497727
      38A      0.513854    39A      0.556423    40A      0.583962
      41A      0.584542    42A      0.597499    43A      0.598058
      44A      0.609805    45A      0.628194    46A      0.631992
      47A      0.639632    48A      0.639748    49A      0.666780
      50A      0.666848    51A      0.686552    52A      0.686655
      53A      0.757692    54A      0.830389    55A      0.830863
      56A      0.855271    57A      0.922942    58A      0.923146
      59A      0.945917    60A      0.953494    61A      0.965988
      62A      0.967253    63A      1.008684    64A      1.131741
      65A      1.132318    66A      1.155615    67A      1.167898
      68A      1.167943    69A      1.232464    70A      1.279981
      71A      1.280289    72A      1.284854    73A      1.329575
      74A      1.329603    75A      1.365200    76A      1.371545
      77A      1.371804    78A      1.393515    79A      1.407135
      80A      1.407811    81A      1.421552    82A      1.422340
      83A      1.428123    84A      1.492727    85A      1.509122
      86A      1.546915    87A      1.547465    88A      1.582593
      89A      1.582606    90A      1.674930    91A      1.745041
      92A      1.745807    93A      1.779056    94A      1.835163
      95A      1.836137    96A      1.972851    97A      2.025094
      98A      2.025208    99A      2.040687   100A      2.058111
     101A      2.059773   102A      2.746752   103A      2.747276
     104A      2.811852   105A      2.815883   106A      2.902642
     107A      2.903052   108A      2.924369   109A      2.931961
     110A      2.931979   111A      2.960124   112A      2.968885
     113A      2.969152   114A      3.041631   115A      3.081874
     116A      3.082117   117A      3.086244   118A      3.184284
     119A      3.184757   120A      3.188244   121A      3.289288
     122A      3.289418   123A      3.330287   124A      3.330913
     125A      3.383260   126A      3.492942   127A      3.493236
     128A      3.512568   129A      3.527889   130A      3.574300
     131A      3.581675   132A      3.582373   133A      3.671671
     134A      3.671773   135A      3.693148   136A      3.725574
     137A      3.725801   138A      3.780392   139A      3.782758
     140A      3.818973   141A      3.921860   142A      3.922357
     143A      4.045620   144A      4.117278   145A      4.119583
     146A      4.154433   147A      4.156238   148A      4.187414
     149A      4.208673   150A      4.208792   151A      4.210974
     152A      4.215300   153A      4.322351   154A      4.323962
     155A      4.361914   156A      4.432668   157A      4.433074
     158A      4.446587   159A      4.523933   160A      4.524748
     161A      4.588380   162A      4.589043   163A      4.625224
     164A      4.719447   165A      4.780649   166A      4.782715
     167A      4.841052   168A      4.967558   169A      5.006494
     170A      5.007221   171A      5.233860   172A      5.248226
     173A      5.249179   174A      5.361509   175A      5.362992
     176A      5.482036

    Final Occupation by Irrep:
              A
    DOCC [    16 ]
    SOCC [     1 ]

  @DF-UKS Final Energy:  -157.81307668365869

   => Energetics <=

    Nuclear Repulsion Energy =            125.3970452459656286
    One-Electron Energy =                -458.7535865870942189
    Two-Electron Energy =                 195.8506760075544832
    DFT Exchange-Correlation Energy =     -20.3072113500845788
    Empirical Dispersion Energy =           0.0000000000000000
    VV10 Nonlocal Energy =                  0.0000000000000000
    Total Energy =                       -157.8130766836586929

  UHF NO Occupations:
  HONO-2 :   15  A 1.9995994
  HONO-1 :   16  A 1.9989790
  HONO-0 :   17  A 1.0000000
  LUNO+0 :   18  A 0.0010210
  LUNO+1 :   19  A 0.0004006
  LUNO+2 :   20  A 0.0001978
  LUNO+3 :   21  A 0.0001971

Computation Completed

Properties will be evaluated at   0.000000,   0.000000,   0.000000 [a0]

Properties computed using the SCF density matrix

  Nuclear Dipole Moment: [e a0]
     X:     0.8287      Y:    -0.0000      Z:    -0.0033

  Electronic Dipole Moment: [e a0]
     X:    -0.7516      Y:     0.0000      Z:     0.0034

  Dipole Moment: [e a0]
     X:     0.0771      Y:    -0.0000      Z:     0.0000     Total:     0.0771

  Dipole Moment: [D]
     X:     0.1961      Y:    -0.0000      Z:     0.0001     Total:     0.1961

*** tstop() called on n070 at Fri Nov  5 11:40:04 2021
Module time:
	user time   =     574.38 seconds =       9.57 minutes
	system time =      13.32 seconds =       0.22 minutes
	total time  =        148 seconds =       2.47 minutes
Total time:
	user time   =     574.38 seconds =       9.57 minutes
	system time =      13.32 seconds =       0.22 minutes
	total time  =        148 seconds =       2.47 minutes
Grab this energy -157.8130766836587
    Psi4 stopped on: Friday, 05 November 2021 11:40AM
    Psi4 wall time for execution: 0:02:28.06

*** Psi4 exiting successfully. Buy a developer a beer!
