                               Psi4 1.4a2.dev629

  ==> Input File <==

--------------------------------------------------------------------------
import os
memory 14 GB

molecule {
 C   -0.3233403496   -0.0004962489   -0.0019979017
 C    0.0610558214   -1.4002571028   -2.4263881217
 C    0.0609228239    2.8009018742   -0.0011562113
 C    0.0613212432   -1.4019873166    2.4270814658
 H    2.0850401641   -1.6404443495   -2.8452525846
 H   -0.7644826887   -0.3922310920   -4.0268246241
 H   -0.7634341360   -3.2881202157   -2.3474117175
 H    2.0909776818    3.2876078053   -0.0041028332
 H   -0.7664438122    3.6751383946    1.6813326517
 H   -0.7691942878    3.6864067531   -1.6797359414
 H    2.0846476265   -1.6479541963    2.8500876378
 H   -0.7656854752   -3.2911974187    2.3516797402
 H   -0.7639924881   -0.3873912004    4.0226884401
units bohr
0 2
}

basis {

assign 6-31g_2dfp_

[ 6-31g_2dfp_ ]

spherical

!----------------------------------------------------------------------
! Basis Set Exchange
! Version v0.8.13
! https://www.basissetexchange.org
!----------------------------------------------------------------------
!   Basis set: 6-31G(2df,p)
! Description: 6-31G(2df,p)
!        Role: orbital
!     Version: 0  (Data from the original Basis Set Exchange)
!----------------------------------------------------------------------

****
H     0
S    3   1.00
     18.7311370              0.03349460
      2.8253937              0.23472695
      0.6401217              0.81375733
S    1   1.00
      0.1612778              1.00000000
P    1   1.00
      1.5000000              1.0000000
P    1   1.00
      0.3750000              1.0000000
****
B     0
S    6   1.00
   2068.8823000              0.0018663
    310.6495700              0.0142515
     70.6830330              0.0695516
     19.8610800              0.2325729
      6.2993048              0.4670787
      2.1270270              0.3634314
SP   3   1.00
      4.7279710             -0.1303938              0.0745976
      1.1903377             -0.1307889              0.3078467
      0.3594117              1.1309444              0.7434568
SP   1   1.00
      0.1267512              1.0000000              1.0000000
D    1   1.00
      0.8020000              1.0000000
D    1   1.00
      0.2005000              1.0000000
F    1   1.00
      0.5000000              1.0000000
****
C     0
S    6   1.00
   3047.5249000              0.0018347
    457.3695100              0.0140373
    103.9486900              0.0688426
     29.2101550              0.2321844
      9.2866630              0.4679413
      3.1639270              0.3623120
SP   3   1.00
      7.8682724             -0.1193324              0.0689991
      1.8812885             -0.1608542              0.3164240
      0.5442493              1.1434564              0.7443083
SP   1   1.00
      0.1687144              1.0000000              1.0000000
D    1   1.00
      1.2520000              1.0000000
D    1   1.00
      0.3130000              1.0000000
F    1   1.00
      0.8000000              1.0000000
****
N     0
S    6   1.00
   4173.5110000              0.0018348
    627.4579000              0.0139950
    142.9021000              0.0685870
     40.2343300              0.2322410
     12.8202100              0.4690700
      4.3904370              0.3604550
SP   3   1.00
     11.6263580             -0.1149610              0.0675800
      2.7162800             -0.1691180              0.3239070
      0.7722180              1.1458520              0.7408950
SP   1   1.00
      0.2120313              1.0000000              1.0000000
D    1   1.00
      1.8260000              1.0000000
D    1   1.00
      0.4565000              1.0000000
F    1   1.00
      1.0000000              1.0000000
****
O     0
S    6   1.00
   5484.6717000              0.0018311
    825.2349500              0.0139501
    188.0469600              0.0684451
     52.9645000              0.2327143
     16.8975700              0.4701930
      5.7996353              0.3585209
SP   3   1.00
     15.5396160             -0.1107775              0.0708743
      3.5999336             -0.1480263              0.3397528
      1.0137618              1.1307670              0.7271586
SP   1   1.00
      0.2700058              1.0000000              1.0000000
D    1   1.00
      2.5840000              1.0000000
D    1   1.00
      0.6460000              1.0000000
F    1   1.00
      1.4000000              1.0000000
****
F     0
S    6   1.00
   7001.7130900              0.0018196169
   1051.3660900              0.0139160796
    239.2856900              0.0684053245
     67.3974453              0.233185760
     21.5199573              0.471267439
      7.40310130             0.356618546
SP   3   1.00
     20.8479528             -0.108506975            0.0716287243
      4.80830834            -0.146451658            0.3459121030
      1.34406986             1.128688580            0.7224699570
SP   1   1.00
      0.358151393            1.0000000              1.0000000
D    1   1.00
      3.5000000              1.0000000
D    1   1.00
      0.8750000              1.0000000
F    1   1.00
      1.8500000              1.0000000
****
Al     0
S    6   1.00
  13983.1000000              0.00194267
   2098.7500000              0.0148599
    477.7050000              0.0728494
    134.3600000              0.2468300
     42.8709000              0.4872580
     14.5189000              0.3234960
SP   6   1.00
    239.6680000             -0.00292619             0.00460285
     57.4419000             -0.0374080              0.0331990
     18.2859000             -0.1144870              0.1362820
      6.5991400              0.1156350              0.3304760
      2.4904900              0.6125950              0.4491460
      0.9445400              0.3937990              0.2657040
SP   3   1.00
      1.2779000             -0.2276060             -0.0175130
      0.3975900              0.00144583             0.2445330
      0.1600950              1.0927900              0.8049340
SP   1   1.00
      0.0556577              1.0000000              1.0000000
D    1   1.00
      0.6500000              1.0000000
D    1   1.00
      0.1625000              1.0000000
F    1   1.00
      0.2500000              1.0000000
****
Si     0
S    6   1.00
  16115.9000000              0.00195948
   2425.5800000              0.01492880
    553.8670000              0.07284780
    156.3400000              0.24613000
     50.0683000              0.48591400
     17.0178000              0.32500200
SP   6   1.00
    292.7180000             -0.00278094             0.00443826
     69.8731000             -0.03571460             0.03266790
     22.3363000             -0.11498500             0.13472100
      8.1503900              0.09356340             0.32867800
      3.1345800              0.60301700             0.44964000
      1.2254300              0.41895900             0.26137200
SP   3   1.00
      1.7273800             -0.24463000            -0.01779510
      0.5729220              0.00431572             0.25353900
      0.2221920              1.09818000             0.80066900
SP   1   1.00
      0.0778369              1.00000000             1.00000000
D    1   1.00
      0.9000000              1.0000000
D    1   1.00
      0.2250000              1.0000000
F    1   1.00
      0.3200000              1.0000000
****
P     0
S    6   1.00
  19413.3000000              0.0018516
   2909.4200000              0.0142062
    661.3640000              0.0699995
    185.7590000              0.2400790
     59.1943000              0.4847620
     20.0310000              0.3352000
SP   6   1.00
    339.4780000             -0.00278217             0.00456462
     81.0101000             -0.0360499              0.03369360
     25.8780000             -0.1166310              0.13975500
      9.4522100              0.0968328              0.33936200
      3.6656600              0.6144180              0.45092100
      1.4674600              0.4037980              0.23858600
SP   3   1.00
      2.1562300             -0.2529230             -0.01776530
      0.7489970              0.0328517              0.27405800
      0.2831450              1.0812500              0.78542100
SP   1   1.00
      0.0998317              1.0000000              1.00000000
D    1   1.00
      1.1000000              1.0000000
D    1   1.00
      0.2750000              1.0000000
F    1   1.00
      0.4500000              1.0000000
****
S     0
S    6   1.00
  21917.1000000              0.0018690
   3301.4900000              0.0142300
    754.1460000              0.0696960
    212.7110000              0.2384870
     67.9896000              0.4833070
     23.0515000              0.3380740
SP   6   1.00
    423.7350000             -0.0023767              0.0040610
    100.7100000             -0.0316930              0.0306810
     32.1599000             -0.1133170              0.1304520
     11.8079000              0.0560900              0.3272050
      4.6311000              0.5922550              0.4528510
      1.8702500              0.4550060              0.2560420
SP   3   1.00
      2.6158400             -0.2503740             -0.0145110
      0.9221670              0.0669570              0.3102630
      0.3412870              1.0545100              0.7544830
SP   1   1.00
      0.1171670              1.0000000              1.0000000
D    1   1.00
      1.3000000              1.0000000
D    1   1.00
      0.3250000              1.0000000
F    1   1.00
      0.5500000              1.0000000
****
Cl     0
S    6   1.00
  25180.1000000              0.0018330
   3780.3500000              0.0140340
    860.4740000              0.0690970
    242.1450000              0.2374520
     77.3349000              0.4830340
     26.2470000              0.3398560
SP   6   1.00
    491.7650000             -0.0022974              0.0039894
    116.9840000             -0.0307140              0.0303180
     37.4153000             -0.1125280              0.1298800
     13.7834000              0.0450160              0.3279510
      5.4521500              0.5893530              0.4535270
      2.2258800              0.4652060              0.2521540
SP   3   1.00
      3.1864900             -0.2518300             -0.0142990
      1.1442700              0.0615890              0.3235720
      0.4203770              1.0601800              0.7435070
SP   1   1.00
      0.1426570              1.0000000              1.0000000
D    1   1.00
      1.5000000              1.0000000
D    1   1.00
      0.3750000              1.0000000
F    1   1.00
      0.7000000              1.0000000
****
}

set {
reference uhf
freeze_core true
e_convergence 10
d_convergence 10
dft_spherical_points 1202
dft_radial_points 99
}

e = energy('b3lyp')

print_out('Grab this energy {0}'.format(e))
--------------------------------------------------------------------------

    Molecular point group: c1

    Geometry (in Bohr), charge = 0, multiplicity = 2:

       Center              X                  Y                   Z               Mass
    ------------   -----------------  -----------------  -----------------  -----------------
         C           -0.323340257870    -0.000141654549    -0.001523939888    12.000000000000
         C            0.061055913130    -1.399902508449    -2.425914159888    12.000000000000
         C            0.060922915630     2.801256468551    -0.000682249488    12.000000000000
         C            0.061321334930    -1.401632722249     2.427555427612    12.000000000000
         H            2.085040255830    -1.640089755149    -2.844778622788     1.007825032230
         H           -0.764482596970    -0.391876497649    -4.026350662288     1.007825032230
         H           -0.763434044270    -3.287765621349    -2.346937755688     1.007825032230
         H            2.090977773530     3.287962399651    -0.003628871388     1.007825032230
         H           -0.766443720470     3.675492988951     1.681806613512     1.007825032230
         H           -0.769194196070     3.686761347451    -1.679261979588     1.007825032230
         H            2.084647718230    -1.647599601949     2.850561599612     1.007825032230
         H           -0.765685383470    -3.290842824349     2.352153702012     1.007825032230
         H           -0.763992396370    -0.387036606049     4.023162401912     1.007825032230

  Charge       = 0
  Multiplicity = 2
  Basis Set: ANONYMOUS18B72643
    Blend: 6-31G_2DFP_
  Basis Set: (ANONYMOUS18B72643 AUX)
    Blend: DEF2-UNIVERSAL-JKFIT

    Orbital Energies [Eh]
    ---------------------

    Alpha Occupied:

       1A    -10.180342     2A    -10.167685     3A    -10.166838
       4A    -10.166521     5A     -0.797768     6A     -0.686530
       7A     -0.685845     8A     -0.530775     9A     -0.441130
      10A     -0.434783    11A     -0.434557    12A     -0.382823
      13A     -0.382374    14A     -0.363613    15A     -0.338069
      16A     -0.337926    17A     -0.168961

    Alpha Virtual:

      18A      0.076071    19A      0.134116    20A      0.134180
      21A      0.142511    22A      0.142754    23A      0.154875
      24A      0.178456    25A      0.179104    26A      0.203548
      27A      0.214807    28A      0.275713    29A      0.276258
      30A      0.399137    31A      0.399311    32A      0.403353
      33A      0.423988    34A      0.424207    35A      0.456592
      36A      0.495297    37A      0.495482    38A      0.512161
      39A      0.513978    40A      0.578497    41A      0.579131
      42A      0.591204    43A      0.592039    44A      0.602596
      45A      0.624762    46A      0.631689    47A      0.635958
      48A      0.636635    49A      0.663229    50A      0.663598
      51A      0.683550    52A      0.684171    53A      0.734994
      54A      0.824943    55A      0.825861    56A      0.853917
      57A      0.914881    58A      0.915159    59A      0.944126
      60A      0.944611    61A      0.960565    62A      0.962035
      63A      1.003464    64A      1.127701    65A      1.128501
      66A      1.142221    67A      1.163144    68A      1.163409
      69A      1.223325    70A      1.274248    71A      1.274728
      72A      1.279347    73A      1.323995    74A      1.324712
      75A      1.355982    76A      1.365746    77A      1.366358
      78A      1.392453    79A      1.403556    80A      1.404542
      81A      1.416605    82A      1.417613    83A      1.427915
      84A      1.491492    85A      1.499083    86A      1.542554
      87A      1.543110    88A      1.574168    89A      1.574730
      90A      1.669804    91A      1.739019    92A      1.739792
      93A      1.768323    94A      1.829780    95A      1.833087
      96A      1.971700    97A      2.017839    98A      2.019096
      99A      2.019444   100A      2.051866   101A      2.053467
     102A      2.737952   103A      2.739015   104A      2.790929
     105A      2.811418   106A      2.889504   107A      2.890326
     108A      2.895025   109A      2.929392   110A      2.929600
     111A      2.959005   112A      2.963828   113A      2.964937
     114A      3.034021   115A      3.071033   116A      3.071526
     117A      3.084380   118A      3.168549   119A      3.169020
     120A      3.180593   121A      3.285237   122A      3.285399
     123A      3.326833   124A      3.327486   125A      3.375612
     126A      3.489301   127A      3.490996   128A      3.514026
     129A      3.525321   130A      3.567962   131A      3.568705
     132A      3.575285   133A      3.665527   134A      3.667119
     135A      3.679622   136A      3.693590   137A      3.694749
     138A      3.775445   139A      3.778186   140A      3.789156
     141A      3.911699   142A      3.912748   143A      4.034434
     144A      4.109832   145A      4.112760   146A      4.145810
     147A      4.150313   148A      4.173356   149A      4.200545
     150A      4.203570   151A      4.204604   152A      4.211170
     153A      4.314871   154A      4.316999   155A      4.358999
     156A      4.424058   157A      4.424765   158A      4.443566
     159A      4.516346   160A      4.517284   161A      4.577730
     162A      4.578826   163A      4.617526   164A      4.709486
     165A      4.773544   166A      4.775644   167A      4.836924
     168A      4.962862   169A      5.002309   170A      5.003641
     171A      5.227832   172A      5.243053   173A      5.250546
     174A      5.352575   175A      5.358623   176A      5.479440

    Beta Occupied:

       1A    -10.168447     2A    -10.167596     3A    -10.167283
       4A    -10.166517     5A     -0.781093     6A     -0.684330
       7A     -0.683650     8A     -0.511746     9A     -0.431157
      10A     -0.430933    11A     -0.421820    12A     -0.376917
      13A     -0.376451    14A     -0.362596    15A     -0.333185
      16A     -0.333056

    Beta Virtual:

      17A     -0.025743    18A      0.077080    19A      0.134974
      20A      0.135102    21A      0.144418    22A      0.144587
      23A      0.163334    24A      0.182138    25A      0.182765
      26A      0.215036    27A      0.218930    28A      0.282070
      29A      0.282596    30A      0.400305    31A      0.400489
      32A      0.419789    33A      0.426799    34A      0.427022
      35A      0.468499    36A      0.497559    37A      0.497742
      38A      0.513896    39A      0.556323    40A      0.584043
      41A      0.584685    42A      0.597413    43A      0.598195
      44A      0.610013    45A      0.628140    46A      0.631887
      47A      0.639222    48A      0.639902    49A      0.666779
      50A      0.667176    51A      0.686216    52A      0.686775
      53A      0.757517    54A      0.830078    55A      0.831062
      56A      0.855271    57A      0.922885    58A      0.923096
      59A      0.945964    60A      0.953534    61A      0.965934
      62A      0.967284    63A      1.008705    64A      1.131676
      65A      1.132586    66A      1.155597    67A      1.168249
      68A      1.168449    69A      1.232298    70A      1.279845
      71A      1.280326    72A      1.285101    73A      1.328937
      74A      1.329748    75A      1.365391    76A      1.371021
      77A      1.371576    78A      1.393515    79A      1.406988
      80A      1.408037    81A      1.421630    82A      1.422688
      83A      1.428184    84A      1.492541    85A      1.509526
      86A      1.546948    87A      1.547531    88A      1.582047
      89A      1.582595    90A      1.674650    91A      1.744779
      92A      1.745560    93A      1.779099    94A      1.833664
      95A      1.836915    96A      1.972564    97A      2.025342
      98A      2.025518    99A      2.039688   100A      2.058553
     101A      2.060216   102A      2.746285   103A      2.747355
     104A      2.811831   105A      2.816063   106A      2.902341
     107A      2.902922   108A      2.924670   109A      2.931928
     110A      2.932031   111A      2.960069   112A      2.968340
     113A      2.969513   114A      3.041955   115A      3.080895
     116A      3.081445   117A      3.086236   118A      3.184252
     119A      3.184797   120A      3.188293   121A      3.290000
     122A      3.290234   123A      3.330657   124A      3.331271
     125A      3.383431   126A      3.492066   127A      3.493689
     128A      3.512394   129A      3.528373   130A      3.574853
     131A      3.581542   132A      3.582082   133A      3.670274
     134A      3.671917   135A      3.692946   136A      3.725311
     137A      3.726217   138A      3.780028   139A      3.782658
     140A      3.817703   141A      3.921536   142A      3.922545
     143A      4.045315   144A      4.116839   145A      4.119362
     146A      4.153227   147A      4.157355   148A      4.187400
     149A      4.207184   150A      4.209565   151A      4.211805
     152A      4.215657   153A      4.322363   154A      4.324375
     155A      4.362370   156A      4.432314   157A      4.432891
     158A      4.446501   159A      4.524174   160A      4.525037
     161A      4.588366   162A      4.589388   163A      4.624721
     164A      4.719830   165A      4.780534   166A      4.782560
     167A      4.839842   168A      4.967658   169A      5.006357
     170A      5.007671   171A      5.233544   172A      5.244839
     173A      5.252337   174A      5.359060   175A      5.365094
     176A      5.481761

    Final Occupation by Irrep:
              A
    DOCC [    16 ]
    SOCC [     1 ]

  @DF-UKS Final Energy:  -157.81305342942838

   => Energetics <=

    Nuclear Repulsion Energy =            125.3946783950994046
    One-Electron Energy =                -458.7489769641180146
    Two-Electron Energy =                 195.8483931214213953
    DFT Exchange-Correlation Energy =     -20.3071479818311467
    Empirical Dispersion Energy =           0.0000000000000000
    VV10 Nonlocal Energy =                  0.0000000000000000
    Total Energy =                       -157.8130534294283791

  UHF NO Occupations:
  HONO-2 :   15  A 1.9996009
  HONO-1 :   16  A 1.9989804
  HONO-0 :   17  A 1.0000000
  LUNO+0 :   18  A 0.0010196
  LUNO+1 :   19  A 0.0003991
  LUNO+2 :   20  A 0.0001979
  LUNO+3 :   21  A 0.0001972

Computation Completed

Properties will be evaluated at   0.000000,   0.000000,   0.000000 [a0]

Properties computed using the SCF density matrix

  Nuclear Dipole Moment: [e a0]
     X:     0.8272      Y:     0.0025      Z:     0.0033

  Electronic Dipole Moment: [e a0]
     X:    -0.7493      Y:    -0.0049      Z:    -0.0034

  Dipole Moment: [e a0]
     X:     0.0779      Y:    -0.0025      Z:    -0.0000     Total:     0.0780

  Dipole Moment: [D]
     X:     0.1980      Y:    -0.0062      Z:    -0.0001     Total:     0.1981

*** tstop() called on n054 at Fri Nov  5 15:11:38 2021
Module time:
	user time   =     547.09 seconds =       9.12 minutes
	system time =      12.14 seconds =       0.20 minutes
	total time  =        141 seconds =       2.35 minutes
Total time:
	user time   =     547.09 seconds =       9.12 minutes
	system time =      12.14 seconds =       0.20 minutes
	total time  =        141 seconds =       2.35 minutes
Grab this energy -157.81305342942838
    Psi4 stopped on: Friday, 05 November 2021 03:11PM
    Psi4 wall time for execution: 0:02:20.74

*** Psi4 exiting successfully. Buy a developer a beer!
