                               Psi4 1.4a2.dev629

  ==> Input File <==

--------------------------------------------------------------------------
import os
memory 14 GB

molecule {
 C   -0.3223155855   -0.0000013486    0.0004341474
 C    0.0619322405   -1.4014476373   -2.4259789037
 C    0.0620812908    2.8016062284    0.0013901097
 C    0.0624675582   -1.4001526455    2.4265162942
 H    2.0844157145   -1.6453950370   -2.8461946053
 H   -0.7663546099   -0.3862518255   -4.0275770787
 H   -0.7633140564   -3.2922767085   -2.3487442840
 H    2.0834873988    3.2876813874    0.0034928588
 H   -0.7614873794    3.6796028694    1.6764597223
 H   -0.7678970833    3.6814051480   -1.6812427243
 H    2.0828364782   -1.6423786489    2.8479565034
 H   -0.7659147963   -3.2960461276    2.3473143182
 H   -0.7625450470   -0.3863699680    4.0261736419
units bohr
0 2
}

basis {

assign 6-31g_2dfp_

[ 6-31g_2dfp_ ]

spherical

!----------------------------------------------------------------------
! Basis Set Exchange
! Version v0.8.13
! https://www.basissetexchange.org
!----------------------------------------------------------------------
!   Basis set: 6-31G(2df,p)
! Description: 6-31G(2df,p)
!        Role: orbital
!     Version: 0  (Data from the original Basis Set Exchange)
!----------------------------------------------------------------------

****
H     0
S    3   1.00
     18.7311370              0.03349460
      2.8253937              0.23472695
      0.6401217              0.81375733
S    1   1.00
      0.1612778              1.00000000
P    1   1.00
      1.5000000              1.0000000
P    1   1.00
      0.3750000              1.0000000
****
B     0
S    6   1.00
   2068.8823000              0.0018663
    310.6495700              0.0142515
     70.6830330              0.0695516
     19.8610800              0.2325729
      6.2993048              0.4670787
      2.1270270              0.3634314
SP   3   1.00
      4.7279710             -0.1303938              0.0745976
      1.1903377             -0.1307889              0.3078467
      0.3594117              1.1309444              0.7434568
SP   1   1.00
      0.1267512              1.0000000              1.0000000
D    1   1.00
      0.8020000              1.0000000
D    1   1.00
      0.2005000              1.0000000
F    1   1.00
      0.5000000              1.0000000
****
C     0
S    6   1.00
   3047.5249000              0.0018347
    457.3695100              0.0140373
    103.9486900              0.0688426
     29.2101550              0.2321844
      9.2866630              0.4679413
      3.1639270              0.3623120
SP   3   1.00
      7.8682724             -0.1193324              0.0689991
      1.8812885             -0.1608542              0.3164240
      0.5442493              1.1434564              0.7443083
SP   1   1.00
      0.1687144              1.0000000              1.0000000
D    1   1.00
      1.2520000              1.0000000
D    1   1.00
      0.3130000              1.0000000
F    1   1.00
      0.8000000              1.0000000
****
N     0
S    6   1.00
   4173.5110000              0.0018348
    627.4579000              0.0139950
    142.9021000              0.0685870
     40.2343300              0.2322410
     12.8202100              0.4690700
      4.3904370              0.3604550
SP   3   1.00
     11.6263580             -0.1149610              0.0675800
      2.7162800             -0.1691180              0.3239070
      0.7722180              1.1458520              0.7408950
SP   1   1.00
      0.2120313              1.0000000              1.0000000
D    1   1.00
      1.8260000              1.0000000
D    1   1.00
      0.4565000              1.0000000
F    1   1.00
      1.0000000              1.0000000
****
O     0
S    6   1.00
   5484.6717000              0.0018311
    825.2349500              0.0139501
    188.0469600              0.0684451
     52.9645000              0.2327143
     16.8975700              0.4701930
      5.7996353              0.3585209
SP   3   1.00
     15.5396160             -0.1107775              0.0708743
      3.5999336             -0.1480263              0.3397528
      1.0137618              1.1307670              0.7271586
SP   1   1.00
      0.2700058              1.0000000              1.0000000
D    1   1.00
      2.5840000              1.0000000
D    1   1.00
      0.6460000              1.0000000
F    1   1.00
      1.4000000              1.0000000
****
F     0
S    6   1.00
   7001.7130900              0.0018196169
   1051.3660900              0.0139160796
    239.2856900              0.0684053245
     67.3974453              0.233185760
     21.5199573              0.471267439
      7.40310130             0.356618546
SP   3   1.00
     20.8479528             -0.108506975            0.0716287243
      4.80830834            -0.146451658            0.3459121030
      1.34406986             1.128688580            0.7224699570
SP   1   1.00
      0.358151393            1.0000000              1.0000000
D    1   1.00
      3.5000000              1.0000000
D    1   1.00
      0.8750000              1.0000000
F    1   1.00
      1.8500000              1.0000000
****
Al     0
S    6   1.00
  13983.1000000              0.00194267
   2098.7500000              0.0148599
    477.7050000              0.0728494
    134.3600000              0.2468300
     42.8709000              0.4872580
     14.5189000              0.3234960
SP   6   1.00
    239.6680000             -0.00292619             0.00460285
     57.4419000             -0.0374080              0.0331990
     18.2859000             -0.1144870              0.1362820
      6.5991400              0.1156350              0.3304760
      2.4904900              0.6125950              0.4491460
      0.9445400              0.3937990              0.2657040
SP   3   1.00
      1.2779000             -0.2276060             -0.0175130
      0.3975900              0.00144583             0.2445330
      0.1600950              1.0927900              0.8049340
SP   1   1.00
      0.0556577              1.0000000              1.0000000
D    1   1.00
      0.6500000              1.0000000
D    1   1.00
      0.1625000              1.0000000
F    1   1.00
      0.2500000              1.0000000
****
Si     0
S    6   1.00
  16115.9000000              0.00195948
   2425.5800000              0.01492880
    553.8670000              0.07284780
    156.3400000              0.24613000
     50.0683000              0.48591400
     17.0178000              0.32500200
SP   6   1.00
    292.7180000             -0.00278094             0.00443826
     69.8731000             -0.03571460             0.03266790
     22.3363000             -0.11498500             0.13472100
      8.1503900              0.09356340             0.32867800
      3.1345800              0.60301700             0.44964000
      1.2254300              0.41895900             0.26137200
SP   3   1.00
      1.7273800             -0.24463000            -0.01779510
      0.5729220              0.00431572             0.25353900
      0.2221920              1.09818000             0.80066900
SP   1   1.00
      0.0778369              1.00000000             1.00000000
D    1   1.00
      0.9000000              1.0000000
D    1   1.00
      0.2250000              1.0000000
F    1   1.00
      0.3200000              1.0000000
****
P     0
S    6   1.00
  19413.3000000              0.0018516
   2909.4200000              0.0142062
    661.3640000              0.0699995
    185.7590000              0.2400790
     59.1943000              0.4847620
     20.0310000              0.3352000
SP   6   1.00
    339.4780000             -0.00278217             0.00456462
     81.0101000             -0.0360499              0.03369360
     25.8780000             -0.1166310              0.13975500
      9.4522100              0.0968328              0.33936200
      3.6656600              0.6144180              0.45092100
      1.4674600              0.4037980              0.23858600
SP   3   1.00
      2.1562300             -0.2529230             -0.01776530
      0.7489970              0.0328517              0.27405800
      0.2831450              1.0812500              0.78542100
SP   1   1.00
      0.0998317              1.0000000              1.00000000
D    1   1.00
      1.1000000              1.0000000
D    1   1.00
      0.2750000              1.0000000
F    1   1.00
      0.4500000              1.0000000
****
S     0
S    6   1.00
  21917.1000000              0.0018690
   3301.4900000              0.0142300
    754.1460000              0.0696960
    212.7110000              0.2384870
     67.9896000              0.4833070
     23.0515000              0.3380740
SP   6   1.00
    423.7350000             -0.0023767              0.0040610
    100.7100000             -0.0316930              0.0306810
     32.1599000             -0.1133170              0.1304520
     11.8079000              0.0560900              0.3272050
      4.6311000              0.5922550              0.4528510
      1.8702500              0.4550060              0.2560420
SP   3   1.00
      2.6158400             -0.2503740             -0.0145110
      0.9221670              0.0669570              0.3102630
      0.3412870              1.0545100              0.7544830
SP   1   1.00
      0.1171670              1.0000000              1.0000000
D    1   1.00
      1.3000000              1.0000000
D    1   1.00
      0.3250000              1.0000000
F    1   1.00
      0.5500000              1.0000000
****
Cl     0
S    6   1.00
  25180.1000000              0.0018330
   3780.3500000              0.0140340
    860.4740000              0.0690970
    242.1450000              0.2374520
     77.3349000              0.4830340
     26.2470000              0.3398560
SP   6   1.00
    491.7650000             -0.0022974              0.0039894
    116.9840000             -0.0307140              0.0303180
     37.4153000             -0.1125280              0.1298800
     13.7834000              0.0450160              0.3279510
      5.4521500              0.5893530              0.4535270
      2.2258800              0.4652060              0.2521540
SP   3   1.00
      3.1864900             -0.2518300             -0.0142990
      1.1442700              0.0615890              0.3235720
      0.4203770              1.0601800              0.7435070
SP   1   1.00
      0.1426570              1.0000000              1.0000000
D    1   1.00
      1.5000000              1.0000000
D    1   1.00
      0.3750000              1.0000000
F    1   1.00
      0.7000000              1.0000000
****
}

set {
reference uhf
freeze_core true
e_convergence 10
d_convergence 10
dft_spherical_points 1202
dft_radial_points 99
}

e = energy('b3lyp')

print_out('Grab this energy {0}'.format(e))
--------------------------------------------------------------------------

    Molecular point group: c1

    Geometry (in Bohr), charge = 0, multiplicity = 2:

       Center              X                  Y                   Z               Mass
    ------------   -----------------  -----------------  -----------------  -----------------
         C           -0.323125592940    -0.000001804652    -0.000020722936    12.000000000000
         C            0.061122233060    -1.401448093352    -2.426433774036    12.000000000000
         C            0.061271283360     2.801605772348     0.000935239364    12.000000000000
         C            0.061657550760    -1.400153101552     2.426061423864    12.000000000000
         H            2.083605707060    -1.645395493052    -2.846649475636     1.007825032230
         H           -0.767164617340    -0.386252281552    -4.028031949036     1.007825032230
         H           -0.764124063840    -3.292277164552    -2.349199154336     1.007825032230
         H            2.082677391360     3.287680931348     0.003037988464     1.007825032230
         H           -0.762297386840     3.679602413348     1.676004851964     1.007825032230
         H           -0.768707090740     3.681404691948    -1.681697594636     1.007825032230
         H            2.082026470760    -1.642379104952     2.847501633064     1.007825032230
         H           -0.766724803740    -3.296046583652     2.346859447864     1.007825032230
         H           -0.763355054440    -0.386370424052     4.025718771564     1.007825032230

  Charge       = 0
  Multiplicity = 2
  Basis Set: ANONYMOUS4EA00000
    Blend: 6-31G_2DFP_
  Basis Set: (ANONYMOUS4EA00000 AUX)
    Blend: DEF2-UNIVERSAL-JKFIT

    Orbital Energies [Eh]
    ---------------------

    Alpha Occupied:

       1A    -10.180284     2A    -10.167031     3A    -10.167023
       4A    -10.166980     5A     -0.797804     6A     -0.686254
       7A     -0.686136     8A     -0.530789     9A     -0.441222
      10A     -0.434814    11A     -0.434440    12A     -0.382758
      13A     -0.382712    14A     -0.363434    15A     -0.338107
      16A     -0.337782    17A     -0.168924

    Alpha Virtual:

      18A      0.075984    19A      0.134025    20A      0.134266
      21A      0.142350    22A      0.142774    23A      0.155048
      24A      0.178864    25A      0.179049    26A      0.203589
      27A      0.214530    28A      0.275901    29A      0.276121
      30A      0.399100    31A      0.399593    32A      0.403428
      33A      0.423747    34A      0.424070    35A      0.456670
      36A      0.495161    37A      0.495261    38A      0.512279
      39A      0.514133    40A      0.578924    41A      0.579037
      42A      0.591755    43A      0.592049    44A      0.603323
      45A      0.624216    46A      0.631383    47A      0.635620
      48A      0.636180    49A      0.663699    50A      0.664118
      51A      0.683416    52A      0.683809    53A      0.734933
      54A      0.825188    55A      0.825688    56A      0.854195
      57A      0.915033    58A      0.915462    59A      0.943839
      60A      0.944463    61A      0.961310    62A      0.961480
      63A      1.003641    64A      1.127582    65A      1.128146
      66A      1.142942    67A      1.162941    68A      1.163062
      69A      1.222909    70A      1.274485    71A      1.274977
      72A      1.279517    73A      1.324346    74A      1.324774
      75A      1.355450    76A      1.365828    77A      1.366406
      78A      1.392494    79A      1.405031    80A      1.405103
      81A      1.415464    82A      1.416830    83A      1.428115
      84A      1.491517    85A      1.500024    86A      1.543192
      87A      1.543230    88A      1.573874    89A      1.574279
      90A      1.668567    91A      1.739560    92A      1.740971
      93A      1.770174    94A      1.829218    95A      1.830762
      96A      1.970736    97A      2.017629    98A      2.018785
      99A      2.019856   100A      2.053497   101A      2.054544
     102A      2.737987   103A      2.738346   104A      2.791318
     105A      2.810970   106A      2.890180   107A      2.890480
     108A      2.895272   109A      2.929268   110A      2.929314
     111A      2.959102   112A      2.964766   113A      2.964878
     114A      3.034710   115A      3.070738   116A      3.071827
     117A      3.083049   118A      3.168491   119A      3.169324
     120A      3.180644   121A      3.285243   122A      3.285574
     123A      3.326146   124A      3.326922   125A      3.375447
     126A      3.490123   127A      3.490676   128A      3.515231
     129A      3.524142   130A      3.568351   131A      3.569231
     132A      3.575953   133A      3.666273   134A      3.667289
     135A      3.679030   136A      3.693700   137A      3.694203
     138A      3.776269   139A      3.776484   140A      3.789913
     141A      3.911087   142A      3.912250   143A      4.033974
     144A      4.110828   145A      4.111911   146A      4.148365
     147A      4.148946   148A      4.175001   149A      4.201381
     150A      4.202809   151A      4.203038   152A      4.212087
     153A      4.315795   154A      4.317079   155A      4.357765
     156A      4.424649   157A      4.425727   158A      4.443221
     159A      4.516447   160A      4.518553   161A      4.577572
     162A      4.577604   163A      4.617643   164A      4.709986
     165A      4.773523   166A      4.775475   167A      4.835543
     168A      4.962560   169A      5.003886   170A      5.004641
     171A      5.230155   172A      5.243770   173A      5.244446
     174A      5.356267   175A      5.358752   176A      5.477467

    Beta Occupied:

       1A    -10.167782     2A    -10.167775     3A    -10.167751
       4A    -10.166456     5A     -0.781123     6A     -0.684047
       7A     -0.683924     8A     -0.511712     9A     -0.431162
      10A     -0.430787    11A     -0.421975    12A     -0.376864
      13A     -0.376826    14A     -0.362408    15A     -0.333230
      16A     -0.332913

    Beta Virtual:

      17A     -0.025615    18A      0.076978    19A      0.134827
      20A      0.135112    21A      0.144218    22A      0.144691
      23A      0.163486    24A      0.182564    25A      0.182747
      26A      0.214767    27A      0.218973    28A      0.282245
      29A      0.282463    30A      0.400263    31A      0.400766
      32A      0.419779    33A      0.426558    34A      0.426882
      35A      0.468677    36A      0.497407    37A      0.497518
      38A      0.514007    39A      0.556517    40A      0.584446
      41A      0.584558    42A      0.597920    43A      0.598259
      44A      0.610608    45A      0.627736    46A      0.631541
      47A      0.638964    48A      0.639483    49A      0.667248
      50A      0.667635    51A      0.686086    52A      0.686433
      53A      0.757460    54A      0.830347    55A      0.830823
      56A      0.855540    57A      0.923006    58A      0.923395
      59A      0.945684    60A      0.953341    61A      0.966634
      62A      0.966839    63A      1.008922    64A      1.131578
      65A      1.132133    66A      1.156241    67A      1.168043
      68A      1.168154    69A      1.231898    70A      1.280086
      71A      1.280613    72A      1.285328    73A      1.329290
      74A      1.329713    75A      1.364886    76A      1.371065
      77A      1.371518    78A      1.393537    79A      1.408529
      80A      1.408633    81A      1.420606    82A      1.421867
      83A      1.428376    84A      1.492593    85A      1.510460
      86A      1.547541    87A      1.547634    88A      1.581761
      89A      1.582167    90A      1.673364    91A      1.745313
      92A      1.746753    93A      1.780964    94A      1.833067
      95A      1.834621    96A      1.971610    97A      2.024894
      98A      2.026029    99A      2.039801   100A      2.060084
     101A      2.061155   102A      2.746303   103A      2.746684
     104A      2.811379   105A      2.816491   106A      2.902851
     107A      2.903237   108A      2.925180   109A      2.931745
     110A      2.931792   111A      2.960179   112A      2.969332
     113A      2.969459   114A      3.042433   115A      3.080567
     116A      3.081648   117A      3.085061   118A      3.184255
     119A      3.185021   120A      3.188346   121A      3.289999
     122A      3.290355   123A      3.329952   124A      3.330798
     125A      3.383291   126A      3.492907   127A      3.493433
     128A      3.513596   129A      3.527202   130A      3.575821
     131A      3.581438   132A      3.582475   133A      3.671257
     134A      3.671992   135A      3.692361   136A      3.725519
     137A      3.725630   138A      3.780834   139A      3.781111
     140A      3.818427   141A      3.920779   142A      3.922075
     143A      4.044800   144A      4.117433   145A      4.118935
     146A      4.155360   147A      4.156396   148A      4.189009
     149A      4.207234   150A      4.208833   151A      4.210843
     152A      4.216447   153A      4.323338   154A      4.324540
     155A      4.361171   156A      4.432882   157A      4.433920
     158A      4.446156   159A      4.524195   160A      4.526314
     161A      4.588186   162A      4.588276   163A      4.624930
     164A      4.720212   165A      4.780553   166A      4.782452
     167A      4.838472   168A      4.967343   169A      5.007902
     170A      5.008653   171A      5.235678   172A      5.245574
     173A      5.246471   174A      5.362781   175A      5.365247
     176A      5.479802

    Final Occupation by Irrep:
              A
    DOCC [    16 ]
    SOCC [     1 ]

  @DF-UKS Final Energy:  -157.81304734949981

   => Energetics <=

    Nuclear Repulsion Energy =            125.4000458138663419
    One-Electron Energy =                -458.7597111619428460
    Two-Electron Energy =                 195.8538787345193839
    DFT Exchange-Correlation Energy =     -20.3072607359426698
    Empirical Dispersion Energy =           0.0000000000000000
    VV10 Nonlocal Energy =                  0.0000000000000000
    Total Energy =                       -157.8130473494998114

  UHF NO Occupations:
  HONO-2 :   15  A 1.9996032
  HONO-1 :   16  A 1.9989813
  HONO-0 :   17  A 1.0000000
  LUNO+0 :   18  A 0.0010187
  LUNO+1 :   19  A 0.0003968
  LUNO+2 :   20  A 0.0001976
  LUNO+3 :   21  A 0.0001975

Computation Completed

Properties will be evaluated at   0.000000,   0.000000,   0.000000 [a0]

Properties computed using the SCF density matrix

  Nuclear Dipole Moment: [e a0]
     X:     0.8215      Y:    -0.0000      Z:    -0.0032

  Electronic Dipole Moment: [e a0]
     X:    -0.7404      Y:     0.0000      Z:     0.0049

  Dipole Moment: [e a0]
     X:     0.0811      Y:    -0.0000      Z:     0.0017     Total:     0.0811

  Dipole Moment: [D]
     X:     0.2061      Y:    -0.0000      Z:     0.0044     Total:     0.2062

*** tstop() called on n082 at Fri Nov  5 14:31:30 2021
Module time:
	user time   =     465.22 seconds =       7.75 minutes
	system time =       4.32 seconds =       0.07 minutes
	total time  =        118 seconds =       1.97 minutes
Total time:
	user time   =     465.22 seconds =       7.75 minutes
	system time =       4.32 seconds =       0.07 minutes
	total time  =        118 seconds =       1.97 minutes
Grab this energy -157.8130473494998
    Psi4 stopped on: Friday, 05 November 2021 02:31PM
    Psi4 wall time for execution: 0:01:58.10

*** Psi4 exiting successfully. Buy a developer a beer!
