                               Psi4 1.4a2.dev629

  ==> Input File <==

--------------------------------------------------------------------------
import os
memory 14 GB

molecule {
 C   -0.3233394071   -0.0002578948    0.0010210190
 C    0.0594672125   -1.3996906245   -2.4274630529
 C    0.0630708137    2.8017502104   -0.0018022676
 C    0.0607630453   -1.4009132404    2.4259705865
 H    2.0871092573   -1.6445330904   -2.8470850097
 H   -0.7650926553   -0.3883131603   -4.0254513323
 H   -0.7648707160   -3.2923302538   -2.3486251361
 H    2.0865960365    3.2881065761    0.0006932786
 H   -0.7661430786    3.6801468610    1.6765714730
 H   -0.7664345810    3.6803229450   -1.6760088383
 H    2.0869680832   -1.6440124504    2.8475832669
 H   -0.7653888640   -3.2920623886    2.3490443319
 H   -0.7653130230   -0.3882378029    4.0255516811
units bohr
0 2
}

basis {

assign 6-31g_2dfp_

[ 6-31g_2dfp_ ]

spherical

!----------------------------------------------------------------------
! Basis Set Exchange
! Version v0.8.13
! https://www.basissetexchange.org
!----------------------------------------------------------------------
!   Basis set: 6-31G(2df,p)
! Description: 6-31G(2df,p)
!        Role: orbital
!     Version: 0  (Data from the original Basis Set Exchange)
!----------------------------------------------------------------------

****
H     0
S    3   1.00
     18.7311370              0.03349460
      2.8253937              0.23472695
      0.6401217              0.81375733
S    1   1.00
      0.1612778              1.00000000
P    1   1.00
      1.5000000              1.0000000
P    1   1.00
      0.3750000              1.0000000
****
B     0
S    6   1.00
   2068.8823000              0.0018663
    310.6495700              0.0142515
     70.6830330              0.0695516
     19.8610800              0.2325729
      6.2993048              0.4670787
      2.1270270              0.3634314
SP   3   1.00
      4.7279710             -0.1303938              0.0745976
      1.1903377             -0.1307889              0.3078467
      0.3594117              1.1309444              0.7434568
SP   1   1.00
      0.1267512              1.0000000              1.0000000
D    1   1.00
      0.8020000              1.0000000
D    1   1.00
      0.2005000              1.0000000
F    1   1.00
      0.5000000              1.0000000
****
C     0
S    6   1.00
   3047.5249000              0.0018347
    457.3695100              0.0140373
    103.9486900              0.0688426
     29.2101550              0.2321844
      9.2866630              0.4679413
      3.1639270              0.3623120
SP   3   1.00
      7.8682724             -0.1193324              0.0689991
      1.8812885             -0.1608542              0.3164240
      0.5442493              1.1434564              0.7443083
SP   1   1.00
      0.1687144              1.0000000              1.0000000
D    1   1.00
      1.2520000              1.0000000
D    1   1.00
      0.3130000              1.0000000
F    1   1.00
      0.8000000              1.0000000
****
N     0
S    6   1.00
   4173.5110000              0.0018348
    627.4579000              0.0139950
    142.9021000              0.0685870
     40.2343300              0.2322410
     12.8202100              0.4690700
      4.3904370              0.3604550
SP   3   1.00
     11.6263580             -0.1149610              0.0675800
      2.7162800             -0.1691180              0.3239070
      0.7722180              1.1458520              0.7408950
SP   1   1.00
      0.2120313              1.0000000              1.0000000
D    1   1.00
      1.8260000              1.0000000
D    1   1.00
      0.4565000              1.0000000
F    1   1.00
      1.0000000              1.0000000
****
O     0
S    6   1.00
   5484.6717000              0.0018311
    825.2349500              0.0139501
    188.0469600              0.0684451
     52.9645000              0.2327143
     16.8975700              0.4701930
      5.7996353              0.3585209
SP   3   1.00
     15.5396160             -0.1107775              0.0708743
      3.5999336             -0.1480263              0.3397528
      1.0137618              1.1307670              0.7271586
SP   1   1.00
      0.2700058              1.0000000              1.0000000
D    1   1.00
      2.5840000              1.0000000
D    1   1.00
      0.6460000              1.0000000
F    1   1.00
      1.4000000              1.0000000
****
F     0
S    6   1.00
   7001.7130900              0.0018196169
   1051.3660900              0.0139160796
    239.2856900              0.0684053245
     67.3974453              0.233185760
     21.5199573              0.471267439
      7.40310130             0.356618546
SP   3   1.00
     20.8479528             -0.108506975            0.0716287243
      4.80830834            -0.146451658            0.3459121030
      1.34406986             1.128688580            0.7224699570
SP   1   1.00
      0.358151393            1.0000000              1.0000000
D    1   1.00
      3.5000000              1.0000000
D    1   1.00
      0.8750000              1.0000000
F    1   1.00
      1.8500000              1.0000000
****
Al     0
S    6   1.00
  13983.1000000              0.00194267
   2098.7500000              0.0148599
    477.7050000              0.0728494
    134.3600000              0.2468300
     42.8709000              0.4872580
     14.5189000              0.3234960
SP   6   1.00
    239.6680000             -0.00292619             0.00460285
     57.4419000             -0.0374080              0.0331990
     18.2859000             -0.1144870              0.1362820
      6.5991400              0.1156350              0.3304760
      2.4904900              0.6125950              0.4491460
      0.9445400              0.3937990              0.2657040
SP   3   1.00
      1.2779000             -0.2276060             -0.0175130
      0.3975900              0.00144583             0.2445330
      0.1600950              1.0927900              0.8049340
SP   1   1.00
      0.0556577              1.0000000              1.0000000
D    1   1.00
      0.6500000              1.0000000
D    1   1.00
      0.1625000              1.0000000
F    1   1.00
      0.2500000              1.0000000
****
Si     0
S    6   1.00
  16115.9000000              0.00195948
   2425.5800000              0.01492880
    553.8670000              0.07284780
    156.3400000              0.24613000
     50.0683000              0.48591400
     17.0178000              0.32500200
SP   6   1.00
    292.7180000             -0.00278094             0.00443826
     69.8731000             -0.03571460             0.03266790
     22.3363000             -0.11498500             0.13472100
      8.1503900              0.09356340             0.32867800
      3.1345800              0.60301700             0.44964000
      1.2254300              0.41895900             0.26137200
SP   3   1.00
      1.7273800             -0.24463000            -0.01779510
      0.5729220              0.00431572             0.25353900
      0.2221920              1.09818000             0.80066900
SP   1   1.00
      0.0778369              1.00000000             1.00000000
D    1   1.00
      0.9000000              1.0000000
D    1   1.00
      0.2250000              1.0000000
F    1   1.00
      0.3200000              1.0000000
****
P     0
S    6   1.00
  19413.3000000              0.0018516
   2909.4200000              0.0142062
    661.3640000              0.0699995
    185.7590000              0.2400790
     59.1943000              0.4847620
     20.0310000              0.3352000
SP   6   1.00
    339.4780000             -0.00278217             0.00456462
     81.0101000             -0.0360499              0.03369360
     25.8780000             -0.1166310              0.13975500
      9.4522100              0.0968328              0.33936200
      3.6656600              0.6144180              0.45092100
      1.4674600              0.4037980              0.23858600
SP   3   1.00
      2.1562300             -0.2529230             -0.01776530
      0.7489970              0.0328517              0.27405800
      0.2831450              1.0812500              0.78542100
SP   1   1.00
      0.0998317              1.0000000              1.00000000
D    1   1.00
      1.1000000              1.0000000
D    1   1.00
      0.2750000              1.0000000
F    1   1.00
      0.4500000              1.0000000
****
S     0
S    6   1.00
  21917.1000000              0.0018690
   3301.4900000              0.0142300
    754.1460000              0.0696960
    212.7110000              0.2384870
     67.9896000              0.4833070
     23.0515000              0.3380740
SP   6   1.00
    423.7350000             -0.0023767              0.0040610
    100.7100000             -0.0316930              0.0306810
     32.1599000             -0.1133170              0.1304520
     11.8079000              0.0560900              0.3272050
      4.6311000              0.5922550              0.4528510
      1.8702500              0.4550060              0.2560420
SP   3   1.00
      2.6158400             -0.2503740             -0.0145110
      0.9221670              0.0669570              0.3102630
      0.3412870              1.0545100              0.7544830
SP   1   1.00
      0.1171670              1.0000000              1.0000000
D    1   1.00
      1.3000000              1.0000000
D    1   1.00
      0.3250000              1.0000000
F    1   1.00
      0.5500000              1.0000000
****
Cl     0
S    6   1.00
  25180.1000000              0.0018330
   3780.3500000              0.0140340
    860.4740000              0.0690970
    242.1450000              0.2374520
     77.3349000              0.4830340
     26.2470000              0.3398560
SP   6   1.00
    491.7650000             -0.0022974              0.0039894
    116.9840000             -0.0307140              0.0303180
     37.4153000             -0.1125280              0.1298800
     13.7834000              0.0450160              0.3279510
      5.4521500              0.5893530              0.4535270
      2.2258800              0.4652060              0.2521540
SP   3   1.00
      3.1864900             -0.2518300             -0.0142990
      1.1442700              0.0615890              0.3235720
      0.4203770              1.0601800              0.7435070
SP   1   1.00
      0.1426570              1.0000000              1.0000000
D    1   1.00
      1.5000000              1.0000000
D    1   1.00
      0.3750000              1.0000000
F    1   1.00
      0.7000000              1.0000000
****
}

set {
reference uhf
freeze_core true
e_convergence 10
d_convergence 10
dft_spherical_points 1202
dft_radial_points 99
}

e = energy('b3lyp')

print_out('Grab this energy {0}'.format(e))
--------------------------------------------------------------------------

    Molecular point group: c1

    Geometry (in Bohr), charge = 0, multiplicity = 2:

       Center              X                  Y                   Z               Mass
    ------------   -----------------  -----------------  -----------------  -----------------
         C           -0.323339724760    -0.000428587442     0.001458952884    12.000000000000
         C            0.059466894840    -1.399861317142    -2.427025119016    12.000000000000
         C            0.063070496040     2.801579517758    -0.001364333716    12.000000000000
         C            0.060762727640    -1.401083933042     2.426408520384    12.000000000000
         H            2.087108939640    -1.644703783042    -2.846647075816     1.007825032230
         H           -0.765092972960    -0.388483852942    -4.025013398416     1.007825032230
         H           -0.764871033660    -3.292500946442    -2.348187202216     1.007825032230
         H            2.086595718840     3.287935883458     0.001131212484     1.007825032230
         H           -0.766143396260     3.679976168358     1.677009406884     1.007825032230
         H           -0.766434898660     3.680152252358    -1.675570904416     1.007825032230
         H            2.086967765540    -1.644183143042     2.848021200784     1.007825032230
         H           -0.765389181660    -3.292233081242     2.349482265784     1.007825032230
         H           -0.765313340660    -0.388408495542     4.025989614984     1.007825032230

  Charge       = 0
  Multiplicity = 2
  Basis Set: ANONYMOUS0F9B71C7
    Blend: 6-31G_2DFP_
  Basis Set: (ANONYMOUS0F9B71C7 AUX)
    Blend: DEF2-UNIVERSAL-JKFIT

    Orbital Energies [Eh]
    ---------------------

    Alpha Occupied:

       1A    -10.180342     2A    -10.167063     3A    -10.167012
       4A    -10.166970     5A     -0.797766     6A     -0.686273
       7A     -0.686101     8A     -0.530776     9A     -0.441127
      10A     -0.434771    11A     -0.434569    12A     -0.382756
      13A     -0.382443    14A     -0.363610    15A     -0.338304
      16A     -0.337693    17A     -0.168961

    Alpha Virtual:

      18A      0.076072    19A      0.134105    20A      0.134206
      21A      0.142539    22A      0.142716    23A      0.154879
      24A      0.178654    25A      0.178902    26A      0.203547
      27A      0.214803    28A      0.275848    29A      0.276122
      30A      0.399032    31A      0.399422    32A      0.403346
      33A      0.424049    34A      0.424146    35A      0.456593
      36A      0.495344    37A      0.495435    38A      0.512160
      39A      0.513979    40A      0.578726    41A      0.578910
      42A      0.591511    43A      0.591754    44A      0.602572
      45A      0.624759    46A      0.631769    47A      0.636141
      48A      0.636363    49A      0.663221    50A      0.663605
      51A      0.683703    52A      0.684003    53A      0.734995
      54A      0.825395    55A      0.825420    56A      0.853916
      57A      0.914918    58A      0.915134    59A      0.944126
      60A      0.944613    61A      0.961185    62A      0.961397
      63A      1.003453    64A      1.128011    65A      1.128210
      66A      1.142210    67A      1.163185    68A      1.163359
      69A      1.223323    70A      1.274257    71A      1.274720
      72A      1.279359    73A      1.324096    74A      1.324619
      75A      1.355985    76A      1.365670    77A      1.366440
      78A      1.392434    79A      1.403780    80A      1.404338
      81A      1.416714    82A      1.417515    83A      1.427918
      84A      1.491493    85A      1.499082    86A      1.542649
      87A      1.543003    88A      1.574096    89A      1.574805
      90A      1.669818    91A      1.738998    92A      1.739825
      93A      1.768343    94A      1.831188    95A      1.831606
      96A      1.971725    97A      2.018032    98A      2.018498
      99A      2.019864   100A      2.051932   101A      2.053347
     102A      2.738423   103A      2.738546   104A      2.790925
     105A      2.811427   106A      2.889229   107A      2.890679
     108A      2.894940   109A      2.929325   110A      2.929671
     111A      2.958994   112A      2.964068   113A      2.964688
     114A      3.034009   115A      3.071111   116A      3.071452
     117A      3.084357   118A      3.168604   119A      3.168938
     120A      3.180606   121A      3.285094   122A      3.285535
     123A      3.327000   124A      3.327319   125A      3.375621
     126A      3.489856   127A      3.490462   128A      3.514019
     129A      3.525326   130A      3.568233   131A      3.568541
     132A      3.575146   133A      3.666005   134A      3.666748
     135A      3.679684   136A      3.694112   137A      3.694136
     138A      3.776775   139A      3.776836   140A      3.789116
     141A      3.911856   142A      3.912584   143A      4.034459
     144A      4.111135   145A      4.111613   146A      4.147927
     147A      4.148325   148A      4.173248   149A      4.202468
     150A      4.202924   151A      4.203394   152A      4.210847
     153A      4.315053   154A      4.316856   155A      4.358980
     156A      4.423874   157A      4.424996   158A      4.443450
     159A      4.515781   160A      4.517906   161A      4.577925
     162A      4.578630   163A      4.617529   164A      4.709453
     165A      4.774059   166A      4.775124   167A      4.836918
     168A      4.962861   169A      5.002408   170A      5.003475
     171A      5.228041   172A      5.246572   173A      5.247063
     174A      5.355235   175A      5.355778   176A      5.479352

    Beta Occupied:

       1A    -10.167821     2A    -10.167767     3A    -10.167737
       4A    -10.166519     5A     -0.781091     6A     -0.684073
       7A     -0.683906     8A     -0.511747     9A     -0.431150
      10A     -0.430936    11A     -0.421820    12A     -0.376852
      13A     -0.376518    14A     -0.362593    15A     -0.333427
      16A     -0.332816

    Beta Virtual:

      17A     -0.025742    18A      0.077081    19A      0.134990
      20A      0.135101    21A      0.144425    22A      0.144572
      23A      0.163338    24A      0.182328    25A      0.182571
      26A      0.215032    27A      0.218929    28A      0.282210
      29A      0.282456    30A      0.400203    31A      0.400593
      32A      0.419789    33A      0.426858    34A      0.426961
      35A      0.468501    36A      0.497609    37A      0.497691
      38A      0.513895    39A      0.556325    40A      0.584280
      41A      0.584456    42A      0.597684    43A      0.597940
      44A      0.609996    45A      0.628135    46A      0.631928
      47A      0.639425    48A      0.639647    49A      0.666796
      50A      0.667157    51A      0.686335    52A      0.686641
      53A      0.757518    54A      0.830565    55A      0.830585
      56A      0.855269    57A      0.922890    58A      0.923106
      59A      0.945963    60A      0.953542    61A      0.966491
      62A      0.966704    63A      1.008693    64A      1.132003
      65A      1.132275    66A      1.155582    67A      1.168306
      68A      1.168391    69A      1.232296    70A      1.279829
      71A      1.280342    72A      1.285113    73A      1.329073
      74A      1.329620    75A      1.365401    76A      1.370896
      77A      1.371699    78A      1.393494    79A      1.407231
      80A      1.407817    81A      1.421788    82A      1.422538
      83A      1.428190    84A      1.492541    85A      1.509525
      86A      1.547048    87A      1.547420    88A      1.581996
      89A      1.582649    90A      1.674665    91A      1.744767
      92A      1.745581    93A      1.779120    94A      1.835044
      95A      1.835461    96A      1.972585    97A      2.024689
      98A      2.026198    99A      2.039685   100A      2.058642
     101A      2.060067   102A      2.746766   103A      2.746874
     104A      2.811839   105A      2.816060   106A      2.901934
     107A      2.903351   108A      2.924646   109A      2.931773
     110A      2.932186   111A      2.960057   112A      2.968624
     113A      2.969218   114A      3.041944   115A      3.081017
     116A      3.081356   117A      3.086183   118A      3.184342
     119A      3.184664   120A      3.188325   121A      3.289924
     122A      3.290302   123A      3.330787   124A      3.331141
     125A      3.383440   126A      3.492584   127A      3.493194
     128A      3.512383   129A      3.528372   130A      3.574990
     131A      3.581649   132A      3.581820   133A      3.670742
     134A      3.671516   135A      3.692970   136A      3.725521
     137A      3.725990   138A      3.781275   139A      3.781389
     140A      3.817661   141A      3.921648   142A      3.922425
     143A      4.045346   144A      4.117966   145A      4.118413
     146A      4.155149   147A      4.155519   148A      4.187309
     149A      4.208807   150A      4.209136   151A      4.210689
     152A      4.215318   153A      4.322453   154A      4.324335
     155A      4.362345   156A      4.432091   157A      4.433196
     158A      4.446346   159A      4.523577   160A      4.525690
     161A      4.588553   162A      4.589205   163A      4.624721
     164A      4.719798   165A      4.781035   166A      4.782054
     167A      4.839835   168A      4.967656   169A      5.006461
     170A      5.007499   171A      5.233755   172A      5.248365
     173A      5.248841   174A      5.361714   175A      5.362260
     176A      5.481673

    Final Occupation by Irrep:
              A
    DOCC [    16 ]
    SOCC [     1 ]

  @DF-UKS Final Energy:  -157.81306942135822

   => Energetics <=

    Nuclear Repulsion Energy =            125.3946115882102958
    One-Electron Energy =                -458.7488879810339313
    Two-Electron Energy =                 195.8483495006978501
    DFT Exchange-Correlation Energy =     -20.3071425292324292
    Empirical Dispersion Energy =           0.0000000000000000
    VV10 Nonlocal Energy =                  0.0000000000000000
    Total Energy =                       -157.8130694213582217

  UHF NO Occupations:
  HONO-2 :   15  A 1.9996009
  HONO-1 :   16  A 1.9989805
  HONO-0 :   17  A 1.0000000
  LUNO+0 :   18  A 0.0010195
  LUNO+1 :   19  A 0.0003991
  LUNO+2 :   20  A 0.0001980
  LUNO+3 :   21  A 0.0001971

Computation Completed

Properties will be evaluated at   0.000000,   0.000000,   0.000000 [a0]

Properties computed using the SCF density matrix

  Nuclear Dipole Moment: [e a0]
     X:     0.8272      Y:    -0.0012      Z:     0.0031

  Electronic Dipole Moment: [e a0]
     X:    -0.7493      Y:     0.0011      Z:    -0.0030

  Dipole Moment: [e a0]
     X:     0.0779      Y:    -0.0001      Z:     0.0000     Total:     0.0779

  Dipole Moment: [D]
     X:     0.1980      Y:    -0.0003      Z:     0.0001     Total:     0.1980

*** tstop() called on n080 at Fri Nov  5 11:59:07 2021
Module time:
	user time   =     493.41 seconds =       8.22 minutes
	system time =       4.51 seconds =       0.08 minutes
	total time  =        125 seconds =       2.08 minutes
Total time:
	user time   =     493.41 seconds =       8.22 minutes
	system time =       4.51 seconds =       0.08 minutes
	total time  =        125 seconds =       2.08 minutes
Grab this energy -157.81306942135822
    Psi4 stopped on: Friday, 05 November 2021 11:59AM
    Psi4 wall time for execution: 0:02:05.22

*** Psi4 exiting successfully. Buy a developer a beer!
