                               Psi4 1.4a2.dev629

  ==> Input File <==

--------------------------------------------------------------------------
import os
memory 14 GB

molecule {
 C   -0.3233397524    0.0002440383    0.0000023349
 C    0.0616968153   -1.4009178578   -2.4262866540
 C    0.0599101784    2.8018828387    0.0000488936
 C    0.0616956793   -1.4009983864    2.4262394697
 H    2.0885573795   -1.6429806969   -2.8516072634
 H   -0.7677595093   -0.3882390477   -4.0223943404
 H   -0.7615693500   -3.2929147239   -2.3476948558
 H    2.0835418276    3.2820144701    0.0046504442
 H   -0.7712890992    3.6838149932    1.6746142101
 H   -0.7632727656    3.6833590754   -1.6785983421
 H    2.0885468954   -1.6510478208    2.8469516772
 H   -0.7695913816   -3.2896815353    2.3500829085
 H   -0.7597347939   -0.3845596607    4.0239915176
units bohr
0 2
}

basis {

assign 6-31g_2dfp_

[ 6-31g_2dfp_ ]

spherical

!----------------------------------------------------------------------
! Basis Set Exchange
! Version v0.8.13
! https://www.basissetexchange.org
!----------------------------------------------------------------------
!   Basis set: 6-31G(2df,p)
! Description: 6-31G(2df,p)
!        Role: orbital
!     Version: 0  (Data from the original Basis Set Exchange)
!----------------------------------------------------------------------

****
H     0
S    3   1.00
     18.7311370              0.03349460
      2.8253937              0.23472695
      0.6401217              0.81375733
S    1   1.00
      0.1612778              1.00000000
P    1   1.00
      1.5000000              1.0000000
P    1   1.00
      0.3750000              1.0000000
****
B     0
S    6   1.00
   2068.8823000              0.0018663
    310.6495700              0.0142515
     70.6830330              0.0695516
     19.8610800              0.2325729
      6.2993048              0.4670787
      2.1270270              0.3634314
SP   3   1.00
      4.7279710             -0.1303938              0.0745976
      1.1903377             -0.1307889              0.3078467
      0.3594117              1.1309444              0.7434568
SP   1   1.00
      0.1267512              1.0000000              1.0000000
D    1   1.00
      0.8020000              1.0000000
D    1   1.00
      0.2005000              1.0000000
F    1   1.00
      0.5000000              1.0000000
****
C     0
S    6   1.00
   3047.5249000              0.0018347
    457.3695100              0.0140373
    103.9486900              0.0688426
     29.2101550              0.2321844
      9.2866630              0.4679413
      3.1639270              0.3623120
SP   3   1.00
      7.8682724             -0.1193324              0.0689991
      1.8812885             -0.1608542              0.3164240
      0.5442493              1.1434564              0.7443083
SP   1   1.00
      0.1687144              1.0000000              1.0000000
D    1   1.00
      1.2520000              1.0000000
D    1   1.00
      0.3130000              1.0000000
F    1   1.00
      0.8000000              1.0000000
****
N     0
S    6   1.00
   4173.5110000              0.0018348
    627.4579000              0.0139950
    142.9021000              0.0685870
     40.2343300              0.2322410
     12.8202100              0.4690700
      4.3904370              0.3604550
SP   3   1.00
     11.6263580             -0.1149610              0.0675800
      2.7162800             -0.1691180              0.3239070
      0.7722180              1.1458520              0.7408950
SP   1   1.00
      0.2120313              1.0000000              1.0000000
D    1   1.00
      1.8260000              1.0000000
D    1   1.00
      0.4565000              1.0000000
F    1   1.00
      1.0000000              1.0000000
****
O     0
S    6   1.00
   5484.6717000              0.0018311
    825.2349500              0.0139501
    188.0469600              0.0684451
     52.9645000              0.2327143
     16.8975700              0.4701930
      5.7996353              0.3585209
SP   3   1.00
     15.5396160             -0.1107775              0.0708743
      3.5999336             -0.1480263              0.3397528
      1.0137618              1.1307670              0.7271586
SP   1   1.00
      0.2700058              1.0000000              1.0000000
D    1   1.00
      2.5840000              1.0000000
D    1   1.00
      0.6460000              1.0000000
F    1   1.00
      1.4000000              1.0000000
****
F     0
S    6   1.00
   7001.7130900              0.0018196169
   1051.3660900              0.0139160796
    239.2856900              0.0684053245
     67.3974453              0.233185760
     21.5199573              0.471267439
      7.40310130             0.356618546
SP   3   1.00
     20.8479528             -0.108506975            0.0716287243
      4.80830834            -0.146451658            0.3459121030
      1.34406986             1.128688580            0.7224699570
SP   1   1.00
      0.358151393            1.0000000              1.0000000
D    1   1.00
      3.5000000              1.0000000
D    1   1.00
      0.8750000              1.0000000
F    1   1.00
      1.8500000              1.0000000
****
Al     0
S    6   1.00
  13983.1000000              0.00194267
   2098.7500000              0.0148599
    477.7050000              0.0728494
    134.3600000              0.2468300
     42.8709000              0.4872580
     14.5189000              0.3234960
SP   6   1.00
    239.6680000             -0.00292619             0.00460285
     57.4419000             -0.0374080              0.0331990
     18.2859000             -0.1144870              0.1362820
      6.5991400              0.1156350              0.3304760
      2.4904900              0.6125950              0.4491460
      0.9445400              0.3937990              0.2657040
SP   3   1.00
      1.2779000             -0.2276060             -0.0175130
      0.3975900              0.00144583             0.2445330
      0.1600950              1.0927900              0.8049340
SP   1   1.00
      0.0556577              1.0000000              1.0000000
D    1   1.00
      0.6500000              1.0000000
D    1   1.00
      0.1625000              1.0000000
F    1   1.00
      0.2500000              1.0000000
****
Si     0
S    6   1.00
  16115.9000000              0.00195948
   2425.5800000              0.01492880
    553.8670000              0.07284780
    156.3400000              0.24613000
     50.0683000              0.48591400
     17.0178000              0.32500200
SP   6   1.00
    292.7180000             -0.00278094             0.00443826
     69.8731000             -0.03571460             0.03266790
     22.3363000             -0.11498500             0.13472100
      8.1503900              0.09356340             0.32867800
      3.1345800              0.60301700             0.44964000
      1.2254300              0.41895900             0.26137200
SP   3   1.00
      1.7273800             -0.24463000            -0.01779510
      0.5729220              0.00431572             0.25353900
      0.2221920              1.09818000             0.80066900
SP   1   1.00
      0.0778369              1.00000000             1.00000000
D    1   1.00
      0.9000000              1.0000000
D    1   1.00
      0.2250000              1.0000000
F    1   1.00
      0.3200000              1.0000000
****
P     0
S    6   1.00
  19413.3000000              0.0018516
   2909.4200000              0.0142062
    661.3640000              0.0699995
    185.7590000              0.2400790
     59.1943000              0.4847620
     20.0310000              0.3352000
SP   6   1.00
    339.4780000             -0.00278217             0.00456462
     81.0101000             -0.0360499              0.03369360
     25.8780000             -0.1166310              0.13975500
      9.4522100              0.0968328              0.33936200
      3.6656600              0.6144180              0.45092100
      1.4674600              0.4037980              0.23858600
SP   3   1.00
      2.1562300             -0.2529230             -0.01776530
      0.7489970              0.0328517              0.27405800
      0.2831450              1.0812500              0.78542100
SP   1   1.00
      0.0998317              1.0000000              1.00000000
D    1   1.00
      1.1000000              1.0000000
D    1   1.00
      0.2750000              1.0000000
F    1   1.00
      0.4500000              1.0000000
****
S     0
S    6   1.00
  21917.1000000              0.0018690
   3301.4900000              0.0142300
    754.1460000              0.0696960
    212.7110000              0.2384870
     67.9896000              0.4833070
     23.0515000              0.3380740
SP   6   1.00
    423.7350000             -0.0023767              0.0040610
    100.7100000             -0.0316930              0.0306810
     32.1599000             -0.1133170              0.1304520
     11.8079000              0.0560900              0.3272050
      4.6311000              0.5922550              0.4528510
      1.8702500              0.4550060              0.2560420
SP   3   1.00
      2.6158400             -0.2503740             -0.0145110
      0.9221670              0.0669570              0.3102630
      0.3412870              1.0545100              0.7544830
SP   1   1.00
      0.1171670              1.0000000              1.0000000
D    1   1.00
      1.3000000              1.0000000
D    1   1.00
      0.3250000              1.0000000
F    1   1.00
      0.5500000              1.0000000
****
Cl     0
S    6   1.00
  25180.1000000              0.0018330
   3780.3500000              0.0140340
    860.4740000              0.0690970
    242.1450000              0.2374520
     77.3349000              0.4830340
     26.2470000              0.3398560
SP   6   1.00
    491.7650000             -0.0022974              0.0039894
    116.9840000             -0.0307140              0.0303180
     37.4153000             -0.1125280              0.1298800
     13.7834000              0.0450160              0.3279510
      5.4521500              0.5893530              0.4535270
      2.2258800              0.4652060              0.2521540
SP   3   1.00
      3.1864900             -0.2518300             -0.0142990
      1.1442700              0.0615890              0.3235720
      0.4203770              1.0601800              0.7435070
SP   1   1.00
      0.1426570              1.0000000              1.0000000
D    1   1.00
      1.5000000              1.0000000
D    1   1.00
      0.3750000              1.0000000
F    1   1.00
      0.7000000              1.0000000
****
}

set {
reference uhf
freeze_core true
e_convergence 10
d_convergence 10
dft_spherical_points 1202
dft_radial_points 99
}

e = energy('b3lyp')

print_out('Grab this energy {0}'.format(e))
--------------------------------------------------------------------------

    Molecular point group: c1

    Geometry (in Bohr), charge = 0, multiplicity = 2:

       Center              X                  Y                   Z               Mass
    ------------   -----------------  -----------------  -----------------  -----------------
         C           -0.323340312013     0.000203898271     0.000001555956    12.000000000000
         C            0.061696255687    -1.400957997829    -2.426287432944    12.000000000000
         C            0.059909618787     2.801842698671     0.000048114656    12.000000000000
         C            0.061695119687    -1.401038526429     2.426238690756    12.000000000000
         H            2.088556819887    -1.643020836929    -2.851608042344     1.007825032230
         H           -0.767760068913    -0.388279187729    -4.022395119344     1.007825032230
         H           -0.761569909613    -3.292954863929    -2.347695634744     1.007825032230
         H            2.083541267987     3.281974330071     0.004649665256     1.007825032230
         H           -0.771289658813     3.683774853171     1.674613431156     1.007825032230
         H           -0.763273325213     3.683318935371    -1.678599121044     1.007825032230
         H            2.088546335787    -1.651087960829     2.846950898256     1.007825032230
         H           -0.769591941213    -3.289721675329     2.350082129556     1.007825032230
         H           -0.759735353513    -0.384599800729     4.023990738656     1.007825032230

  Charge       = 0
  Multiplicity = 2
  Basis Set: ANONYMOUSA4906DE1
    Blend: 6-31G_2DFP_
  Basis Set: (ANONYMOUSA4906DE1 AUX)
    Blend: DEF2-UNIVERSAL-JKFIT

    Orbital Energies [Eh]
    ---------------------

    Alpha Occupied:

       1A    -10.180342     2A    -10.167055     3A    -10.167013
       4A    -10.166976     5A     -0.797766     6A     -0.686217
       7A     -0.686157     8A     -0.530775     9A     -0.441125
      10A     -0.434757    11A     -0.434586    12A     -0.382823
      13A     -0.382373    14A     -0.363611    15A     -0.338153
      16A     -0.337846    17A     -0.168961

    Alpha Virtual:

      18A      0.076073    19A      0.134108    20A      0.134203
      21A      0.142422    22A      0.142834    23A      0.154880
      24A      0.178642    25A      0.178909    26A      0.203550
      27A      0.214802    28A      0.275964    29A      0.276007
      30A      0.399100    31A      0.399357    32A      0.403345
      33A      0.423995    34A      0.424200    35A      0.456594
      36A      0.495377    37A      0.495401    38A      0.512148
      39A      0.513995    40A      0.578677    41A      0.578946
      42A      0.591380    43A      0.591868    44A      0.602601
      45A      0.624762    46A      0.631750    47A      0.636054
      48A      0.636467    49A      0.663373    50A      0.663453
      51A      0.683737    52A      0.683965    53A      0.734993
      54A      0.825347    55A      0.825467    56A      0.853914
      57A      0.914703    58A      0.915341    59A      0.943997
      60A      0.944715    61A      0.961231    62A      0.961387
      63A      1.003463    64A      1.127698    65A      1.128523
      66A      1.142207    67A      1.163117    68A      1.163433
      69A      1.223325    70A      1.274370    71A      1.274589
      72A      1.279367    73A      1.324280    74A      1.324432
      75A      1.355960    76A      1.366050    77A      1.366066
      78A      1.392466    79A      1.403560    80A      1.404534
      81A      1.416754    82A      1.417456    83A      1.427922
      84A      1.491474    85A      1.499085    86A      1.542825
      87A      1.542844    88A      1.573967    89A      1.574935
      90A      1.669830    91A      1.739331    92A      1.739492
      93A      1.768330    94A      1.830974    95A      1.831825
      96A      1.971719    97A      2.018301    98A      2.018969
      99A      2.019127   100A      2.052175   101A      2.053101
     102A      2.738474   103A      2.738502   104A      2.790919
     105A      2.811429   106A      2.889759   107A      2.890120
     108A      2.894977   109A      2.929189   110A      2.929800
     111A      2.958988   112A      2.964185   113A      2.964575
     114A      3.034002   115A      3.070633   116A      3.071936
     117A      3.084351   118A      3.168551   119A      3.169017
     120A      3.180579   121A      3.285199   122A      3.285431
     123A      3.326287   124A      3.328044   125A      3.375620
     126A      3.489091   127A      3.491234   128A      3.513991
     129A      3.525342   130A      3.568314   131A      3.568321
     132A      3.575300   133A      3.665962   134A      3.666786
     135A      3.679664   136A      3.693461   137A      3.694767
     138A      3.776718   139A      3.776874   140A      3.789171
     141A      3.912100   142A      3.912354   143A      4.034451
     144A      4.111242   145A      4.111497   146A      4.148094
     147A      4.148142   148A      4.173246   149A      4.202109
     150A      4.203282   151A      4.203421   152A      4.210838
     153A      4.315776   154A      4.316151   155A      4.358975
     156A      4.424397   157A      4.424540   158A      4.443406
     159A      4.516230   160A      4.517416   161A      4.578266
     162A      4.578293   163A      4.617582   164A      4.709392
     165A      4.773988   166A      4.775207   167A      4.836910
     168A      4.962865   169A      5.002399   170A      5.003507
     171A      5.228068   172A      5.246261   173A      5.247359
     174A      5.355454   175A      5.355557   176A      5.479344

    Beta Occupied:

       1A    -10.167807     2A    -10.167768     3A    -10.167749
       4A    -10.166519     5A     -0.781091     6A     -0.684014
       7A     -0.683965     8A     -0.511747     9A     -0.431139
      10A     -0.430945    11A     -0.421823    12A     -0.376914
      13A     -0.376452    14A     -0.362595    15A     -0.333264
      16A     -0.332981

    Beta Virtual:

      17A     -0.025743    18A      0.077082    19A      0.135004
      20A      0.135086    21A      0.144315    22A      0.144682
      23A      0.163339    24A      0.182309    25A      0.182585
      26A      0.215030    27A      0.218933    28A      0.282307
      29A      0.282360    30A      0.400273    31A      0.400522
      32A      0.419792    33A      0.426805    34A      0.427013
      35A      0.468502    36A      0.497638    37A      0.497663
      38A      0.513896    39A      0.556326    40A      0.584223
      41A      0.584502    42A      0.597554    43A      0.598056
      44A      0.610018    45A      0.628138    46A      0.631917
      47A      0.639331    48A      0.639751    49A      0.666928
      50A      0.667025    51A      0.686388    52A      0.686584
      53A      0.757517    54A      0.830518    55A      0.830633
      56A      0.855267    57A      0.922700    58A      0.923288
      59A      0.945928    60A      0.953549    61A      0.966548
      62A      0.966681    63A      1.008703    64A      1.131771
      65A      1.132504    66A      1.155579    67A      1.168164
      68A      1.168539    69A      1.232297    70A      1.279983
      71A      1.280174    72A      1.285120    73A      1.329264
      74A      1.329425    75A      1.365356    76A      1.371307
      77A      1.371311    78A      1.393530    79A      1.407019
      80A      1.408005    81A      1.421795    82A      1.422502
      83A      1.428203    84A      1.492536    85A      1.509511
      86A      1.547156    87A      1.547337    88A      1.581746
      89A      1.582896    90A      1.674677    91A      1.745095
      92A      1.745252    93A      1.779108    94A      1.834834
      95A      1.835675    96A      1.972579    97A      2.025391
      98A      2.025511    99A      2.039672   100A      2.058877
     101A      2.059831   102A      2.746798   103A      2.746850
     104A      2.811794   105A      2.816102   106A      2.902448
     107A      2.902832   108A      2.924658   109A      2.931680
     110A      2.932272   111A      2.960055   112A      2.968730
     113A      2.969114   114A      3.041936   115A      3.080501
     116A      3.081888   117A      3.086167   118A      3.184305
     119A      3.184771   120A      3.188252   121A      3.289960
     122A      3.290267   123A      3.330104   124A      3.331837
     125A      3.383438   126A      3.491843   127A      3.493942
     128A      3.512361   129A      3.528382   130A      3.574894
     131A      3.581712   132A      3.581868   133A      3.670720
     134A      3.671525   135A      3.692949   136A      3.725343
     137A      3.726165   138A      3.781280   139A      3.781372
     140A      3.817701   141A      3.921910   142A      3.922177
     143A      4.045339   144A      4.118084   145A      4.118288
     146A      4.155219   147A      4.155431   148A      4.187306
     149A      4.208507   150A      4.209359   151A      4.210789
     152A      4.215312   153A      4.323246   154A      4.323564
     155A      4.362336   156A      4.432602   157A      4.432767
     158A      4.446287   159A      4.524027   160A      4.525201
     161A      4.588853   162A      4.588909   163A      4.624774
     164A      4.719736   165A      4.780911   166A      4.782192
     167A      4.839827   168A      4.967659   169A      5.006453
     170A      5.007531   171A      5.233783   172A      5.248047
     173A      5.249141   174A      5.361942   175A      5.362031
     176A      5.481665

    Final Occupation by Irrep:
              A
    DOCC [    16 ]
    SOCC [     1 ]

  @DF-UKS Final Energy:  -157.81306780103796

   => Energetics <=

    Nuclear Repulsion Energy =            125.3945924429336003
    One-Electron Energy =                -458.7488445976824778
    Two-Electron Energy =                 195.8483269161727662
    DFT Exchange-Correlation Energy =     -20.3071425624618200
    Empirical Dispersion Energy =           0.0000000000000000
    VV10 Nonlocal Energy =                  0.0000000000000000
    Total Energy =                       -157.8130678010379597

  UHF NO Occupations:
  HONO-2 :   15  A 1.9996009
  HONO-1 :   16  A 1.9989805
  HONO-0 :   17  A 1.0000000
  LUNO+0 :   18  A 0.0010195
  LUNO+1 :   19  A 0.0003991
  LUNO+2 :   20  A 0.0001977
  LUNO+3 :   21  A 0.0001974

Computation Completed

Properties will be evaluated at   0.000000,   0.000000,   0.000000 [a0]

Properties computed using the SCF density matrix

  Nuclear Dipole Moment: [e a0]
     X:     0.8272      Y:    -0.0003      Z:    -0.0000

  Electronic Dipole Moment: [e a0]
     X:    -0.7493      Y:     0.0011      Z:     0.0000

  Dipole Moment: [e a0]
     X:     0.0779      Y:     0.0008      Z:     0.0000     Total:     0.0779

  Dipole Moment: [D]
     X:     0.1980      Y:     0.0019      Z:     0.0000     Total:     0.1980

*** tstop() called on n056 at Fri Nov  5 15:23:29 2021
Module time:
	user time   =     511.92 seconds =       8.53 minutes
	system time =      11.36 seconds =       0.19 minutes
	total time  =        132 seconds =       2.20 minutes
Total time:
	user time   =     511.92 seconds =       8.53 minutes
	system time =      11.36 seconds =       0.19 minutes
	total time  =        132 seconds =       2.20 minutes
Grab this energy -157.81306780103796
    Psi4 stopped on: Friday, 05 November 2021 03:23PM
    Psi4 wall time for execution: 0:02:11.75

*** Psi4 exiting successfully. Buy a developer a beer!
