                               Psi4 1.4a2.dev629

  ==> Input File <==

--------------------------------------------------------------------------
import os
memory 14 GB

molecule {
 C   -0.3233632934   -0.0000015194   -0.0002239628
 C    0.0609012575   -1.3993564087   -2.4242284861
 C    0.0609268603    2.8011014650   -0.0004821031
 C    0.0611915193   -1.4017394161    2.4273922678
 H    2.0900183429   -1.6442962384   -2.8475982282
 H   -0.7668488661   -0.3863542011   -4.0274617976
 H   -0.7669507132   -3.2947227799   -2.3483047773
 H    2.0899520468    3.2877430520    0.0001870849
 H   -0.7671110460    3.6804414377    1.6793831360
 H   -0.7672342732    3.6804659894   -1.6791956490
 H    2.0901597715   -1.6435402150    2.8466627118
 H   -0.7672372606   -3.2943053242    2.3472329813
 H   -0.7670122224   -0.3854601549    4.0266368225
units bohr
0 2
}

basis {

assign 6-31g_2dfp_

[ 6-31g_2dfp_ ]

spherical

!----------------------------------------------------------------------
! Basis Set Exchange
! Version v0.8.13
! https://www.basissetexchange.org
!----------------------------------------------------------------------
!   Basis set: 6-31G(2df,p)
! Description: 6-31G(2df,p)
!        Role: orbital
!     Version: 0  (Data from the original Basis Set Exchange)
!----------------------------------------------------------------------

****
H     0
S    3   1.00
     18.7311370              0.03349460
      2.8253937              0.23472695
      0.6401217              0.81375733
S    1   1.00
      0.1612778              1.00000000
P    1   1.00
      1.5000000              1.0000000
P    1   1.00
      0.3750000              1.0000000
****
B     0
S    6   1.00
   2068.8823000              0.0018663
    310.6495700              0.0142515
     70.6830330              0.0695516
     19.8610800              0.2325729
      6.2993048              0.4670787
      2.1270270              0.3634314
SP   3   1.00
      4.7279710             -0.1303938              0.0745976
      1.1903377             -0.1307889              0.3078467
      0.3594117              1.1309444              0.7434568
SP   1   1.00
      0.1267512              1.0000000              1.0000000
D    1   1.00
      0.8020000              1.0000000
D    1   1.00
      0.2005000              1.0000000
F    1   1.00
      0.5000000              1.0000000
****
C     0
S    6   1.00
   3047.5249000              0.0018347
    457.3695100              0.0140373
    103.9486900              0.0688426
     29.2101550              0.2321844
      9.2866630              0.4679413
      3.1639270              0.3623120
SP   3   1.00
      7.8682724             -0.1193324              0.0689991
      1.8812885             -0.1608542              0.3164240
      0.5442493              1.1434564              0.7443083
SP   1   1.00
      0.1687144              1.0000000              1.0000000
D    1   1.00
      1.2520000              1.0000000
D    1   1.00
      0.3130000              1.0000000
F    1   1.00
      0.8000000              1.0000000
****
N     0
S    6   1.00
   4173.5110000              0.0018348
    627.4579000              0.0139950
    142.9021000              0.0685870
     40.2343300              0.2322410
     12.8202100              0.4690700
      4.3904370              0.3604550
SP   3   1.00
     11.6263580             -0.1149610              0.0675800
      2.7162800             -0.1691180              0.3239070
      0.7722180              1.1458520              0.7408950
SP   1   1.00
      0.2120313              1.0000000              1.0000000
D    1   1.00
      1.8260000              1.0000000
D    1   1.00
      0.4565000              1.0000000
F    1   1.00
      1.0000000              1.0000000
****
O     0
S    6   1.00
   5484.6717000              0.0018311
    825.2349500              0.0139501
    188.0469600              0.0684451
     52.9645000              0.2327143
     16.8975700              0.4701930
      5.7996353              0.3585209
SP   3   1.00
     15.5396160             -0.1107775              0.0708743
      3.5999336             -0.1480263              0.3397528
      1.0137618              1.1307670              0.7271586
SP   1   1.00
      0.2700058              1.0000000              1.0000000
D    1   1.00
      2.5840000              1.0000000
D    1   1.00
      0.6460000              1.0000000
F    1   1.00
      1.4000000              1.0000000
****
F     0
S    6   1.00
   7001.7130900              0.0018196169
   1051.3660900              0.0139160796
    239.2856900              0.0684053245
     67.3974453              0.233185760
     21.5199573              0.471267439
      7.40310130             0.356618546
SP   3   1.00
     20.8479528             -0.108506975            0.0716287243
      4.80830834            -0.146451658            0.3459121030
      1.34406986             1.128688580            0.7224699570
SP   1   1.00
      0.358151393            1.0000000              1.0000000
D    1   1.00
      3.5000000              1.0000000
D    1   1.00
      0.8750000              1.0000000
F    1   1.00
      1.8500000              1.0000000
****
Al     0
S    6   1.00
  13983.1000000              0.00194267
   2098.7500000              0.0148599
    477.7050000              0.0728494
    134.3600000              0.2468300
     42.8709000              0.4872580
     14.5189000              0.3234960
SP   6   1.00
    239.6680000             -0.00292619             0.00460285
     57.4419000             -0.0374080              0.0331990
     18.2859000             -0.1144870              0.1362820
      6.5991400              0.1156350              0.3304760
      2.4904900              0.6125950              0.4491460
      0.9445400              0.3937990              0.2657040
SP   3   1.00
      1.2779000             -0.2276060             -0.0175130
      0.3975900              0.00144583             0.2445330
      0.1600950              1.0927900              0.8049340
SP   1   1.00
      0.0556577              1.0000000              1.0000000
D    1   1.00
      0.6500000              1.0000000
D    1   1.00
      0.1625000              1.0000000
F    1   1.00
      0.2500000              1.0000000
****
Si     0
S    6   1.00
  16115.9000000              0.00195948
   2425.5800000              0.01492880
    553.8670000              0.07284780
    156.3400000              0.24613000
     50.0683000              0.48591400
     17.0178000              0.32500200
SP   6   1.00
    292.7180000             -0.00278094             0.00443826
     69.8731000             -0.03571460             0.03266790
     22.3363000             -0.11498500             0.13472100
      8.1503900              0.09356340             0.32867800
      3.1345800              0.60301700             0.44964000
      1.2254300              0.41895900             0.26137200
SP   3   1.00
      1.7273800             -0.24463000            -0.01779510
      0.5729220              0.00431572             0.25353900
      0.2221920              1.09818000             0.80066900
SP   1   1.00
      0.0778369              1.00000000             1.00000000
D    1   1.00
      0.9000000              1.0000000
D    1   1.00
      0.2250000              1.0000000
F    1   1.00
      0.3200000              1.0000000
****
P     0
S    6   1.00
  19413.3000000              0.0018516
   2909.4200000              0.0142062
    661.3640000              0.0699995
    185.7590000              0.2400790
     59.1943000              0.4847620
     20.0310000              0.3352000
SP   6   1.00
    339.4780000             -0.00278217             0.00456462
     81.0101000             -0.0360499              0.03369360
     25.8780000             -0.1166310              0.13975500
      9.4522100              0.0968328              0.33936200
      3.6656600              0.6144180              0.45092100
      1.4674600              0.4037980              0.23858600
SP   3   1.00
      2.1562300             -0.2529230             -0.01776530
      0.7489970              0.0328517              0.27405800
      0.2831450              1.0812500              0.78542100
SP   1   1.00
      0.0998317              1.0000000              1.00000000
D    1   1.00
      1.1000000              1.0000000
D    1   1.00
      0.2750000              1.0000000
F    1   1.00
      0.4500000              1.0000000
****
S     0
S    6   1.00
  21917.1000000              0.0018690
   3301.4900000              0.0142300
    754.1460000              0.0696960
    212.7110000              0.2384870
     67.9896000              0.4833070
     23.0515000              0.3380740
SP   6   1.00
    423.7350000             -0.0023767              0.0040610
    100.7100000             -0.0316930              0.0306810
     32.1599000             -0.1133170              0.1304520
     11.8079000              0.0560900              0.3272050
      4.6311000              0.5922550              0.4528510
      1.8702500              0.4550060              0.2560420
SP   3   1.00
      2.6158400             -0.2503740             -0.0145110
      0.9221670              0.0669570              0.3102630
      0.3412870              1.0545100              0.7544830
SP   1   1.00
      0.1171670              1.0000000              1.0000000
D    1   1.00
      1.3000000              1.0000000
D    1   1.00
      0.3250000              1.0000000
F    1   1.00
      0.5500000              1.0000000
****
Cl     0
S    6   1.00
  25180.1000000              0.0018330
   3780.3500000              0.0140340
    860.4740000              0.0690970
    242.1450000              0.2374520
     77.3349000              0.4830340
     26.2470000              0.3398560
SP   6   1.00
    491.7650000             -0.0022974              0.0039894
    116.9840000             -0.0307140              0.0303180
     37.4153000             -0.1125280              0.1298800
     13.7834000              0.0450160              0.3279510
      5.4521500              0.5893530              0.4535270
      2.2258800              0.4652060              0.2521540
SP   3   1.00
      3.1864900             -0.2518300             -0.0142990
      1.1442700              0.0615890              0.3235720
      0.4203770              1.0601800              0.7435070
SP   1   1.00
      0.1426570              1.0000000              1.0000000
D    1   1.00
      1.5000000              1.0000000
D    1   1.00
      0.3750000              1.0000000
F    1   1.00
      0.7000000              1.0000000
****
}

set {
reference uhf
freeze_core true
e_convergence 10
d_convergence 10
dft_spherical_points 1202
dft_radial_points 99
}

e = energy('b3lyp')

print_out('Grab this energy {0}'.format(e))
--------------------------------------------------------------------------

    Molecular point group: c1

    Geometry (in Bohr), charge = 0, multiplicity = 2:

       Center              X                  Y                   Z               Mass
    ------------   -----------------  -----------------  -----------------  -----------------
         C           -0.323304804092    -0.000001883734    -0.000697336569    12.000000000000
         C            0.060959746808    -1.399356773034    -2.424701859869    12.000000000000
         C            0.060985349608     2.801101100666    -0.000955476869    12.000000000000
         C            0.061250008608    -1.401739780434     2.426918894031    12.000000000000
         H            2.090076832208    -1.644296602734    -2.848071601969     1.007825032230
         H           -0.766790376792    -0.386354565434    -4.027935171369     1.007825032230
         H           -0.766892223892    -3.294723144234    -2.348778151069     1.007825032230
         H            2.090010536108     3.287742687666    -0.000286288869     1.007825032230
         H           -0.767052556692     3.680441073366     1.678909762231     1.007825032230
         H           -0.767175783892     3.680465625066    -1.679669022769     1.007825032230
         H            2.090218260808    -1.643540579334     2.846189338031     1.007825032230
         H           -0.767178771292    -3.294305688534     2.346759607531     1.007825032230
         H           -0.766953733092    -0.385460519234     4.026163448731     1.007825032230

  Charge       = 0
  Multiplicity = 2
  Basis Set: ANONYMOUS5AD3679C
    Blend: 6-31G_2DFP_
  Basis Set: (ANONYMOUS5AD3679C AUX)
    Blend: DEF2-UNIVERSAL-JKFIT

    Orbital Energies [Eh]
    ---------------------

    Alpha Occupied:

       1A    -10.180410     2A    -10.167593     3A    -10.167554
       4A    -10.167504     5A     -0.797806     6A     -0.685851
       7A     -0.685805     8A     -0.530465     9A     -0.441023
      10A     -0.434614    11A     -0.434450    12A     -0.382430
      13A     -0.382250    14A     -0.363297    15A     -0.338201
      16A     -0.337785    17A     -0.169023

    Alpha Virtual:

      18A      0.075740    19A      0.133771    20A      0.133803
      21A      0.142157    22A      0.142281    23A      0.154581
      24A      0.178189    25A      0.178353    26A      0.203655
      27A      0.214347    28A      0.275738    29A      0.276188
      30A      0.399272    31A      0.399293    32A      0.403138
      33A      0.423780    34A      0.423867    35A      0.456459
      36A      0.495144    37A      0.495188    38A      0.511891
      39A      0.513847    40A      0.578443    41A      0.578516
      42A      0.590972    43A      0.591094    44A      0.601924
      45A      0.623790    46A      0.631073    47A      0.635524
      48A      0.635853    49A      0.663017    50A      0.663140
      51A      0.683287    52A      0.683324    53A      0.734684
      54A      0.824536    55A      0.824646    56A      0.853399
      57A      0.914299    58A      0.914330    59A      0.943503
      60A      0.943823    61A      0.960605    62A      0.960672
      63A      1.003352    64A      1.127611    65A      1.127763
      66A      1.141355    67A      1.162727    68A      1.163300
      69A      1.222881    70A      1.273648    71A      1.274250
      72A      1.279819    73A      1.323581    74A      1.323709
      75A      1.355138    76A      1.365402    77A      1.365707
      78A      1.391866    79A      1.402843    80A      1.403199
      81A      1.416016    82A      1.416324    83A      1.427167
      84A      1.490603    85A      1.497722    86A      1.542244
      87A      1.542381    88A      1.574084    89A      1.574475
      90A      1.667658    91A      1.737850    92A      1.738127
      93A      1.766802    94A      1.828424    95A      1.829425
      96A      1.970100    97A      2.017098    98A      2.017404
      99A      2.018405   100A      2.050882   101A      2.052246
     102A      2.737388   103A      2.737632   104A      2.790712
     105A      2.810915   106A      2.889308   107A      2.889465
     108A      2.894872   109A      2.929056   110A      2.929175
     111A      2.958375   112A      2.963650   113A      2.963811
     114A      3.033108   115A      3.070204   116A      3.070473
     117A      3.083432   118A      3.169248   119A      3.169628
     120A      3.180311   121A      3.285341   122A      3.285366
     123A      3.327482   124A      3.327860   125A      3.376310
     126A      3.490813   127A      3.491483   128A      3.514309
     129A      3.525957   130A      3.568131   131A      3.568279
     132A      3.576816   133A      3.664933   134A      3.666320
     135A      3.677845   136A      3.693194   137A      3.693427
     138A      3.776057   139A      3.776456   140A      3.788560
     141A      3.910551   142A      3.912017   143A      4.032101
     144A      4.108740   145A      4.109062   146A      4.144531
     147A      4.145085   148A      4.170295   149A      4.200919
     150A      4.201496   151A      4.202189   152A      4.207180
     153A      4.312999   154A      4.314436   155A      4.356570
     156A      4.420909   157A      4.422766   158A      4.441497
     159A      4.513759   160A      4.515069   161A      4.576763
     162A      4.576816   163A      4.616851   164A      4.707432
     165A      4.772487   166A      4.773122   167A      4.834568
     168A      4.962056   169A      5.001184   170A      5.002586
     171A      5.222750   172A      5.241320   173A      5.241711
     174A      5.350850   175A      5.350986   176A      5.476130

    Beta Occupied:

       1A    -10.168354     2A    -10.168313     3A    -10.168268
       4A    -10.166602     5A     -0.781104     6A     -0.683661
       7A     -0.683603     8A     -0.511494     9A     -0.430977
      10A     -0.430811    11A     -0.421686    12A     -0.376526
      13A     -0.376307    14A     -0.362278    15A     -0.333334
      16A     -0.332917

    Beta Virtual:

      17A     -0.025976    18A      0.076753    19A      0.134664
      20A      0.134674    21A      0.144072    22A      0.144163
      23A      0.163103    24A      0.181882    25A      0.182022
      26A      0.214579    27A      0.219018    28A      0.282085
      29A      0.282518    30A      0.400450    31A      0.400464
      32A      0.419569    33A      0.426588    34A      0.426677
      35A      0.468385    36A      0.497400    37A      0.497456
      38A      0.513632    39A      0.556133    40A      0.583970
      41A      0.584055    42A      0.597131    43A      0.597253
      44A      0.609362    45A      0.627176    46A      0.631236
      47A      0.638835    48A      0.639156    49A      0.666570
      50A      0.666703    51A      0.685971    52A      0.685983
      53A      0.757182    54A      0.829701    55A      0.829821
      56A      0.854776    57A      0.922283    58A      0.922318
      59A      0.945340    60A      0.952730    61A      0.965923
      62A      0.965983    63A      1.008580    64A      1.131660
      65A      1.131802    66A      1.154737    67A      1.167754
      68A      1.168363    69A      1.231871    70A      1.279254
      71A      1.279863    72A      1.285585    73A      1.328558
      74A      1.328659    75A      1.364531    76A      1.370675
      77A      1.370924    78A      1.392930    79A      1.406363
      80A      1.406616    81A      1.421082    82A      1.421354
      83A      1.427452    84A      1.491645    85A      1.508164
      86A      1.546775    87A      1.546927    88A      1.581841
      89A      1.582245    90A      1.672432    91A      1.743601
      92A      1.743885    93A      1.777639    94A      1.832319
      95A      1.833301    96A      1.970963    97A      2.023724
      98A      2.024812    99A      2.038601   100A      2.057600
     101A      2.058966   102A      2.745734   103A      2.745933
     104A      2.811324   105A      2.815822   106A      2.901975
     107A      2.902088   108A      2.924535   109A      2.931605
     110A      2.931692   111A      2.959432   112A      2.968139
     113A      2.968329   114A      3.041124   115A      3.080061
     116A      3.080319   117A      3.085247   118A      3.184992
     119A      3.185403   120A      3.188010   121A      3.290192
     122A      3.290221   123A      3.331287   124A      3.331649
     125A      3.384105   126A      3.493476   127A      3.494190
     128A      3.512669   129A      3.528986   130A      3.576675
     131A      3.581432   132A      3.581617   133A      3.669404
     134A      3.670841   135A      3.691072   136A      3.724952
     137A      3.725216   138A      3.780554   139A      3.781038
     140A      3.817078   141A      3.920433   142A      3.921797
     143A      4.042865   144A      4.115375   145A      4.115900
     146A      4.151874   147A      4.152241   148A      4.184497
     149A      4.207143   150A      4.207960   151A      4.209416
     152A      4.211685   153A      4.320491   154A      4.321985
     155A      4.359942   156A      4.429174   157A      4.430964
     158A      4.444425   159A      4.521566   160A      4.522864
     161A      4.587382   162A      4.587466   163A      4.624053
     164A      4.717782   165A      4.779463   166A      4.780059
     167A      4.837481   168A      4.966878   169A      5.005257
     170A      5.006630   171A      5.228491   172A      5.243117
     173A      5.243494   174A      5.357337   175A      5.357515
     176A      5.478463

    Final Occupation by Irrep:
              A
    DOCC [    16 ]
    SOCC [     1 ]

  @DF-UKS Final Energy:  -157.81309114824668

   => Energetics <=

    Nuclear Repulsion Energy =            125.3572744195029429
    One-Electron Energy =                -458.6780772932746686
    Two-Electron Energy =                 195.8108344571036241
    DFT Exchange-Correlation Energy =     -20.3031227315785507
    Empirical Dispersion Energy =           0.0000000000000000
    VV10 Nonlocal Energy =                  0.0000000000000000
    Total Energy =                       -157.8130911482466843

  UHF NO Occupations:
  HONO-2 :   15  A 1.9995983
  HONO-1 :   16  A 1.9989811
  HONO-0 :   17  A 1.0000000
  LUNO+0 :   18  A 0.0010189
  LUNO+1 :   19  A 0.0004017
  LUNO+2 :   20  A 0.0001976
  LUNO+3 :   21  A 0.0001968

Computation Completed

Properties will be evaluated at   0.000000,   0.000000,   0.000000 [a0]

Properties computed using the SCF density matrix

  Nuclear Dipole Moment: [e a0]
     X:     0.8276      Y:    -0.0000      Z:    -0.0033

  Electronic Dipole Moment: [e a0]
     X:    -0.7503      Y:     0.0000      Z:     0.0034

  Dipole Moment: [e a0]
     X:     0.0773      Y:     0.0000      Z:     0.0001     Total:     0.0773

  Dipole Moment: [D]
     X:     0.1964      Y:     0.0000      Z:     0.0002     Total:     0.1964

*** tstop() called on n091 at Fri Nov  5 13:11:31 2021
Module time:
	user time   =     468.66 seconds =       7.81 minutes
	system time =       4.32 seconds =       0.07 minutes
	total time  =        119 seconds =       1.98 minutes
Total time:
	user time   =     468.66 seconds =       7.81 minutes
	system time =       4.32 seconds =       0.07 minutes
	total time  =        119 seconds =       1.98 minutes
Grab this energy -157.81309114824668
    Psi4 stopped on: Friday, 05 November 2021 01:11PM
    Psi4 wall time for execution: 0:01:58.98

*** Psi4 exiting successfully. Buy a developer a beer!
