                               Psi4 1.4a2.dev629

  ==> Input File <==

--------------------------------------------------------------------------
import os
memory 14 GB

molecule {
 C   -0.3233164917   -0.0000018061    0.0010222162
 C    0.0605863123   -1.4005960490   -2.4276964158
 C    0.0611130739    2.8024173960   -0.0018014694
 C    0.0618810157   -1.4018159293    2.4262064164
 H    2.0838558945   -1.6445365613   -2.8475047757
 H   -0.7637686781   -0.3905736522   -4.0238627578
 H   -0.7637856301   -3.2896189304   -2.3499992157
 H    2.0836442516    3.2884599667    0.0006958745
 H   -0.7639743303    3.6799636926    1.6739939824
 H   -0.7642660340    3.6801388313   -1.6734323640
 H    2.0837131517   -1.6440177060    2.8479977938
 H   -0.7642995138   -3.2893476942    2.3504155490
 H   -0.7639908984   -0.3904958716    4.0239651661
units bohr
0 2
}

basis {

assign 6-31g_2dfp_

[ 6-31g_2dfp_ ]

spherical

!----------------------------------------------------------------------
! Basis Set Exchange
! Version v0.8.13
! https://www.basissetexchange.org
!----------------------------------------------------------------------
!   Basis set: 6-31G(2df,p)
! Description: 6-31G(2df,p)
!        Role: orbital
!     Version: 0  (Data from the original Basis Set Exchange)
!----------------------------------------------------------------------

****
H     0
S    3   1.00
     18.7311370              0.03349460
      2.8253937              0.23472695
      0.6401217              0.81375733
S    1   1.00
      0.1612778              1.00000000
P    1   1.00
      1.5000000              1.0000000
P    1   1.00
      0.3750000              1.0000000
****
B     0
S    6   1.00
   2068.8823000              0.0018663
    310.6495700              0.0142515
     70.6830330              0.0695516
     19.8610800              0.2325729
      6.2993048              0.4670787
      2.1270270              0.3634314
SP   3   1.00
      4.7279710             -0.1303938              0.0745976
      1.1903377             -0.1307889              0.3078467
      0.3594117              1.1309444              0.7434568
SP   1   1.00
      0.1267512              1.0000000              1.0000000
D    1   1.00
      0.8020000              1.0000000
D    1   1.00
      0.2005000              1.0000000
F    1   1.00
      0.5000000              1.0000000
****
C     0
S    6   1.00
   3047.5249000              0.0018347
    457.3695100              0.0140373
    103.9486900              0.0688426
     29.2101550              0.2321844
      9.2866630              0.4679413
      3.1639270              0.3623120
SP   3   1.00
      7.8682724             -0.1193324              0.0689991
      1.8812885             -0.1608542              0.3164240
      0.5442493              1.1434564              0.7443083
SP   1   1.00
      0.1687144              1.0000000              1.0000000
D    1   1.00
      1.2520000              1.0000000
D    1   1.00
      0.3130000              1.0000000
F    1   1.00
      0.8000000              1.0000000
****
N     0
S    6   1.00
   4173.5110000              0.0018348
    627.4579000              0.0139950
    142.9021000              0.0685870
     40.2343300              0.2322410
     12.8202100              0.4690700
      4.3904370              0.3604550
SP   3   1.00
     11.6263580             -0.1149610              0.0675800
      2.7162800             -0.1691180              0.3239070
      0.7722180              1.1458520              0.7408950
SP   1   1.00
      0.2120313              1.0000000              1.0000000
D    1   1.00
      1.8260000              1.0000000
D    1   1.00
      0.4565000              1.0000000
F    1   1.00
      1.0000000              1.0000000
****
O     0
S    6   1.00
   5484.6717000              0.0018311
    825.2349500              0.0139501
    188.0469600              0.0684451
     52.9645000              0.2327143
     16.8975700              0.4701930
      5.7996353              0.3585209
SP   3   1.00
     15.5396160             -0.1107775              0.0708743
      3.5999336             -0.1480263              0.3397528
      1.0137618              1.1307670              0.7271586
SP   1   1.00
      0.2700058              1.0000000              1.0000000
D    1   1.00
      2.5840000              1.0000000
D    1   1.00
      0.6460000              1.0000000
F    1   1.00
      1.4000000              1.0000000
****
F     0
S    6   1.00
   7001.7130900              0.0018196169
   1051.3660900              0.0139160796
    239.2856900              0.0684053245
     67.3974453              0.233185760
     21.5199573              0.471267439
      7.40310130             0.356618546
SP   3   1.00
     20.8479528             -0.108506975            0.0716287243
      4.80830834            -0.146451658            0.3459121030
      1.34406986             1.128688580            0.7224699570
SP   1   1.00
      0.358151393            1.0000000              1.0000000
D    1   1.00
      3.5000000              1.0000000
D    1   1.00
      0.8750000              1.0000000
F    1   1.00
      1.8500000              1.0000000
****
Al     0
S    6   1.00
  13983.1000000              0.00194267
   2098.7500000              0.0148599
    477.7050000              0.0728494
    134.3600000              0.2468300
     42.8709000              0.4872580
     14.5189000              0.3234960
SP   6   1.00
    239.6680000             -0.00292619             0.00460285
     57.4419000             -0.0374080              0.0331990
     18.2859000             -0.1144870              0.1362820
      6.5991400              0.1156350              0.3304760
      2.4904900              0.6125950              0.4491460
      0.9445400              0.3937990              0.2657040
SP   3   1.00
      1.2779000             -0.2276060             -0.0175130
      0.3975900              0.00144583             0.2445330
      0.1600950              1.0927900              0.8049340
SP   1   1.00
      0.0556577              1.0000000              1.0000000
D    1   1.00
      0.6500000              1.0000000
D    1   1.00
      0.1625000              1.0000000
F    1   1.00
      0.2500000              1.0000000
****
Si     0
S    6   1.00
  16115.9000000              0.00195948
   2425.5800000              0.01492880
    553.8670000              0.07284780
    156.3400000              0.24613000
     50.0683000              0.48591400
     17.0178000              0.32500200
SP   6   1.00
    292.7180000             -0.00278094             0.00443826
     69.8731000             -0.03571460             0.03266790
     22.3363000             -0.11498500             0.13472100
      8.1503900              0.09356340             0.32867800
      3.1345800              0.60301700             0.44964000
      1.2254300              0.41895900             0.26137200
SP   3   1.00
      1.7273800             -0.24463000            -0.01779510
      0.5729220              0.00431572             0.25353900
      0.2221920              1.09818000             0.80066900
SP   1   1.00
      0.0778369              1.00000000             1.00000000
D    1   1.00
      0.9000000              1.0000000
D    1   1.00
      0.2250000              1.0000000
F    1   1.00
      0.3200000              1.0000000
****
P     0
S    6   1.00
  19413.3000000              0.0018516
   2909.4200000              0.0142062
    661.3640000              0.0699995
    185.7590000              0.2400790
     59.1943000              0.4847620
     20.0310000              0.3352000
SP   6   1.00
    339.4780000             -0.00278217             0.00456462
     81.0101000             -0.0360499              0.03369360
     25.8780000             -0.1166310              0.13975500
      9.4522100              0.0968328              0.33936200
      3.6656600              0.6144180              0.45092100
      1.4674600              0.4037980              0.23858600
SP   3   1.00
      2.1562300             -0.2529230             -0.01776530
      0.7489970              0.0328517              0.27405800
      0.2831450              1.0812500              0.78542100
SP   1   1.00
      0.0998317              1.0000000              1.00000000
D    1   1.00
      1.1000000              1.0000000
D    1   1.00
      0.2750000              1.0000000
F    1   1.00
      0.4500000              1.0000000
****
S     0
S    6   1.00
  21917.1000000              0.0018690
   3301.4900000              0.0142300
    754.1460000              0.0696960
    212.7110000              0.2384870
     67.9896000              0.4833070
     23.0515000              0.3380740
SP   6   1.00
    423.7350000             -0.0023767              0.0040610
    100.7100000             -0.0316930              0.0306810
     32.1599000             -0.1133170              0.1304520
     11.8079000              0.0560900              0.3272050
      4.6311000              0.5922550              0.4528510
      1.8702500              0.4550060              0.2560420
SP   3   1.00
      2.6158400             -0.2503740             -0.0145110
      0.9221670              0.0669570              0.3102630
      0.3412870              1.0545100              0.7544830
SP   1   1.00
      0.1171670              1.0000000              1.0000000
D    1   1.00
      1.3000000              1.0000000
D    1   1.00
      0.3250000              1.0000000
F    1   1.00
      0.5500000              1.0000000
****
Cl     0
S    6   1.00
  25180.1000000              0.0018330
   3780.3500000              0.0140340
    860.4740000              0.0690970
    242.1450000              0.2374520
     77.3349000              0.4830340
     26.2470000              0.3398560
SP   6   1.00
    491.7650000             -0.0022974              0.0039894
    116.9840000             -0.0307140              0.0303180
     37.4153000             -0.1125280              0.1298800
     13.7834000              0.0450160              0.3279510
      5.4521500              0.5893530              0.4535270
      2.2258800              0.4652060              0.2521540
SP   3   1.00
      3.1864900             -0.2518300             -0.0142990
      1.1442700              0.0615890              0.3235720
      0.4203770              1.0601800              0.7435070
SP   1   1.00
      0.1426570              1.0000000              1.0000000
D    1   1.00
      1.5000000              1.0000000
D    1   1.00
      0.3750000              1.0000000
F    1   1.00
      0.7000000              1.0000000
****
}

set {
reference uhf
freeze_core true
e_convergence 10
d_convergence 10
dft_spherical_points 1202
dft_radial_points 99
}

e = energy('b3lyp')

print_out('Grab this energy {0}'.format(e))
--------------------------------------------------------------------------

    Molecular point group: c1

    Geometry (in Bohr), charge = 0, multiplicity = 2:

       Center              X                  Y                   Z               Mass
    ------------   -----------------  -----------------  -----------------  -----------------
         C           -0.323375024074    -0.000002072360     0.001459290595    12.000000000000
         C            0.060527779926    -1.400596315260    -2.427259341405    12.000000000000
         C            0.061054541526     2.802417129740    -0.001364395005    12.000000000000
         C            0.061822483326    -1.401816195560     2.426643490795    12.000000000000
         H            2.083797362126    -1.644536827560    -2.847067701305     1.007825032230
         H           -0.763827210474    -0.390573918460    -4.023425683405     1.007825032230
         H           -0.763844162474    -3.289619196660    -2.349562141305     1.007825032230
         H            2.083585719226     3.288459700440     0.001132948895     1.007825032230
         H           -0.764032862674     3.679963426340     1.674431056795     1.007825032230
         H           -0.764324566374     3.680138565040    -1.672995289605     1.007825032230
         H            2.083654619326    -1.644017972260     2.848434868195     1.007825032230
         H           -0.764358046174    -3.289347960460     2.350852623395     1.007825032230
         H           -0.764049430774    -0.390496137860     4.024402240495     1.007825032230

  Charge       = 0
  Multiplicity = 2
  Basis Set: ANONYMOUSA0193E59
    Blend: 6-31G_2DFP_
  Basis Set: (ANONYMOUSA0193E59 AUX)
    Blend: DEF2-UNIVERSAL-JKFIT

    Orbital Energies [Eh]
    ---------------------

    Alpha Occupied:

       1A    -10.180274     2A    -10.166513     3A    -10.166484
       4A    -10.166439     5A     -0.797727     6A     -0.686626
       7A     -0.686468     8A     -0.531087     9A     -0.441226
      10A     -0.434818    11A     -0.434801    12A     -0.382897
      13A     -0.382820    14A     -0.363925    15A     -0.338299
      16A     -0.337711    17A     -0.168899

    Alpha Virtual:

      18A      0.076403    19A      0.134484    20A      0.134558
      21A      0.142974    22A      0.143103    23A      0.155178
      24A      0.179235    25A      0.179335    26A      0.203436
      27A      0.215258    28A      0.275883    29A      0.276134
      30A      0.399064    31A      0.399283    32A      0.403549
      33A      0.424367    34A      0.424376    35A      0.456725
      36A      0.495579    37A      0.495649    38A      0.512432
      39A      0.514112    40A      0.579112    41A      0.579196
      42A      0.592215    43A      0.592254    44A      0.603224
      45A      0.625740    46A      0.632472    47A      0.636811
      48A      0.636819    49A      0.663660    50A      0.663837
      51A      0.684397    52A      0.684416    53A      0.735304
      54A      0.826221    55A      0.826229    56A      0.854431
      57A      0.915634    58A      0.915844    59A      0.944753
      60A      0.945404    61A      0.961883    62A      0.962011
      63A      1.003553    64A      1.128513    65A      1.128550
      66A      1.143082    67A      1.163504    68A      1.163550
      69A      1.223767    70A      1.274845    71A      1.275206
      72A      1.278900    73A      1.325011    74A      1.325120
      75A      1.356850    76A      1.366319    77A      1.366787
      78A      1.393017    79A      1.404840    80A      1.405329
      81A      1.417776    82A      1.418303    83A      1.428668
      84A      1.492390    85A      1.500432    86A      1.543147
      87A      1.543487    88A      1.574327    89A      1.574963
      90A      1.671974    91A      1.740739    92A      1.740952
      93A      1.769867    94A      1.833822    95A      1.833966
      96A      1.973351    97A      2.019248    98A      2.019917
      99A      2.020711   100A      2.053119   101A      2.054322
     102A      2.739416   103A      2.739514   104A      2.791136
     105A      2.811941   106A      2.889837   107A      2.891188
     108A      2.895014   109A      2.929722   110A      2.930052
     111A      2.959620   112A      2.964745   113A      2.965339
     114A      3.034923   115A      3.072107   116A      3.072372
     117A      3.085281   118A      3.167999   119A      3.168235
     120A      3.180903   121A      3.285063   122A      3.285495
     123A      3.326611   124A      3.326703   125A      3.374918
     126A      3.489127   127A      3.489197   128A      3.513729
     129A      3.524717   130A      3.568472   131A      3.568674
     132A      3.573483   133A      3.666876   134A      3.667263
     135A      3.681490   136A      3.694943   137A      3.695022
     138A      3.777333   139A      3.777362   140A      3.789676
     141A      3.912803   142A      3.913517   143A      4.036793
     144A      4.113617   145A      4.114066   146A      4.151251
     147A      4.151642   148A      4.176236   149A      4.204014
     150A      4.204520   151A      4.204583   152A      4.214553
     153A      4.317428   154A      4.319005   155A      4.361389
     156A      4.426452   157A      4.427573   158A      4.445475
     159A      4.519079   160A      4.519451   161A      4.579466
     162A      4.580038   163A      4.618199   164A      4.711494
     165A      4.776215   166A      4.776517   167A      4.839229
     168A      4.963676   169A      5.003779   170A      5.004337
     171A      5.233324   172A      5.251874   173A      5.252354
     174A      5.360079   175A      5.360125   176A      5.482596

    Beta Occupied:

       1A    -10.167267     2A    -10.167239     3A    -10.167210
       4A    -10.166431     5A     -0.781080     6A     -0.684425
       7A     -0.684271     8A     -0.512000     9A     -0.431206
      10A     -0.431175    11A     -0.421957    12A     -0.376998
      13A     -0.376907    14A     -0.362912    15A     -0.333411
      16A     -0.332825

    Beta Virtual:

      17A     -0.025510    18A      0.077409    19A      0.135370
      20A      0.135468    21A      0.144835    22A      0.144928
      23A      0.163574    24A      0.182908    25A      0.182984
      26A      0.215485    27A      0.218839    28A      0.282254
      29A      0.282478    30A      0.400229    31A      0.400447
      32A      0.420011    33A      0.427180    34A      0.427190
      35A      0.468614    36A      0.497841    37A      0.497906
      38A      0.514161    39A      0.556516    40A      0.584678
      41A      0.584762    42A      0.598406    43A      0.598464
      44A      0.610634    45A      0.629105    46A      0.632625
      47A      0.640073    48A      0.640082    49A      0.667225
      50A      0.667410    51A      0.686995    52A      0.687018
      53A      0.757852    54A      0.831390    55A      0.831393
      56A      0.855760    57A      0.923591    58A      0.923802
      59A      0.946589    60A      0.954355    61A      0.967191
      62A      0.967299    63A      1.008804    64A      1.132537
      65A      1.132555    66A      1.156444    67A      1.168599
      68A      1.168668    69A      1.232722    70A      1.280403
      71A      1.280816    72A      1.284643    73A      1.330016
      74A      1.330146    75A      1.366291    76A      1.371535
      77A      1.372053    78A      1.394070    79A      1.408291
      80A      1.408799    81A      1.422845    82A      1.423331
      83A      1.428929    84A      1.493443    85A      1.510877
      86A      1.547414    87A      1.547776    88A      1.582315
      89A      1.582931    90A      1.676898    91A      1.746508
      92A      1.746719    93A      1.780587    94A      1.837649
      95A      1.837789    96A      1.974207    97A      2.026223
      98A      2.027038    99A      2.040739   100A      2.059810
     101A      2.061056   102A      2.747770   103A      2.747856
     104A      2.812356   105A      2.816298   106A      2.902581
     107A      2.903908   108A      2.924760   109A      2.932121
     110A      2.932515   111A      2.960689   112A      2.969342
     113A      2.969911   114A      3.042778   115A      3.082070
     116A      3.082352   117A      3.087101   118A      3.183672
     119A      3.183952   120A      3.188656   121A      3.289838
     122A      3.290209   123A      3.330410   124A      3.330527
     125A      3.382760   126A      3.491888   127A      3.491987
     128A      3.512099   129A      3.527778   130A      3.573326
     131A      3.581877   132A      3.581996   133A      3.671806
     134A      3.672417   135A      3.694840   136A      3.726277
     137A      3.726606   138A      3.781804   139A      3.781912
     140A      3.818249   141A      3.922585   142A      3.923341
     143A      4.047805   144A      4.120507   145A      4.120958
     146A      4.158462   147A      4.158782   148A      4.190151
     149A      4.210411   150A      4.210477   151A      4.211991
     152A      4.218997   153A      4.324754   154A      4.326396
     155A      4.364742   156A      4.434636   157A      4.435752
     158A      4.448351   159A      4.526873   160A      4.527216
     161A      4.590057   162A      4.590584   163A      4.625384
     164A      4.721834   165A      4.783184   166A      4.783447
     167A      4.842151   168A      4.968443   169A      5.007798
     170A      5.008357   171A      5.239014   172A      5.253661
     173A      5.254125   174A      5.366513   175A      5.366597
     176A      5.484905

    Final Occupation by Irrep:
              A
    DOCC [    16 ]
    SOCC [     1 ]

  @DF-UKS Final Energy:  -157.81302067338800

   => Energetics <=

    Nuclear Repulsion Energy =            125.4320429852597272
    One-Electron Energy =                -458.8198145567423012
    Two-Electron Energy =                 195.8859234256794366
    DFT Exchange-Correlation Energy =     -20.3111725275848620
    Empirical Dispersion Energy =           0.0000000000000000
    VV10 Nonlocal Energy =                  0.0000000000000000
    Total Energy =                       -157.8130206733879959

  UHF NO Occupations:
  HONO-2 :   15  A 1.9996034
  HONO-1 :   16  A 1.9989798
  HONO-0 :   17  A 1.0000000
  LUNO+0 :   18  A 0.0010202
  LUNO+1 :   19  A 0.0003966
  LUNO+2 :   20  A 0.0001983
  LUNO+3 :   21  A 0.0001975

Computation Completed

Properties will be evaluated at   0.000000,   0.000000,   0.000000 [a0]

Properties computed using the SCF density matrix

  Nuclear Dipole Moment: [e a0]
     X:     0.8268      Y:    -0.0000      Z:     0.0031

  Electronic Dipole Moment: [e a0]
     X:    -0.7482      Y:     0.0000      Z:    -0.0030

  Dipole Moment: [e a0]
     X:     0.0785      Y:     0.0000      Z:     0.0001     Total:     0.0785

  Dipole Moment: [D]
     X:     0.1996      Y:     0.0000      Z:     0.0001     Total:     0.1996

*** tstop() called on n058 at Fri Nov  5 12:06:08 2021
Module time:
	user time   =     545.95 seconds =       9.10 minutes
	system time =      12.20 seconds =       0.20 minutes
	total time  =        141 seconds =       2.35 minutes
Total time:
	user time   =     545.95 seconds =       9.10 minutes
	system time =      12.20 seconds =       0.20 minutes
	total time  =        141 seconds =       2.35 minutes
Grab this energy -157.813020673388
    Psi4 stopped on: Friday, 05 November 2021 12:06PM
    Psi4 wall time for execution: 0:02:20.48

*** Psi4 exiting successfully. Buy a developer a beer!
