                               Psi4 1.4a2.dev629

  ==> Input File <==

--------------------------------------------------------------------------
import os
memory 14 GB

molecule {
 C   -0.3233444446   -0.0000020513    0.0000017555
 C    0.0611364059   -1.3994509694   -2.4272048491
 C    0.0610162189    2.8017591648    0.0016489349
 C    0.0611356211   -1.4023039151    2.4255560877
 H    2.0869352827   -1.6406005176   -2.8494542881
 H   -0.7696088490   -0.3903609108   -4.0245844703
 H   -0.7613543022   -3.2938402612   -2.3475896442
 H    2.0867945568    3.2880984221    0.0040317633
 H   -0.7698459768    3.6805480335    1.6742022069
 H   -0.7614375623    3.6799586044   -1.6787895550
 H    2.0869316518   -1.6475903935    2.8454197169
 H   -0.7697737470   -3.2901509790    2.3503890472
 H   -0.7611927318   -0.3860885406    4.0263732944
units bohr
0 2
}

basis {

assign 6-31g_2dfp_

[ 6-31g_2dfp_ ]

spherical

!----------------------------------------------------------------------
! Basis Set Exchange
! Version v0.8.13
! https://www.basissetexchange.org
!----------------------------------------------------------------------
!   Basis set: 6-31G(2df,p)
! Description: 6-31G(2df,p)
!        Role: orbital
!     Version: 0  (Data from the original Basis Set Exchange)
!----------------------------------------------------------------------

****
H     0
S    3   1.00
     18.7311370              0.03349460
      2.8253937              0.23472695
      0.6401217              0.81375733
S    1   1.00
      0.1612778              1.00000000
P    1   1.00
      1.5000000              1.0000000
P    1   1.00
      0.3750000              1.0000000
****
B     0
S    6   1.00
   2068.8823000              0.0018663
    310.6495700              0.0142515
     70.6830330              0.0695516
     19.8610800              0.2325729
      6.2993048              0.4670787
      2.1270270              0.3634314
SP   3   1.00
      4.7279710             -0.1303938              0.0745976
      1.1903377             -0.1307889              0.3078467
      0.3594117              1.1309444              0.7434568
SP   1   1.00
      0.1267512              1.0000000              1.0000000
D    1   1.00
      0.8020000              1.0000000
D    1   1.00
      0.2005000              1.0000000
F    1   1.00
      0.5000000              1.0000000
****
C     0
S    6   1.00
   3047.5249000              0.0018347
    457.3695100              0.0140373
    103.9486900              0.0688426
     29.2101550              0.2321844
      9.2866630              0.4679413
      3.1639270              0.3623120
SP   3   1.00
      7.8682724             -0.1193324              0.0689991
      1.8812885             -0.1608542              0.3164240
      0.5442493              1.1434564              0.7443083
SP   1   1.00
      0.1687144              1.0000000              1.0000000
D    1   1.00
      1.2520000              1.0000000
D    1   1.00
      0.3130000              1.0000000
F    1   1.00
      0.8000000              1.0000000
****
N     0
S    6   1.00
   4173.5110000              0.0018348
    627.4579000              0.0139950
    142.9021000              0.0685870
     40.2343300              0.2322410
     12.8202100              0.4690700
      4.3904370              0.3604550
SP   3   1.00
     11.6263580             -0.1149610              0.0675800
      2.7162800             -0.1691180              0.3239070
      0.7722180              1.1458520              0.7408950
SP   1   1.00
      0.2120313              1.0000000              1.0000000
D    1   1.00
      1.8260000              1.0000000
D    1   1.00
      0.4565000              1.0000000
F    1   1.00
      1.0000000              1.0000000
****
O     0
S    6   1.00
   5484.6717000              0.0018311
    825.2349500              0.0139501
    188.0469600              0.0684451
     52.9645000              0.2327143
     16.8975700              0.4701930
      5.7996353              0.3585209
SP   3   1.00
     15.5396160             -0.1107775              0.0708743
      3.5999336             -0.1480263              0.3397528
      1.0137618              1.1307670              0.7271586
SP   1   1.00
      0.2700058              1.0000000              1.0000000
D    1   1.00
      2.5840000              1.0000000
D    1   1.00
      0.6460000              1.0000000
F    1   1.00
      1.4000000              1.0000000
****
F     0
S    6   1.00
   7001.7130900              0.0018196169
   1051.3660900              0.0139160796
    239.2856900              0.0684053245
     67.3974453              0.233185760
     21.5199573              0.471267439
      7.40310130             0.356618546
SP   3   1.00
     20.8479528             -0.108506975            0.0716287243
      4.80830834            -0.146451658            0.3459121030
      1.34406986             1.128688580            0.7224699570
SP   1   1.00
      0.358151393            1.0000000              1.0000000
D    1   1.00
      3.5000000              1.0000000
D    1   1.00
      0.8750000              1.0000000
F    1   1.00
      1.8500000              1.0000000
****
Al     0
S    6   1.00
  13983.1000000              0.00194267
   2098.7500000              0.0148599
    477.7050000              0.0728494
    134.3600000              0.2468300
     42.8709000              0.4872580
     14.5189000              0.3234960
SP   6   1.00
    239.6680000             -0.00292619             0.00460285
     57.4419000             -0.0374080              0.0331990
     18.2859000             -0.1144870              0.1362820
      6.5991400              0.1156350              0.3304760
      2.4904900              0.6125950              0.4491460
      0.9445400              0.3937990              0.2657040
SP   3   1.00
      1.2779000             -0.2276060             -0.0175130
      0.3975900              0.00144583             0.2445330
      0.1600950              1.0927900              0.8049340
SP   1   1.00
      0.0556577              1.0000000              1.0000000
D    1   1.00
      0.6500000              1.0000000
D    1   1.00
      0.1625000              1.0000000
F    1   1.00
      0.2500000              1.0000000
****
Si     0
S    6   1.00
  16115.9000000              0.00195948
   2425.5800000              0.01492880
    553.8670000              0.07284780
    156.3400000              0.24613000
     50.0683000              0.48591400
     17.0178000              0.32500200
SP   6   1.00
    292.7180000             -0.00278094             0.00443826
     69.8731000             -0.03571460             0.03266790
     22.3363000             -0.11498500             0.13472100
      8.1503900              0.09356340             0.32867800
      3.1345800              0.60301700             0.44964000
      1.2254300              0.41895900             0.26137200
SP   3   1.00
      1.7273800             -0.24463000            -0.01779510
      0.5729220              0.00431572             0.25353900
      0.2221920              1.09818000             0.80066900
SP   1   1.00
      0.0778369              1.00000000             1.00000000
D    1   1.00
      0.9000000              1.0000000
D    1   1.00
      0.2250000              1.0000000
F    1   1.00
      0.3200000              1.0000000
****
P     0
S    6   1.00
  19413.3000000              0.0018516
   2909.4200000              0.0142062
    661.3640000              0.0699995
    185.7590000              0.2400790
     59.1943000              0.4847620
     20.0310000              0.3352000
SP   6   1.00
    339.4780000             -0.00278217             0.00456462
     81.0101000             -0.0360499              0.03369360
     25.8780000             -0.1166310              0.13975500
      9.4522100              0.0968328              0.33936200
      3.6656600              0.6144180              0.45092100
      1.4674600              0.4037980              0.23858600
SP   3   1.00
      2.1562300             -0.2529230             -0.01776530
      0.7489970              0.0328517              0.27405800
      0.2831450              1.0812500              0.78542100
SP   1   1.00
      0.0998317              1.0000000              1.00000000
D    1   1.00
      1.1000000              1.0000000
D    1   1.00
      0.2750000              1.0000000
F    1   1.00
      0.4500000              1.0000000
****
S     0
S    6   1.00
  21917.1000000              0.0018690
   3301.4900000              0.0142300
    754.1460000              0.0696960
    212.7110000              0.2384870
     67.9896000              0.4833070
     23.0515000              0.3380740
SP   6   1.00
    423.7350000             -0.0023767              0.0040610
    100.7100000             -0.0316930              0.0306810
     32.1599000             -0.1133170              0.1304520
     11.8079000              0.0560900              0.3272050
      4.6311000              0.5922550              0.4528510
      1.8702500              0.4550060              0.2560420
SP   3   1.00
      2.6158400             -0.2503740             -0.0145110
      0.9221670              0.0669570              0.3102630
      0.3412870              1.0545100              0.7544830
SP   1   1.00
      0.1171670              1.0000000              1.0000000
D    1   1.00
      1.3000000              1.0000000
D    1   1.00
      0.3250000              1.0000000
F    1   1.00
      0.5500000              1.0000000
****
Cl     0
S    6   1.00
  25180.1000000              0.0018330
   3780.3500000              0.0140340
    860.4740000              0.0690970
    242.1450000              0.2374520
     77.3349000              0.4830340
     26.2470000              0.3398560
SP   6   1.00
    491.7650000             -0.0022974              0.0039894
    116.9840000             -0.0307140              0.0303180
     37.4153000             -0.1125280              0.1298800
     13.7834000              0.0450160              0.3279510
      5.4521500              0.5893530              0.4535270
      2.2258800              0.4652060              0.2521540
SP   3   1.00
      3.1864900             -0.2518300             -0.0142990
      1.1442700              0.0615890              0.3235720
      0.4203770              1.0601800              0.7435070
SP   1   1.00
      0.1426570              1.0000000              1.0000000
D    1   1.00
      1.5000000              1.0000000
D    1   1.00
      0.3750000              1.0000000
F    1   1.00
      0.7000000              1.0000000
****
}

set {
reference uhf
freeze_core true
e_convergence 10
d_convergence 10
dft_spherical_points 1202
dft_radial_points 99
}

e = energy('b3lyp')

print_out('Grab this energy {0}'.format(e))
--------------------------------------------------------------------------

    Molecular point group: c1

    Geometry (in Bohr), charge = 0, multiplicity = 2:

       Center              X                  Y                   Z               Mass
    ------------   -----------------  -----------------  -----------------  -----------------
         C           -0.323341321698    -0.000002051258     0.000001383959    12.000000000000
         C            0.061139528802    -1.399450969358    -2.427205220641    12.000000000000
         C            0.061019341802     2.801759164842     0.001648563359    12.000000000000
         C            0.061138744002    -1.402303915058     2.425555716159    12.000000000000
         H            2.086938405602    -1.640600517558    -2.849454659641     1.007825032230
         H           -0.769605726098    -0.390360910758    -4.024584841841     1.007825032230
         H           -0.761351179298    -3.293840261158    -2.347590015741     1.007825032230
         H            2.086797679702     3.288098422142     0.004031391759     1.007825032230
         H           -0.769842853898     3.680548033542     1.674201835359     1.007825032230
         H           -0.761434439398     3.679958604442    -1.678789926541     1.007825032230
         H            2.086934774702    -1.647590393458     2.845419345359     1.007825032230
         H           -0.769770624098    -3.290150978958     2.350388675659     1.007825032230
         H           -0.761189608898    -0.386088540558     4.026372922859     1.007825032230

  Charge       = 0
  Multiplicity = 2
  Basis Set: ANONYMOUSC2D96057
    Blend: 6-31G_2DFP_
  Basis Set: (ANONYMOUSC2D96057 AUX)
    Blend: DEF2-UNIVERSAL-JKFIT

    Orbital Energies [Eh]
    ---------------------

    Alpha Occupied:

       1A    -10.180342     2A    -10.167030     3A    -10.167030
       4A    -10.166984     5A     -0.797765     6A     -0.686187
       7A     -0.686186     8A     -0.530776     9A     -0.441125
      10A     -0.434671    11A     -0.434670    12A     -0.382601
      13A     -0.382599    14A     -0.363609    15A     -0.337999
      16A     -0.337998    17A     -0.168961

    Alpha Virtual:

      18A      0.076072    19A      0.134156    20A      0.134157
      21A      0.142629    22A      0.142629    23A      0.154877
      24A      0.178778    25A      0.178778    26A      0.203543
      27A      0.214805    28A      0.275984    29A      0.275986
      30A      0.399228    31A      0.399232    32A      0.403344
      33A      0.424097    34A      0.424097    35A      0.456592
      36A      0.495389    37A      0.495390    38A      0.512160
      39A      0.513980    40A      0.578814    41A      0.578822
      42A      0.591633    43A      0.591635    44A      0.602566
      45A      0.624745    46A      0.631797    47A      0.636242
      48A      0.636246    49A      0.663411    50A      0.663411
      51A      0.683852    52A      0.683854    53A      0.734994
      54A      0.825406    55A      0.825409    56A      0.853915
      57A      0.915021    58A      0.915027    59A      0.944030
      60A      0.944700    61A      0.961290    62A      0.961306
      63A      1.003464    64A      1.128103    65A      1.128116
      66A      1.142223    67A      1.163265    68A      1.163277
      69A      1.223322    70A      1.274487    71A      1.274490
      72A      1.279352    73A      1.324352    74A      1.324355
      75A      1.355944    76A      1.366053    77A      1.366058
      78A      1.392505    79A      1.404052    80A      1.404055
      81A      1.417102    82A      1.417108    83A      1.427905
      84A      1.491485    85A      1.499090    86A      1.542829
      87A      1.542831    88A      1.574445    89A      1.574448
      90A      1.669820    91A      1.739417    92A      1.739428
      93A      1.768318    94A      1.831391    95A      1.831392
      96A      1.971731    97A      2.018298    98A      2.019043
      99A      2.019047   100A      2.052636   101A      2.052637
     102A      2.738487   103A      2.738488   104A      2.790896
     105A      2.811444   106A      2.889946   107A      2.889952
     108A      2.894944   109A      2.929497   110A      2.929505
     111A      2.958995   112A      2.964370   113A      2.964384
     114A      3.034010   115A      3.071276   116A      3.071290
     117A      3.084347   118A      3.168781   119A      3.168788
     120A      3.180584   121A      3.285310   122A      3.285310
     123A      3.327163   124A      3.327169   125A      3.375619
     126A      3.490158   127A      3.490178   128A      3.513925
     129A      3.525385   130A      3.568377   131A      3.568398
     132A      3.575172   133A      3.666380   134A      3.666388
     135A      3.679655   136A      3.694113   137A      3.694129
     138A      3.776803   139A      3.776829   140A      3.789116
     141A      3.912217   142A      3.912224   143A      4.034458
     144A      4.111375   145A      4.111380   146A      4.148121
     147A      4.148129   148A      4.173242   149A      4.202647
     150A      4.203068   151A      4.203071   152A      4.210846
     153A      4.315951   154A      4.315970   155A      4.358975
     156A      4.424450   157A      4.424453   158A      4.443416
     159A      4.516836   160A      4.516837   161A      4.578270
     162A      4.578283   163A      4.617536   164A      4.709459
     165A      4.774586   166A      4.774594   167A      4.836892
     168A      4.962865   169A      5.002940   170A      5.002952
     171A      5.228042   172A      5.246813   173A      5.246813
     174A      5.355495   175A      5.355508   176A      5.479349

    Beta Occupied:

       1A    -10.167783     2A    -10.167783     3A    -10.167758
       4A    -10.166519     5A     -0.781090     6A     -0.683989
       7A     -0.683989     8A     -0.511747     9A     -0.431042
      10A     -0.431041    11A     -0.421823    12A     -0.376686
      13A     -0.376684    14A     -0.362593    15A     -0.333122
      16A     -0.333121

    Beta Virtual:

      17A     -0.025742    18A      0.077081    19A      0.135046
      20A      0.135047    21A      0.144499    22A      0.144499
      23A      0.163336    24A      0.182449    25A      0.182450
      26A      0.215022    27A      0.218939    28A      0.282332
      29A      0.282334    30A      0.400397    31A      0.400401
      32A      0.419792    33A      0.426908    34A      0.426909
      35A      0.468500    36A      0.497650    37A      0.497650
      38A      0.513896    39A      0.556325    40A      0.584364
      41A      0.584372    42A      0.597813    43A      0.597814
      44A      0.609988    45A      0.628114    46A      0.631961
      47A      0.639528    48A      0.639532    49A      0.666975
      50A      0.666975    51A      0.686487    52A      0.686489
      53A      0.757517    54A      0.830574    55A      0.830577
      56A      0.855268    57A      0.922992    58A      0.922999
      59A      0.945945    60A      0.953550    61A      0.966596
      62A      0.966612    63A      1.008704    64A      1.132131
      65A      1.132143    66A      1.155603    67A      1.168338
      68A      1.168350    69A      1.232294    70A      1.280084
      71A      1.280088    72A      1.285105    73A      1.329342
      74A      1.329344    75A      1.365344    76A      1.371297
      77A      1.371301    78A      1.393579    79A      1.407518
      80A      1.407521    81A      1.422153    82A      1.422159
      83A      1.428174    84A      1.492533    85A      1.509533
      86A      1.547237    87A      1.547237    88A      1.582318
      89A      1.582319    90A      1.674667    91A      1.745178
      92A      1.745189    93A      1.779099    94A      1.835246
      95A      1.835247    96A      1.972591    97A      2.025447
      98A      2.025450    99A      2.039673   100A      2.059350
     101A      2.059351   102A      2.746822   103A      2.746824
     104A      2.811683   105A      2.816205   106A      2.902633
     107A      2.902638   108A      2.924655   109A      2.931977
     110A      2.931986   111A      2.960056   112A      2.968914
     113A      2.968928   114A      3.041945   115A      3.081188
     116A      3.081199   117A      3.086163   118A      3.184537
     119A      3.184541   120A      3.188258   121A      3.290108
     122A      3.290108   123A      3.330969   124A      3.330974
     125A      3.383437   126A      3.492888   127A      3.492908
     128A      3.512314   129A      3.528404   130A      3.575035
     131A      3.581716   132A      3.581738   133A      3.671122
     134A      3.671133   135A      3.692948   136A      3.725751
     137A      3.725767   138A      3.781327   139A      3.781353
     140A      3.817663   141A      3.922033   142A      3.922041
     143A      4.045345   144A      4.118191   145A      4.118194
     146A      4.155329   147A      4.155338   148A      4.187304
     149A      4.209007   150A      4.209010   151A      4.210614
     152A      4.215318   153A      4.323391   154A      4.323411
     155A      4.362337   156A      4.432667   157A      4.432670
     158A      4.446296   159A      4.524625   160A      4.524627
     161A      4.588873   162A      4.588885   163A      4.624728
     164A      4.719805   165A      4.781540   166A      4.781547
     167A      4.839808   168A      4.967659   169A      5.006979
     170A      5.006991   171A      5.233758   172A      5.248597
     173A      5.248597   174A      5.361975   175A      5.361988
     176A      5.481670

    Final Occupation by Irrep:
              A
    DOCC [    16 ]
    SOCC [     1 ]

  @DF-UKS Final Energy:  -157.81307179467200

   => Energetics <=

    Nuclear Repulsion Energy =            125.3945853089434905
    One-Electron Energy =                -458.7488441112898272
    Two-Electron Energy =                 195.8483288010905596
    DFT Exchange-Correlation Energy =     -20.3071417934161929
    Empirical Dispersion Energy =           0.0000000000000000
    VV10 Nonlocal Energy =                  0.0000000000000000
    Total Energy =                       -157.8130717946719983

  UHF NO Occupations:
  HONO-2 :   15  A 1.9996009
  HONO-1 :   16  A 1.9989805
  HONO-0 :   17  A 1.0000000
  LUNO+0 :   18  A 0.0010195
  LUNO+1 :   19  A 0.0003991
  LUNO+2 :   20  A 0.0001975
  LUNO+3 :   21  A 0.0001975

Computation Completed

Properties will be evaluated at   0.000000,   0.000000,   0.000000 [a0]

Properties computed using the SCF density matrix

  Nuclear Dipole Moment: [e a0]
     X:     0.8272      Y:    -0.0000      Z:    -0.0000

  Electronic Dipole Moment: [e a0]
     X:    -0.7493      Y:     0.0000      Z:     0.0000

  Dipole Moment: [e a0]
     X:     0.0779      Y:     0.0000      Z:    -0.0000     Total:     0.0779

  Dipole Moment: [D]
     X:     0.1980      Y:     0.0000      Z:    -0.0000     Total:     0.1980

*** tstop() called on n071 at Fri Nov  5 12:52:13 2021
Module time:
	user time   =     664.26 seconds =      11.07 minutes
	system time =      17.37 seconds =       0.29 minutes
	total time  =        172 seconds =       2.87 minutes
Total time:
	user time   =     664.26 seconds =      11.07 minutes
	system time =      17.37 seconds =       0.29 minutes
	total time  =        172 seconds =       2.87 minutes
Grab this energy -157.813071794672
    Psi4 stopped on: Friday, 05 November 2021 12:52PM
    Psi4 wall time for execution: 0:02:52.23

*** Psi4 exiting successfully. Buy a developer a beer!
