                               Psi4 1.4a2.dev629

  ==> Input File <==

--------------------------------------------------------------------------
import os
memory 14 GB

molecule {
 C   -0.3233395223   -0.0000034266    0.0002565899
 C    0.0629177524   -1.3997053926   -2.4270490008
 C    0.0610200072    2.8017584287    0.0001982323
 C    0.0593665466   -1.4020514383    2.4257110010
 H    2.0867651315   -1.6419504285   -2.8486863181
 H   -0.7636639314   -0.3897247249   -4.0240343377
 H   -0.7684234420   -3.2936721623   -2.3485638838
 H    2.0867969593    3.2881021364    0.0028370962
 H   -0.7631500856    3.6796979737    1.6749038756
 H   -0.7681479809    3.6808039833   -1.6780958738
 H    2.0871143345   -1.6462471381    2.8461927534
 H   -0.7627229377   -3.2903184090    2.3494057516
 H   -0.7671407083   -0.3867137155    4.0269241141
units bohr
0 2
}

basis {

assign 6-31g_2dfp_

[ 6-31g_2dfp_ ]

spherical

!----------------------------------------------------------------------
! Basis Set Exchange
! Version v0.8.13
! https://www.basissetexchange.org
!----------------------------------------------------------------------
!   Basis set: 6-31G(2df,p)
! Description: 6-31G(2df,p)
!        Role: orbital
!     Version: 0  (Data from the original Basis Set Exchange)
!----------------------------------------------------------------------

****
H     0
S    3   1.00
     18.7311370              0.03349460
      2.8253937              0.23472695
      0.6401217              0.81375733
S    1   1.00
      0.1612778              1.00000000
P    1   1.00
      1.5000000              1.0000000
P    1   1.00
      0.3750000              1.0000000
****
B     0
S    6   1.00
   2068.8823000              0.0018663
    310.6495700              0.0142515
     70.6830330              0.0695516
     19.8610800              0.2325729
      6.2993048              0.4670787
      2.1270270              0.3634314
SP   3   1.00
      4.7279710             -0.1303938              0.0745976
      1.1903377             -0.1307889              0.3078467
      0.3594117              1.1309444              0.7434568
SP   1   1.00
      0.1267512              1.0000000              1.0000000
D    1   1.00
      0.8020000              1.0000000
D    1   1.00
      0.2005000              1.0000000
F    1   1.00
      0.5000000              1.0000000
****
C     0
S    6   1.00
   3047.5249000              0.0018347
    457.3695100              0.0140373
    103.9486900              0.0688426
     29.2101550              0.2321844
      9.2866630              0.4679413
      3.1639270              0.3623120
SP   3   1.00
      7.8682724             -0.1193324              0.0689991
      1.8812885             -0.1608542              0.3164240
      0.5442493              1.1434564              0.7443083
SP   1   1.00
      0.1687144              1.0000000              1.0000000
D    1   1.00
      1.2520000              1.0000000
D    1   1.00
      0.3130000              1.0000000
F    1   1.00
      0.8000000              1.0000000
****
N     0
S    6   1.00
   4173.5110000              0.0018348
    627.4579000              0.0139950
    142.9021000              0.0685870
     40.2343300              0.2322410
     12.8202100              0.4690700
      4.3904370              0.3604550
SP   3   1.00
     11.6263580             -0.1149610              0.0675800
      2.7162800             -0.1691180              0.3239070
      0.7722180              1.1458520              0.7408950
SP   1   1.00
      0.2120313              1.0000000              1.0000000
D    1   1.00
      1.8260000              1.0000000
D    1   1.00
      0.4565000              1.0000000
F    1   1.00
      1.0000000              1.0000000
****
O     0
S    6   1.00
   5484.6717000              0.0018311
    825.2349500              0.0139501
    188.0469600              0.0684451
     52.9645000              0.2327143
     16.8975700              0.4701930
      5.7996353              0.3585209
SP   3   1.00
     15.5396160             -0.1107775              0.0708743
      3.5999336             -0.1480263              0.3397528
      1.0137618              1.1307670              0.7271586
SP   1   1.00
      0.2700058              1.0000000              1.0000000
D    1   1.00
      2.5840000              1.0000000
D    1   1.00
      0.6460000              1.0000000
F    1   1.00
      1.4000000              1.0000000
****
F     0
S    6   1.00
   7001.7130900              0.0018196169
   1051.3660900              0.0139160796
    239.2856900              0.0684053245
     67.3974453              0.233185760
     21.5199573              0.471267439
      7.40310130             0.356618546
SP   3   1.00
     20.8479528             -0.108506975            0.0716287243
      4.80830834            -0.146451658            0.3459121030
      1.34406986             1.128688580            0.7224699570
SP   1   1.00
      0.358151393            1.0000000              1.0000000
D    1   1.00
      3.5000000              1.0000000
D    1   1.00
      0.8750000              1.0000000
F    1   1.00
      1.8500000              1.0000000
****
Al     0
S    6   1.00
  13983.1000000              0.00194267
   2098.7500000              0.0148599
    477.7050000              0.0728494
    134.3600000              0.2468300
     42.8709000              0.4872580
     14.5189000              0.3234960
SP   6   1.00
    239.6680000             -0.00292619             0.00460285
     57.4419000             -0.0374080              0.0331990
     18.2859000             -0.1144870              0.1362820
      6.5991400              0.1156350              0.3304760
      2.4904900              0.6125950              0.4491460
      0.9445400              0.3937990              0.2657040
SP   3   1.00
      1.2779000             -0.2276060             -0.0175130
      0.3975900              0.00144583             0.2445330
      0.1600950              1.0927900              0.8049340
SP   1   1.00
      0.0556577              1.0000000              1.0000000
D    1   1.00
      0.6500000              1.0000000
D    1   1.00
      0.1625000              1.0000000
F    1   1.00
      0.2500000              1.0000000
****
Si     0
S    6   1.00
  16115.9000000              0.00195948
   2425.5800000              0.01492880
    553.8670000              0.07284780
    156.3400000              0.24613000
     50.0683000              0.48591400
     17.0178000              0.32500200
SP   6   1.00
    292.7180000             -0.00278094             0.00443826
     69.8731000             -0.03571460             0.03266790
     22.3363000             -0.11498500             0.13472100
      8.1503900              0.09356340             0.32867800
      3.1345800              0.60301700             0.44964000
      1.2254300              0.41895900             0.26137200
SP   3   1.00
      1.7273800             -0.24463000            -0.01779510
      0.5729220              0.00431572             0.25353900
      0.2221920              1.09818000             0.80066900
SP   1   1.00
      0.0778369              1.00000000             1.00000000
D    1   1.00
      0.9000000              1.0000000
D    1   1.00
      0.2250000              1.0000000
F    1   1.00
      0.3200000              1.0000000
****
P     0
S    6   1.00
  19413.3000000              0.0018516
   2909.4200000              0.0142062
    661.3640000              0.0699995
    185.7590000              0.2400790
     59.1943000              0.4847620
     20.0310000              0.3352000
SP   6   1.00
    339.4780000             -0.00278217             0.00456462
     81.0101000             -0.0360499              0.03369360
     25.8780000             -0.1166310              0.13975500
      9.4522100              0.0968328              0.33936200
      3.6656600              0.6144180              0.45092100
      1.4674600              0.4037980              0.23858600
SP   3   1.00
      2.1562300             -0.2529230             -0.01776530
      0.7489970              0.0328517              0.27405800
      0.2831450              1.0812500              0.78542100
SP   1   1.00
      0.0998317              1.0000000              1.00000000
D    1   1.00
      1.1000000              1.0000000
D    1   1.00
      0.2750000              1.0000000
F    1   1.00
      0.4500000              1.0000000
****
S     0
S    6   1.00
  21917.1000000              0.0018690
   3301.4900000              0.0142300
    754.1460000              0.0696960
    212.7110000              0.2384870
     67.9896000              0.4833070
     23.0515000              0.3380740
SP   6   1.00
    423.7350000             -0.0023767              0.0040610
    100.7100000             -0.0316930              0.0306810
     32.1599000             -0.1133170              0.1304520
     11.8079000              0.0560900              0.3272050
      4.6311000              0.5922550              0.4528510
      1.8702500              0.4550060              0.2560420
SP   3   1.00
      2.6158400             -0.2503740             -0.0145110
      0.9221670              0.0669570              0.3102630
      0.3412870              1.0545100              0.7544830
SP   1   1.00
      0.1171670              1.0000000              1.0000000
D    1   1.00
      1.3000000              1.0000000
D    1   1.00
      0.3250000              1.0000000
F    1   1.00
      0.5500000              1.0000000
****
Cl     0
S    6   1.00
  25180.1000000              0.0018330
   3780.3500000              0.0140340
    860.4740000              0.0690970
    242.1450000              0.2374520
     77.3349000              0.4830340
     26.2470000              0.3398560
SP   6   1.00
    491.7650000             -0.0022974              0.0039894
    116.9840000             -0.0307140              0.0303180
     37.4153000             -0.1125280              0.1298800
     13.7834000              0.0450160              0.3279510
      5.4521500              0.5893530              0.4535270
      2.2258800              0.4652060              0.2521540
SP   3   1.00
      3.1864900             -0.2518300             -0.0142990
      1.1442700              0.0615890              0.3235720
      0.4203770              1.0601800              0.7435070
SP   1   1.00
      0.1426570              1.0000000              1.0000000
D    1   1.00
      1.5000000              1.0000000
D    1   1.00
      0.3750000              1.0000000
F    1   1.00
      0.7000000              1.0000000
****
}

set {
reference uhf
freeze_core true
e_convergence 10
d_convergence 10
dft_spherical_points 1202
dft_radial_points 99
}

e = energy('b3lyp')

print_out('Grab this energy {0}'.format(e))
--------------------------------------------------------------------------

    Molecular point group: c1

    Geometry (in Bohr), charge = 0, multiplicity = 2:

       Center              X                  Y                   Z               Mass
    ------------   -----------------  -----------------  -----------------  -----------------
         C           -0.323340440795    -0.000002644996     0.000426696269    12.000000000000
         C            0.062916833905    -1.399704610996    -2.426878894431    12.000000000000
         C            0.061019088705     2.801759210304     0.000368338669    12.000000000000
         C            0.059365628105    -1.402050656696     2.425881107369    12.000000000000
         H            2.086764213005    -1.641949646896    -2.848516211731     1.007825032230
         H           -0.763664849895    -0.389723943296    -4.023864231331     1.007825032230
         H           -0.768424360495    -3.293671380696    -2.348393777431     1.007825032230
         H            2.086796040805     3.288102918004     0.003007202569     1.007825032230
         H           -0.763151004095     3.679698755304     1.675073981969     1.007825032230
         H           -0.768148899395     3.680804764904    -1.677925767431     1.007825032230
         H            2.087113416005    -1.646246356496     2.846362859769     1.007825032230
         H           -0.762723856195    -3.290317627396     2.349575857969     1.007825032230
         H           -0.767141626795    -0.386712933896     4.027094220469     1.007825032230

  Charge       = 0
  Multiplicity = 2
  Basis Set: ANONYMOUS2D4108B0
    Blend: 6-31G_2DFP_
  Basis Set: (ANONYMOUS2D4108B0 AUX)
    Blend: DEF2-UNIVERSAL-JKFIT

    Orbital Energies [Eh]
    ---------------------

    Alpha Occupied:

       1A    -10.180342     2A    -10.167051     3A    -10.167020
       4A    -10.166974     5A     -0.797766     6A     -0.686221
       7A     -0.686155     8A     -0.530778     9A     -0.441126
      10A     -0.434772    11A     -0.434570    12A     -0.382750
      13A     -0.382448    14A     -0.363611    15A     -0.338083
      16A     -0.337913    17A     -0.168961

    Alpha Virtual:

      18A      0.076071    19A      0.134112    20A      0.134178
      21A      0.142572    22A      0.142697    23A      0.154878
      24A      0.178667    25A      0.178895    26A      0.203545
      27A      0.214804    28A      0.275931    29A      0.276040
      30A      0.399070    31A      0.399384    32A      0.403347
      33A      0.424048    34A      0.424144    35A      0.456591
      36A      0.495361    37A      0.495419    38A      0.512159
      39A      0.513980    40A      0.578731    41A      0.578903
      42A      0.591512    43A      0.591752    44A      0.602570
      45A      0.624717    46A      0.631828    47A      0.636134
      48A      0.636348    49A      0.663244    50A      0.663583
      51A      0.683714    52A      0.684012    53A      0.734995
      54A      0.825393    55A      0.825420    56A      0.853915
      57A      0.915006    58A      0.915048    59A      0.944100
      60A      0.944640    61A      0.961211    62A      0.961367
      63A      1.003456    64A      1.128008    65A      1.128216
      66A      1.142216    67A      1.163173    68A      1.163365
      69A      1.223321    70A      1.274350    71A      1.274633
      72A      1.279354    73A      1.324089    74A      1.324597
      75A      1.355978    76A      1.365749    77A      1.366359
      78A      1.392466    79A      1.403934    80A      1.404174
      81A      1.416826    82A      1.417414    83A      1.427911
      84A      1.491457    85A      1.499103    86A      1.542778
      87A      1.542864    88A      1.574300    89A      1.574607
      90A      1.669837    91A      1.739001    92A      1.739812
      93A      1.768320    94A      1.831206    95A      1.831598
      96A      1.971701    97A      2.018196    98A      2.018554
      99A      2.019686   100A      2.052274   101A      2.053018
     102A      2.738443   103A      2.738522   104A      2.790923
     105A      2.811429   106A      2.889682   107A      2.890227
     108A      2.894940   109A      2.929464   110A      2.929527
     111A      2.958995   112A      2.964278   113A      2.964487
     114A      3.033995   115A      3.071167   116A      3.071406
     117A      3.084375   118A      3.168660   119A      3.168903
     120A      3.180592   121A      3.285272   122A      3.285341
     123A      3.327018   124A      3.327327   125A      3.375617
     126A      3.489858   127A      3.490479   128A      3.514006
     129A      3.525336   130A      3.568280   131A      3.568500
     132A      3.575135   133A      3.666091   134A      3.666683
     135A      3.679669   136A      3.694103   137A      3.694139
     138A      3.776761   139A      3.776851   140A      3.789116
     141A      3.912146   142A      3.912308   143A      4.034446
     144A      4.111215   145A      4.111399   146A      4.148114
     147A      4.148234   148A      4.173116   149A      4.202450
     150A      4.202992   151A      4.203350   152A      4.211009
     153A      4.315522   154A      4.316381   155A      4.358979
     156A      4.424339   157A      4.424583   158A      4.443430
     159A      4.515795   160A      4.517900   161A      4.578068
     162A      4.578487   163A      4.617533   164A      4.709449
     165A      4.774091   166A      4.775111   167A      4.836908
     168A      4.962876   169A      5.002497   170A      5.003403
     171A      5.228035   172A      5.246715   173A      5.246758
     174A      5.355325   175A      5.355860   176A      5.479382

    Beta Occupied:

       1A    -10.167807     2A    -10.167776     3A    -10.167741
       4A    -10.166519     5A     -0.781091     6A     -0.684024
       7A     -0.683957     8A     -0.511749     9A     -0.431149
      10A     -0.430937    11A     -0.421821    12A     -0.376843
      13A     -0.376525    14A     -0.362594    15A     -0.333207
      16A     -0.333035

    Beta Virtual:

      17A     -0.025742    18A      0.077080    19A      0.135010
      20A      0.135060    21A      0.144448    22A      0.144564
      23A      0.163337    24A      0.182336    25A      0.182567
      26A      0.215027    27A      0.218935    28A      0.282281
      29A      0.282386    30A      0.400239    31A      0.400557
      32A      0.419791    33A      0.426857    34A      0.426959
      35A      0.468499    36A      0.497625    37A      0.497675
      38A      0.513896    39A      0.556324    40A      0.584286
      41A      0.584448    42A      0.597688    43A      0.597937
      44A      0.609993    45A      0.628062    46A      0.632015
      47A      0.639419    48A      0.639635    49A      0.666824
      50A      0.667132    51A      0.686346    52A      0.686649
      53A      0.757518    54A      0.830564    55A      0.830586
      56A      0.855269    57A      0.922979    58A      0.923018
      59A      0.945959    60A      0.953546    61A      0.966510
      62A      0.966679    63A      1.008696    64A      1.131998
      65A      1.132282    66A      1.155595    67A      1.168293
      68A      1.168390    69A      1.232294    70A      1.279943
      71A      1.280235    72A      1.285107    73A      1.329067
      74A      1.329595    75A      1.365393    76A      1.370993
      77A      1.371604    78A      1.393525    79A      1.407386
      80A      1.407653    81A      1.421893    82A      1.422449
      83A      1.428180    84A      1.492518    85A      1.509534
      86A      1.547202    87A      1.547258    88A      1.582224
      89A      1.582424    90A      1.674683    91A      1.744770
      92A      1.745567    93A      1.779100    94A      1.835062
      95A      1.835454    96A      1.972574    97A      2.024810
      98A      2.026083    99A      2.039710   100A      2.059014
     101A      2.059705   102A      2.746783   103A      2.746853
     104A      2.811837   105A      2.816064   106A      2.902379
     107A      2.902907   108A      2.924649   109A      2.931946
     110A      2.932004   111A      2.960058   112A      2.968826
     113A      2.969027   114A      3.041927   115A      3.081079
     116A      3.081305   117A      3.086207   118A      3.184430
     119A      3.184630   120A      3.188275   121A      3.290079
     122A      3.290130   123A      3.330809   124A      3.331146
     125A      3.383435   126A      3.492590   127A      3.493208
     128A      3.512374   129A      3.528377   130A      3.574996
     131A      3.581682   132A      3.581778   133A      3.670896
     134A      3.671370   135A      3.692961   136A      3.725609
     137A      3.725902   138A      3.781298   139A      3.781364
     140A      3.817662   141A      3.921946   142A      3.922140
     143A      4.045334   144A      4.118074   145A      4.118160
     146A      4.155287   147A      4.155494   148A      4.187131
     149A      4.208818   150A      4.209170   151A      4.210617
     152A      4.215551   153A      4.322939   154A      4.323847
     155A      4.362344   156A      4.432564   157A      4.432787
     158A      4.446312   159A      4.523589   160A      4.525686
     161A      4.588684   162A      4.589075   163A      4.624724
     164A      4.719794   165A      4.781062   166A      4.782046
     167A      4.839825   168A      4.967672   169A      5.006553
     170A      5.007424   171A      5.233750   172A      5.248504
     173A      5.248548   174A      5.361802   175A      5.362334
     176A      5.481703

    Final Occupation by Irrep:
              A
    DOCC [    16 ]
    SOCC [     1 ]

  @DF-UKS Final Energy:  -157.81305941948574

   => Energetics <=

    Nuclear Repulsion Energy =            125.3946378080792527
    One-Electron Energy =                -458.7489101799273499
    Two-Electron Energy =                 195.8483588652296703
    DFT Exchange-Correlation Energy =     -20.3071459128673339
    Empirical Dispersion Energy =           0.0000000000000000
    VV10 Nonlocal Energy =                  0.0000000000000000
    Total Energy =                       -157.8130594194857395

  UHF NO Occupations:
  HONO-2 :   15  A 1.9996009
  HONO-1 :   16  A 1.9989805
  HONO-0 :   17  A 1.0000000
  LUNO+0 :   18  A 0.0010195
  LUNO+1 :   19  A 0.0003991
  LUNO+2 :   20  A 0.0001977
  LUNO+3 :   21  A 0.0001974

Computation Completed

Properties will be evaluated at   0.000000,   0.000000,   0.000000 [a0]

Properties computed using the SCF density matrix

  Nuclear Dipole Moment: [e a0]
     X:     0.8272      Y:    -0.0000      Z:     0.0012

  Electronic Dipole Moment: [e a0]
     X:    -0.7493      Y:     0.0000      Z:    -0.0011

  Dipole Moment: [e a0]
     X:     0.0779      Y:     0.0000      Z:     0.0001     Total:     0.0779

  Dipole Moment: [D]
     X:     0.1980      Y:     0.0000      Z:     0.0003     Total:     0.1980

*** tstop() called on n071 at Fri Nov  5 12:19:33 2021
Module time:
	user time   =     573.79 seconds =       9.56 minutes
	system time =      13.41 seconds =       0.22 minutes
	total time  =        148 seconds =       2.47 minutes
Total time:
	user time   =     573.79 seconds =       9.56 minutes
	system time =      13.41 seconds =       0.22 minutes
	total time  =        148 seconds =       2.47 minutes
Grab this energy -157.81305941948574
    Psi4 stopped on: Friday, 05 November 2021 12:19PM
    Psi4 wall time for execution: 0:02:27.90

*** Psi4 exiting successfully. Buy a developer a beer!
