                               Psi4 1.4a2.dev629

  ==> Input File <==

--------------------------------------------------------------------------
import os
memory 14 GB

molecule {
 C   -0.3233411767   -0.0024291008   -0.0000000230
 C    0.0607388401   -1.4001165514   -2.4260947771
 C    0.0618158409    2.8030137452    0.0016023665
 C    0.0607434231   -1.4028877306    2.4244956877
 H    2.0856490035   -1.6423261985   -2.8489347891
 H   -0.7700783397   -0.3889482248   -4.0205787277
 H   -0.7623012371   -3.2953677566   -2.3481979355
 H    2.0893671625    3.2872799878   -0.0006239793
 H   -0.7644233062    3.6832015393    1.6759607855
 H   -0.7640346860    3.6830710602   -1.6765600651
 H    2.0856452557   -1.6412529722    2.8495522531
 H   -0.7627019009   -3.2949064686    2.3486124042
 H   -0.7696867558   -0.3883556426    4.0207667997
units bohr
0 2
}

basis {

assign 6-31g_2dfp_

[ 6-31g_2dfp_ ]

spherical

!----------------------------------------------------------------------
! Basis Set Exchange
! Version v0.8.13
! https://www.basissetexchange.org
!----------------------------------------------------------------------
!   Basis set: 6-31G(2df,p)
! Description: 6-31G(2df,p)
!        Role: orbital
!     Version: 0  (Data from the original Basis Set Exchange)
!----------------------------------------------------------------------

****
H     0
S    3   1.00
     18.7311370              0.03349460
      2.8253937              0.23472695
      0.6401217              0.81375733
S    1   1.00
      0.1612778              1.00000000
P    1   1.00
      1.5000000              1.0000000
P    1   1.00
      0.3750000              1.0000000
****
B     0
S    6   1.00
   2068.8823000              0.0018663
    310.6495700              0.0142515
     70.6830330              0.0695516
     19.8610800              0.2325729
      6.2993048              0.4670787
      2.1270270              0.3634314
SP   3   1.00
      4.7279710             -0.1303938              0.0745976
      1.1903377             -0.1307889              0.3078467
      0.3594117              1.1309444              0.7434568
SP   1   1.00
      0.1267512              1.0000000              1.0000000
D    1   1.00
      0.8020000              1.0000000
D    1   1.00
      0.2005000              1.0000000
F    1   1.00
      0.5000000              1.0000000
****
C     0
S    6   1.00
   3047.5249000              0.0018347
    457.3695100              0.0140373
    103.9486900              0.0688426
     29.2101550              0.2321844
      9.2866630              0.4679413
      3.1639270              0.3623120
SP   3   1.00
      7.8682724             -0.1193324              0.0689991
      1.8812885             -0.1608542              0.3164240
      0.5442493              1.1434564              0.7443083
SP   1   1.00
      0.1687144              1.0000000              1.0000000
D    1   1.00
      1.2520000              1.0000000
D    1   1.00
      0.3130000              1.0000000
F    1   1.00
      0.8000000              1.0000000
****
N     0
S    6   1.00
   4173.5110000              0.0018348
    627.4579000              0.0139950
    142.9021000              0.0685870
     40.2343300              0.2322410
     12.8202100              0.4690700
      4.3904370              0.3604550
SP   3   1.00
     11.6263580             -0.1149610              0.0675800
      2.7162800             -0.1691180              0.3239070
      0.7722180              1.1458520              0.7408950
SP   1   1.00
      0.2120313              1.0000000              1.0000000
D    1   1.00
      1.8260000              1.0000000
D    1   1.00
      0.4565000              1.0000000
F    1   1.00
      1.0000000              1.0000000
****
O     0
S    6   1.00
   5484.6717000              0.0018311
    825.2349500              0.0139501
    188.0469600              0.0684451
     52.9645000              0.2327143
     16.8975700              0.4701930
      5.7996353              0.3585209
SP   3   1.00
     15.5396160             -0.1107775              0.0708743
      3.5999336             -0.1480263              0.3397528
      1.0137618              1.1307670              0.7271586
SP   1   1.00
      0.2700058              1.0000000              1.0000000
D    1   1.00
      2.5840000              1.0000000
D    1   1.00
      0.6460000              1.0000000
F    1   1.00
      1.4000000              1.0000000
****
F     0
S    6   1.00
   7001.7130900              0.0018196169
   1051.3660900              0.0139160796
    239.2856900              0.0684053245
     67.3974453              0.233185760
     21.5199573              0.471267439
      7.40310130             0.356618546
SP   3   1.00
     20.8479528             -0.108506975            0.0716287243
      4.80830834            -0.146451658            0.3459121030
      1.34406986             1.128688580            0.7224699570
SP   1   1.00
      0.358151393            1.0000000              1.0000000
D    1   1.00
      3.5000000              1.0000000
D    1   1.00
      0.8750000              1.0000000
F    1   1.00
      1.8500000              1.0000000
****
Al     0
S    6   1.00
  13983.1000000              0.00194267
   2098.7500000              0.0148599
    477.7050000              0.0728494
    134.3600000              0.2468300
     42.8709000              0.4872580
     14.5189000              0.3234960
SP   6   1.00
    239.6680000             -0.00292619             0.00460285
     57.4419000             -0.0374080              0.0331990
     18.2859000             -0.1144870              0.1362820
      6.5991400              0.1156350              0.3304760
      2.4904900              0.6125950              0.4491460
      0.9445400              0.3937990              0.2657040
SP   3   1.00
      1.2779000             -0.2276060             -0.0175130
      0.3975900              0.00144583             0.2445330
      0.1600950              1.0927900              0.8049340
SP   1   1.00
      0.0556577              1.0000000              1.0000000
D    1   1.00
      0.6500000              1.0000000
D    1   1.00
      0.1625000              1.0000000
F    1   1.00
      0.2500000              1.0000000
****
Si     0
S    6   1.00
  16115.9000000              0.00195948
   2425.5800000              0.01492880
    553.8670000              0.07284780
    156.3400000              0.24613000
     50.0683000              0.48591400
     17.0178000              0.32500200
SP   6   1.00
    292.7180000             -0.00278094             0.00443826
     69.8731000             -0.03571460             0.03266790
     22.3363000             -0.11498500             0.13472100
      8.1503900              0.09356340             0.32867800
      3.1345800              0.60301700             0.44964000
      1.2254300              0.41895900             0.26137200
SP   3   1.00
      1.7273800             -0.24463000            -0.01779510
      0.5729220              0.00431572             0.25353900
      0.2221920              1.09818000             0.80066900
SP   1   1.00
      0.0778369              1.00000000             1.00000000
D    1   1.00
      0.9000000              1.0000000
D    1   1.00
      0.2250000              1.0000000
F    1   1.00
      0.3200000              1.0000000
****
P     0
S    6   1.00
  19413.3000000              0.0018516
   2909.4200000              0.0142062
    661.3640000              0.0699995
    185.7590000              0.2400790
     59.1943000              0.4847620
     20.0310000              0.3352000
SP   6   1.00
    339.4780000             -0.00278217             0.00456462
     81.0101000             -0.0360499              0.03369360
     25.8780000             -0.1166310              0.13975500
      9.4522100              0.0968328              0.33936200
      3.6656600              0.6144180              0.45092100
      1.4674600              0.4037980              0.23858600
SP   3   1.00
      2.1562300             -0.2529230             -0.01776530
      0.7489970              0.0328517              0.27405800
      0.2831450              1.0812500              0.78542100
SP   1   1.00
      0.0998317              1.0000000              1.00000000
D    1   1.00
      1.1000000              1.0000000
D    1   1.00
      0.2750000              1.0000000
F    1   1.00
      0.4500000              1.0000000
****
S     0
S    6   1.00
  21917.1000000              0.0018690
   3301.4900000              0.0142300
    754.1460000              0.0696960
    212.7110000              0.2384870
     67.9896000              0.4833070
     23.0515000              0.3380740
SP   6   1.00
    423.7350000             -0.0023767              0.0040610
    100.7100000             -0.0316930              0.0306810
     32.1599000             -0.1133170              0.1304520
     11.8079000              0.0560900              0.3272050
      4.6311000              0.5922550              0.4528510
      1.8702500              0.4550060              0.2560420
SP   3   1.00
      2.6158400             -0.2503740             -0.0145110
      0.9221670              0.0669570              0.3102630
      0.3412870              1.0545100              0.7544830
SP   1   1.00
      0.1171670              1.0000000              1.0000000
D    1   1.00
      1.3000000              1.0000000
D    1   1.00
      0.3250000              1.0000000
F    1   1.00
      0.5500000              1.0000000
****
Cl     0
S    6   1.00
  25180.1000000              0.0018330
   3780.3500000              0.0140340
    860.4740000              0.0690970
    242.1450000              0.2374520
     77.3349000              0.4830340
     26.2470000              0.3398560
SP   6   1.00
    491.7650000             -0.0022974              0.0039894
    116.9840000             -0.0307140              0.0303180
     37.4153000             -0.1125280              0.1298800
     13.7834000              0.0450160              0.3279510
      5.4521500              0.5893530              0.4535270
      2.2258800              0.4652060              0.2521540
SP   3   1.00
      3.1864900             -0.2518300             -0.0142990
      1.1442700              0.0615890              0.3235720
      0.4203770              1.0601800              0.7435070
SP   1   1.00
      0.1426570              1.0000000              1.0000000
D    1   1.00
      1.5000000              1.0000000
D    1   1.00
      0.3750000              1.0000000
F    1   1.00
      0.7000000              1.0000000
****
}

set {
reference uhf
freeze_core true
e_convergence 10
d_convergence 10
dft_spherical_points 1202
dft_radial_points 99
}

e = energy('b3lyp')

print_out('Grab this energy {0}'.format(e))
--------------------------------------------------------------------------

    Molecular point group: c1

    Geometry (in Bohr), charge = 0, multiplicity = 2:

       Center              X                  Y                   Z               Mass
    ------------   -----------------  -----------------  -----------------  -----------------
         C           -0.323340581978    -0.001962631809    -0.000000649761    12.000000000000
         C            0.060739434822    -1.399650082409    -2.426095403861    12.000000000000
         C            0.061816435622     2.803480214191     0.001601739739    12.000000000000
         C            0.060744017822    -1.402421261609     2.424495060939    12.000000000000
         H            2.085649598222    -1.641859729509    -2.848935415861     1.007825032230
         H           -0.770077744978    -0.388481755809    -4.020579354461     1.007825032230
         H           -0.762300642378    -3.294901287609    -2.348198562261     1.007825032230
         H            2.089367757222     3.287746456791    -0.000624606061     1.007825032230
         H           -0.764422711478     3.683668008291     1.675960158739     1.007825032230
         H           -0.764034091278     3.683537529191    -1.676560691861     1.007825032230
         H            2.085645850422    -1.640786503209     2.849551626339     1.007825032230
         H           -0.762701306178    -3.294439999609     2.348611777439     1.007825032230
         H           -0.769686161078    -0.387889173609     4.020766172939     1.007825032230

  Charge       = 0
  Multiplicity = 2
  Basis Set: ANONYMOUSF435E3EA
    Blend: 6-31G_2DFP_
  Basis Set: (ANONYMOUSF435E3EA AUX)
    Blend: DEF2-UNIVERSAL-JKFIT

    Orbital Energies [Eh]
    ---------------------

    Alpha Occupied:

       1A    -10.180341     2A    -10.167233     3A    -10.166922
       4A    -10.166890     5A     -0.797767     6A     -0.686329
       7A     -0.686044     8A     -0.530776     9A     -0.441125
      10A     -0.434743    11A     -0.434601    12A     -0.382644
      13A     -0.382554    14A     -0.363610    15A     -0.338147
      16A     -0.337849    17A     -0.168960

    Alpha Virtual:

      18A      0.076072    19A      0.134092    20A      0.134219
      21A      0.142616    22A      0.142639    23A      0.154878
      24A      0.178775    25A      0.178781    26A      0.203545
      27A      0.214804    28A      0.275650    29A      0.276321
      30A      0.399209    31A      0.399237    32A      0.403356
      33A      0.424064    34A      0.424132    35A      0.456594
      36A      0.495340    37A      0.495439    38A      0.512153
      39A      0.513986    40A      0.578624    41A      0.579005
      42A      0.591408    43A      0.591863    44A      0.602573
      45A      0.624751    46A      0.631784    47A      0.636160
      48A      0.636340    49A      0.663207    50A      0.663617
      51A      0.683835    52A      0.683873    53A      0.734994
      54A      0.825378    55A      0.825436    56A      0.853916
      57A      0.914896    58A      0.915158    59A      0.944122
      60A      0.944615    61A      0.961260    62A      0.961326
      63A      1.003455    64A      1.128066    65A      1.128131
      66A      1.142207    67A      1.163166    68A      1.163400
      69A      1.223324    70A      1.274303    71A      1.274672
      72A      1.279359    73A      1.324234    74A      1.324477
      75A      1.355987    76A      1.365766    77A      1.366341
      78A      1.392455    79A      1.403733    80A      1.404376
      81A      1.416840    82A      1.417371    83A      1.427912
      84A      1.491454    85A      1.499129    86A      1.542688
      87A      1.542966    88A      1.574228    89A      1.574673
      90A      1.669829    91A      1.739148    92A      1.739693
      93A      1.768321    94A      1.830981    95A      1.831802
      96A      1.971730    97A      2.018187    98A      2.019078
      99A      2.019118   100A      2.051680   101A      2.053616
     102A      2.738428   103A      2.738537   104A      2.790921
     105A      2.811429   106A      2.889475   107A      2.890377
     108A      2.894991   109A      2.929329   110A      2.929669
     111A      2.958995   112A      2.964123   113A      2.964634
     114A      3.034008   115A      3.070998   116A      3.071572
     117A      3.084345   118A      3.168702   119A      3.168841
     120A      3.180614   121A      3.285270   122A      3.285356
     123A      3.326712   124A      3.327612   125A      3.375619
     126A      3.489937   127A      3.490385   128A      3.513973
     129A      3.525340   130A      3.567573   131A      3.569218
     132A      3.575152   133A      3.666178   134A      3.666544
     135A      3.679675   136A      3.693791   137A      3.694467
     138A      3.775480   139A      3.778095   140A      3.789169
     141A      3.911735   142A      3.912720   143A      4.034451
     144A      4.110346   145A      4.112396   146A      4.147571
     147A      4.148679   148A      4.173244   149A      4.202278
     150A      4.202989   151A      4.203508   152A      4.210878
     153A      4.315436   154A      4.316471   155A      4.358977
     156A      4.423946   157A      4.424953   158A      4.443431
     159A      4.516077   160A      4.517604   161A      4.577582
     162A      4.578942   163A      4.617529   164A      4.709455
     165A      4.773981   166A      4.775250   167A      4.836918
     168A      4.962850   169A      5.002343   170A      5.003564
     171A      5.228029   172A      5.246692   173A      5.246945
     174A      5.354556   175A      5.356464   176A      5.479354

    Beta Occupied:

       1A    -10.167989     2A    -10.167675     3A    -10.167659
       4A    -10.166518     5A     -0.781092     6A     -0.684121
       7A     -0.683858     8A     -0.511747     9A     -0.431121
      10A     -0.430964    11A     -0.421823    12A     -0.376717
      13A     -0.376651    14A     -0.362594    15A     -0.333270
      16A     -0.332972

    Beta Virtual:

      17A     -0.025742    18A      0.077081    19A      0.134978
      20A      0.135113    21A      0.144476    22A      0.144520
      23A      0.163337    24A      0.182444    25A      0.182454
      26A      0.215027    27A      0.218934    28A      0.282009
      29A      0.282658    30A      0.400392    31A      0.400401
      32A      0.419793    33A      0.426863    34A      0.426956
      35A      0.468502    36A      0.497607    37A      0.497693
      38A      0.513895    39A      0.556324    40A      0.584164
      41A      0.584566    42A      0.597607    43A      0.598021
      44A      0.609996    45A      0.628121    46A      0.631948
      47A      0.639426    48A      0.639646    49A      0.666782
      50A      0.667169    51A      0.686482    52A      0.686496
      53A      0.757517    54A      0.830574    55A      0.830577
      56A      0.855269    57A      0.922864    58A      0.923133
      59A      0.945960    60A      0.953542    61A      0.966537
      62A      0.966662    63A      1.008694    64A      1.132041
      65A      1.132214    66A      1.155581    67A      1.168302
      68A      1.168412    69A      1.232298    70A      1.279891
      71A      1.280275    72A      1.285116    73A      1.329236
      74A      1.329454    75A      1.365400    76A      1.371048
      77A      1.371545    78A      1.393516    79A      1.407171
      80A      1.407868    81A      1.421899    82A      1.422412
      83A      1.428184    84A      1.492521    85A      1.509552
      86A      1.547125    87A      1.547344    88A      1.582142
      89A      1.582504    90A      1.674676    91A      1.744896
      92A      1.745468    93A      1.779101    94A      1.834830
      95A      1.835664    96A      1.972590    97A      2.025357
      98A      2.025525    99A      2.039674   100A      2.058433
     101A      2.060298   102A      2.746739   103A      2.746899
     104A      2.811800   105A      2.816097   106A      2.902263
     107A      2.903006   108A      2.924639   109A      2.931813
     110A      2.932167   111A      2.960058   112A      2.968683
     113A      2.969164   114A      3.041943   115A      3.080949
     116A      3.081442   117A      3.086162   118A      3.184327
     119A      3.184665   120A      3.188346   121A      3.290065
     122A      3.290158   123A      3.330524   124A      3.331409
     125A      3.383438   126A      3.492646   127A      3.493137
     128A      3.512349   129A      3.528379   130A      3.575000
     131A      3.580942   132A      3.582533   133A      3.671056
     134A      3.671183   135A      3.692952   136A      3.725575
     137A      3.725943   138A      3.780050   139A      3.782603
     140A      3.817688   141A      3.921597   142A      3.922493
     143A      4.045338   144A      4.117166   145A      4.119207
     146A      4.154845   147A      4.155822   148A      4.187304
     149A      4.208487   150A      4.209447   151A      4.210679
     152A      4.215357   153A      4.322845   154A      4.323942
     155A      4.362339   156A      4.432178   157A      4.433149
     158A      4.446319   159A      4.523878   160A      4.525381
     161A      4.588176   162A      4.589548   163A      4.624725
     164A      4.719799   165A      4.780975   166A      4.782164
     167A      4.839835   168A      4.967644   169A      5.006364
     170A      5.007622   171A      5.233744   172A      5.248464
     173A      5.248742   174A      5.361016   175A      5.362966
     176A      5.481675

    Final Occupation by Irrep:
              A
    DOCC [    16 ]
    SOCC [     1 ]

  @DF-UKS Final Energy:  -157.81306668911739

   => Energetics <=

    Nuclear Repulsion Energy =            125.3946363510870299
    One-Electron Energy =                -458.7489314445790569
    Two-Electron Energy =                 195.8483725752415125
    DFT Exchange-Correlation Energy =     -20.3071441708668594
    Empirical Dispersion Energy =           0.0000000000000000
    VV10 Nonlocal Energy =                  0.0000000000000000
    Total Energy =                       -157.8130666891173917

  UHF NO Occupations:
  HONO-2 :   15  A 1.9996009
  HONO-1 :   16  A 1.9989805
  HONO-0 :   17  A 1.0000000
  LUNO+0 :   18  A 0.0010195
  LUNO+1 :   19  A 0.0003991
  LUNO+2 :   20  A 0.0001981
  LUNO+3 :   21  A 0.0001970

Computation Completed

Properties will be evaluated at   0.000000,   0.000000,   0.000000 [a0]

Properties computed using the SCF density matrix

  Nuclear Dipole Moment: [e a0]
     X:     0.8272      Y:     0.0033      Z:    -0.0000

  Electronic Dipole Moment: [e a0]
     X:    -0.7493      Y:    -0.0032      Z:     0.0000

  Dipole Moment: [e a0]
     X:     0.0779      Y:     0.0000      Z:     0.0000     Total:     0.0779

  Dipole Moment: [D]
     X:     0.1980      Y:     0.0001      Z:     0.0000     Total:     0.1980

*** tstop() called on n091 at Fri Nov  5 12:51:15 2021
Module time:
	user time   =     465.24 seconds =       7.75 minutes
	system time =       4.42 seconds =       0.07 minutes
	total time  =        118 seconds =       1.97 minutes
Total time:
	user time   =     465.24 seconds =       7.75 minutes
	system time =       4.42 seconds =       0.07 minutes
	total time  =        118 seconds =       1.97 minutes
Grab this energy -157.8130666891174
    Psi4 stopped on: Friday, 05 November 2021 12:51PM
    Psi4 wall time for execution: 0:01:58.14

*** Psi4 exiting successfully. Buy a developer a beer!
