                               Psi4 1.4a2.dev629

  ==> Input File <==

--------------------------------------------------------------------------
import os
memory 14 GB

molecule {
 C   -0.3233406774   -0.0005047300    0.0000000000
 C    0.0595591691   -1.4002226979   -2.4268342757
 C    0.0641840424    2.8016259847   -0.0000000000
 C    0.0595591691   -1.4002226979    2.4268342757
 H    2.0854144721   -1.6413589303   -2.8454984477
 H   -0.7668542314   -0.3901048182   -4.0277862114
 H   -0.7651156458   -3.2928949722   -2.3489383885
 H    2.0898329276    3.2942068595   -0.0000000000
 H   -0.7646458486    3.6769052047    1.6761748233
 H   -0.7646458486    3.6769052047   -1.6761748233
 H    2.0854144721   -1.6413589303    2.8454984477
 H   -0.7651156458   -3.2928949722    2.3489383885
 H   -0.7668542314   -0.3901048182    4.0277862114
units bohr
0 2
}

basis {

assign 6-31g_2dfp_

[ 6-31g_2dfp_ ]

spherical

!----------------------------------------------------------------------
! Basis Set Exchange
! Version v0.8.13
! https://www.basissetexchange.org
!----------------------------------------------------------------------
!   Basis set: 6-31G(2df,p)
! Description: 6-31G(2df,p)
!        Role: orbital
!     Version: 0  (Data from the original Basis Set Exchange)
!----------------------------------------------------------------------

****
H     0
S    3   1.00
     18.7311370              0.03349460
      2.8253937              0.23472695
      0.6401217              0.81375733
S    1   1.00
      0.1612778              1.00000000
P    1   1.00
      1.5000000              1.0000000
P    1   1.00
      0.3750000              1.0000000
****
B     0
S    6   1.00
   2068.8823000              0.0018663
    310.6495700              0.0142515
     70.6830330              0.0695516
     19.8610800              0.2325729
      6.2993048              0.4670787
      2.1270270              0.3634314
SP   3   1.00
      4.7279710             -0.1303938              0.0745976
      1.1903377             -0.1307889              0.3078467
      0.3594117              1.1309444              0.7434568
SP   1   1.00
      0.1267512              1.0000000              1.0000000
D    1   1.00
      0.8020000              1.0000000
D    1   1.00
      0.2005000              1.0000000
F    1   1.00
      0.5000000              1.0000000
****
C     0
S    6   1.00
   3047.5249000              0.0018347
    457.3695100              0.0140373
    103.9486900              0.0688426
     29.2101550              0.2321844
      9.2866630              0.4679413
      3.1639270              0.3623120
SP   3   1.00
      7.8682724             -0.1193324              0.0689991
      1.8812885             -0.1608542              0.3164240
      0.5442493              1.1434564              0.7443083
SP   1   1.00
      0.1687144              1.0000000              1.0000000
D    1   1.00
      1.2520000              1.0000000
D    1   1.00
      0.3130000              1.0000000
F    1   1.00
      0.8000000              1.0000000
****
N     0
S    6   1.00
   4173.5110000              0.0018348
    627.4579000              0.0139950
    142.9021000              0.0685870
     40.2343300              0.2322410
     12.8202100              0.4690700
      4.3904370              0.3604550
SP   3   1.00
     11.6263580             -0.1149610              0.0675800
      2.7162800             -0.1691180              0.3239070
      0.7722180              1.1458520              0.7408950
SP   1   1.00
      0.2120313              1.0000000              1.0000000
D    1   1.00
      1.8260000              1.0000000
D    1   1.00
      0.4565000              1.0000000
F    1   1.00
      1.0000000              1.0000000
****
O     0
S    6   1.00
   5484.6717000              0.0018311
    825.2349500              0.0139501
    188.0469600              0.0684451
     52.9645000              0.2327143
     16.8975700              0.4701930
      5.7996353              0.3585209
SP   3   1.00
     15.5396160             -0.1107775              0.0708743
      3.5999336             -0.1480263              0.3397528
      1.0137618              1.1307670              0.7271586
SP   1   1.00
      0.2700058              1.0000000              1.0000000
D    1   1.00
      2.5840000              1.0000000
D    1   1.00
      0.6460000              1.0000000
F    1   1.00
      1.4000000              1.0000000
****
F     0
S    6   1.00
   7001.7130900              0.0018196169
   1051.3660900              0.0139160796
    239.2856900              0.0684053245
     67.3974453              0.233185760
     21.5199573              0.471267439
      7.40310130             0.356618546
SP   3   1.00
     20.8479528             -0.108506975            0.0716287243
      4.80830834            -0.146451658            0.3459121030
      1.34406986             1.128688580            0.7224699570
SP   1   1.00
      0.358151393            1.0000000              1.0000000
D    1   1.00
      3.5000000              1.0000000
D    1   1.00
      0.8750000              1.0000000
F    1   1.00
      1.8500000              1.0000000
****
Al     0
S    6   1.00
  13983.1000000              0.00194267
   2098.7500000              0.0148599
    477.7050000              0.0728494
    134.3600000              0.2468300
     42.8709000              0.4872580
     14.5189000              0.3234960
SP   6   1.00
    239.6680000             -0.00292619             0.00460285
     57.4419000             -0.0374080              0.0331990
     18.2859000             -0.1144870              0.1362820
      6.5991400              0.1156350              0.3304760
      2.4904900              0.6125950              0.4491460
      0.9445400              0.3937990              0.2657040
SP   3   1.00
      1.2779000             -0.2276060             -0.0175130
      0.3975900              0.00144583             0.2445330
      0.1600950              1.0927900              0.8049340
SP   1   1.00
      0.0556577              1.0000000              1.0000000
D    1   1.00
      0.6500000              1.0000000
D    1   1.00
      0.1625000              1.0000000
F    1   1.00
      0.2500000              1.0000000
****
Si     0
S    6   1.00
  16115.9000000              0.00195948
   2425.5800000              0.01492880
    553.8670000              0.07284780
    156.3400000              0.24613000
     50.0683000              0.48591400
     17.0178000              0.32500200
SP   6   1.00
    292.7180000             -0.00278094             0.00443826
     69.8731000             -0.03571460             0.03266790
     22.3363000             -0.11498500             0.13472100
      8.1503900              0.09356340             0.32867800
      3.1345800              0.60301700             0.44964000
      1.2254300              0.41895900             0.26137200
SP   3   1.00
      1.7273800             -0.24463000            -0.01779510
      0.5729220              0.00431572             0.25353900
      0.2221920              1.09818000             0.80066900
SP   1   1.00
      0.0778369              1.00000000             1.00000000
D    1   1.00
      0.9000000              1.0000000
D    1   1.00
      0.2250000              1.0000000
F    1   1.00
      0.3200000              1.0000000
****
P     0
S    6   1.00
  19413.3000000              0.0018516
   2909.4200000              0.0142062
    661.3640000              0.0699995
    185.7590000              0.2400790
     59.1943000              0.4847620
     20.0310000              0.3352000
SP   6   1.00
    339.4780000             -0.00278217             0.00456462
     81.0101000             -0.0360499              0.03369360
     25.8780000             -0.1166310              0.13975500
      9.4522100              0.0968328              0.33936200
      3.6656600              0.6144180              0.45092100
      1.4674600              0.4037980              0.23858600
SP   3   1.00
      2.1562300             -0.2529230             -0.01776530
      0.7489970              0.0328517              0.27405800
      0.2831450              1.0812500              0.78542100
SP   1   1.00
      0.0998317              1.0000000              1.00000000
D    1   1.00
      1.1000000              1.0000000
D    1   1.00
      0.2750000              1.0000000
F    1   1.00
      0.4500000              1.0000000
****
S     0
S    6   1.00
  21917.1000000              0.0018690
   3301.4900000              0.0142300
    754.1460000              0.0696960
    212.7110000              0.2384870
     67.9896000              0.4833070
     23.0515000              0.3380740
SP   6   1.00
    423.7350000             -0.0023767              0.0040610
    100.7100000             -0.0316930              0.0306810
     32.1599000             -0.1133170              0.1304520
     11.8079000              0.0560900              0.3272050
      4.6311000              0.5922550              0.4528510
      1.8702500              0.4550060              0.2560420
SP   3   1.00
      2.6158400             -0.2503740             -0.0145110
      0.9221670              0.0669570              0.3102630
      0.3412870              1.0545100              0.7544830
SP   1   1.00
      0.1171670              1.0000000              1.0000000
D    1   1.00
      1.3000000              1.0000000
D    1   1.00
      0.3250000              1.0000000
F    1   1.00
      0.5500000              1.0000000
****
Cl     0
S    6   1.00
  25180.1000000              0.0018330
   3780.3500000              0.0140340
    860.4740000              0.0690970
    242.1450000              0.2374520
     77.3349000              0.4830340
     26.2470000              0.3398560
SP   6   1.00
    491.7650000             -0.0022974              0.0039894
    116.9840000             -0.0307140              0.0303180
     37.4153000             -0.1125280              0.1298800
     13.7834000              0.0450160              0.3279510
      5.4521500              0.5893530              0.4535270
      2.2258800              0.4652060              0.2521540
SP   3   1.00
      3.1864900             -0.2518300             -0.0142990
      1.1442700              0.0615890              0.3235720
      0.4203770              1.0601800              0.7435070
SP   1   1.00
      0.1426570              1.0000000              1.0000000
D    1   1.00
      1.5000000              1.0000000
D    1   1.00
      0.3750000              1.0000000
F    1   1.00
      0.7000000              1.0000000
****
}

set {
reference uhf
freeze_core true
e_convergence 10
d_convergence 10
dft_spherical_points 1202
dft_radial_points 99
}

e = energy('b3lyp')

print_out('Grab this energy {0}'.format(e))
--------------------------------------------------------------------------

    Molecular point group: cs

    Geometry (in Bohr), charge = 0, multiplicity = 2:

       Center              X                  Y                   Z               Mass
    ------------   -----------------  -----------------  -----------------  -----------------
         C           -0.323341002531    -0.000634475930     0.000000000000    12.000000000000
         C            0.059558843969    -1.400352443830    -2.426834275700    12.000000000000
         C            0.064183717269     2.801496238770     0.000000000000    12.000000000000
         C            0.059558843969    -1.400352443830     2.426834275700    12.000000000000
         H            2.085414146969    -1.641488676230    -2.845498447700     1.007825032230
         H           -0.766854556531    -0.390234564130    -4.027786211400     1.007825032230
         H           -0.765115970931    -3.293024718130    -2.348938388500     1.007825032230
         H            2.089832602469     3.294077113570     0.000000000000     1.007825032230
         H           -0.764646173731     3.676775458770     1.676174823300     1.007825032230
         H           -0.764646173731     3.676775458770    -1.676174823300     1.007825032230
         H            2.085414146969    -1.641488676230     2.845498447700     1.007825032230
         H           -0.765115970931    -3.293024718130     2.348938388500     1.007825032230
         H           -0.766854556531    -0.390234564130     4.027786211400     1.007825032230

  Charge       = 0
  Multiplicity = 2
  Basis Set: ANONYMOUS5B445030
    Blend: 6-31G_2DFP_
  Basis Set: (ANONYMOUS5B445030 AUX)
    Blend: DEF2-UNIVERSAL-JKFIT

    Orbital Energies [Eh]
    ---------------------

    Alpha Occupied:

       1Ap   -10.180342     1App  -10.167063     2Ap   -10.167038
       3Ap   -10.166944     4Ap    -0.797766     2App   -0.686249
       5Ap    -0.686125     6Ap    -0.530775     7Ap    -0.441125
       8Ap    -0.434684     3App   -0.434657     4App   -0.382673
       9Ap    -0.382525     5App   -0.363611     6App   -0.338236
      10Ap    -0.337761    11Ap    -0.168960

    Alpha Virtual:

      12Ap     0.076073    13Ap     0.134140     7App    0.134172
      14Ap     0.142484     8App    0.142772    15Ap     0.154879
      16Ap     0.178749     9App    0.178800    17Ap     0.203553
      10App    0.214802    18Ap     0.275910    11App    0.276060
      19Ap     0.399192    12App    0.399263    20Ap     0.403347
      13App    0.424044    21Ap     0.424153    22Ap     0.456594
      23Ap     0.495371    14App    0.495407    15App    0.512161
      24Ap     0.513981    16App    0.578608    25Ap     0.579022
      26Ap     0.591490    17App    0.591771    27Ap     0.602583
      28Ap     0.624763    18App    0.631760    29Ap     0.636136
      19App    0.636372    20App    0.663202    30Ap     0.663623
      31Ap     0.683817    21App    0.683887    32Ap     0.734993
      33Ap     0.825334    22App    0.825478    23App    0.853917
      34Ap     0.914728    24App    0.915321    25App    0.944108
      35Ap     0.944613    36Ap     0.961302    26App    0.961307
      37Ap     1.003455    27App    1.127611    38Ap     1.128615
      39Ap     1.142198    28App    1.163018    40Ap     1.163535
      41Ap     1.223322    29App    1.274248    42Ap     1.274693
      43Ap     1.279396    30App    1.324170    44Ap     1.324547
      45Ap     1.355974    46Ap     1.365771    31App    1.366354
      32App    1.392435    47Ap     1.403674    33App    1.404416
      48Ap     1.417073    34App    1.417147    35App    1.427931
      36App    1.491496    49Ap     1.499077    37App    1.542780
      50Ap     1.542895    51Ap     1.573802    38App    1.575092
      52Ap     1.669824    39App    1.739116    53Ap     1.739726
      54Ap     1.768316    40App    1.831164    55Ap     1.831633
      41App    1.971721    56Ap     2.018257    42App    2.018519
      57Ap     2.019621    58Ap     2.052547    43App    2.052722
      44App    2.738453    59Ap     2.738516    60Ap     2.790930
      45App    2.811434    61Ap     2.889825    46App    2.890071
      62Ap     2.894958    63Ap     2.929153    47App    2.929837
      48App    2.958991    49App    2.964103    64Ap     2.964649
      65Ap     3.033999    66Ap     3.070531    50App    3.072024
      51App    3.084365    52App    3.168439    67Ap     3.169123
      68Ap     3.180580    53App    3.285160    69Ap     3.285466
      54App    3.326134    70Ap     3.328200    71Ap     3.375620
      72Ap     3.488791    55App    3.491525    56App    3.514009
      73Ap     3.525334    57App    3.568016    74Ap     3.568588
      58App    3.575314    75Ap     3.666183    59App    3.666548
      76Ap     3.679654    77Ap     3.693457    60App    3.694779
      61App    3.776697    78Ap     3.776897    79Ap     3.789172
      62App    3.912182    80Ap     3.912275    81Ap     4.034446
      82Ap     4.111147    63App    4.111584    83Ap     4.148029
      64App    4.148219    84Ap     4.173254    85Ap     4.202111
      65App    4.202539    86Ap     4.204149    66App    4.210840
      87Ap     4.315351    67App    4.316565    68App    4.359031
      88Ap     4.424252    69App    4.424664    70App    4.443436
      71App    4.516398    89Ap     4.517218    90Ap     4.578100
      72App    4.578463    91Ap     4.617569    92Ap     4.709421
      93Ap     4.774500    73App    4.774637    74App    4.836941
      94Ap     4.962871    95Ap     5.002874    75App    5.003040
      96Ap     5.228045    97Ap     5.246281    76App    5.247336
      98Ap     5.355277    77App    5.355722    78App    5.479345

    Beta Occupied:

       1App  -10.167815     1Ap   -10.167799     2Ap   -10.167710
       3Ap   -10.166519     4Ap    -0.781091     2App   -0.684047
       5Ap    -0.683932     6Ap    -0.511747     7Ap    -0.431050
       3App   -0.431034     8Ap    -0.421821     4App   -0.376756
       9Ap    -0.376612     5App   -0.362595     6App   -0.333349
      10Ap    -0.332894

    Beta Virtual:

      11Ap    -0.025742    12Ap     0.077082    13Ap     0.135029
       7App    0.135063    14Ap     0.144373     8App    0.144624
      15Ap     0.163339    16Ap     0.182420     9App    0.182474
      10App    0.215031    17Ap     0.218933    18Ap     0.282256
      11App    0.282410    19Ap     0.400358    12App    0.400437
      20Ap     0.419791    13App    0.426856    21Ap     0.426963
      22Ap     0.468502    23Ap     0.497638    14App    0.497663
      15App    0.513896    24Ap     0.556325    16App    0.584157
      25Ap     0.584574    26Ap     0.597672    17App    0.597951
      27Ap     0.610004    28Ap     0.628138    18App    0.631922
      29Ap     0.639426    19App    0.639648    20App    0.666773
      30Ap     0.667180    31Ap     0.686434    21App    0.686541
      32Ap     0.757516    33Ap     0.830508    22App    0.830641
      23App    0.855270    34Ap     0.922725    24App    0.923267
      25App    0.945946    35Ap     0.953538    26App    0.966592
      36Ap     0.966631    37Ap     1.008695    27App    1.131646
      38Ap     1.132636    39Ap     1.155569    28App    1.168105
      40Ap     1.168601    41Ap     1.232294    29App    1.279854
      42Ap     1.280288    43Ap     1.285145    30App    1.329155
      44Ap     1.329541    45Ap     1.365377    46Ap     1.371043
      31App    1.371580    32App    1.393494    47Ap     1.407148
      33App    1.407872    48Ap     1.422113    34App    1.422187
      35App    1.428219    36App    1.492545    49Ap     1.509520
      37App    1.547158    50Ap     1.547334    51Ap     1.581639
      38App    1.582998    52Ap     1.674671    39App    1.744881
      53Ap     1.745483    54Ap     1.779096    40App    1.835023
      55Ap     1.835485    41App    1.972581    42App    2.024881
      56Ap     2.026023    57Ap     2.039669    58Ap     2.059227
      43App    2.059474    44App    2.746805    59Ap     2.746835
      45App    2.811846    60Ap     2.816065    61Ap     2.902560
      46App    2.902725    62Ap     2.924650    63Ap     2.931653
      47App    2.932302    48App    2.960057    49App    2.968649
      64Ap     2.969189    65Ap     3.041935    66Ap     3.080402
      50App    3.081949    51App    3.086203    52App    3.184212
      67Ap     3.184843    68Ap     3.188270    53App    3.289931
      69Ap     3.290293    54App    3.329933    70Ap     3.332008
      71Ap     3.383439    72Ap     3.491545    55App    3.494232
      56App    3.512374    73Ap     3.528379    57App    3.574853
      74Ap     3.581649    58App    3.581953    75Ap     3.670893
      59App    3.671334    76Ap     3.692945    77Ap     3.725499
      60App    3.726013    61App    3.781263    78Ap     3.781389
      79Ap     3.817706    62App    3.922008    80Ap     3.922081
      81Ap     4.045333    82Ap     4.118047    63App    4.118320
      83Ap     4.155110    64App    4.155553    84Ap     4.187314
      65App    4.208476    85Ap     4.209070    86Ap     4.211096
      66App    4.215311    87Ap     4.322796    67App    4.323999
      68App    4.362396    88Ap     4.432468    69App    4.432877
      70App    4.446319    71App    4.524184    89Ap     4.525013
      90Ap     4.588733    72App    4.589036    91Ap     4.624762
      92Ap     4.719766    93Ap     4.781406    73App    4.781637
      74App    4.839860    94Ap     4.967665    95Ap     5.006911
      75App    5.007081    96Ap     5.233761    97Ap     5.248068
      76App    5.249118    98Ap     5.361752    77App    5.362209
      78App    5.481667

    Final Occupation by Irrep:
             Ap   App
    DOCC [    10,    6 ]
    SOCC [     1,    0 ]

  @DF-UKS Final Energy:  -157.81307009178667

   => Energetics <=

    Nuclear Repulsion Energy =            125.3946067360994192
    One-Electron Energy =                -458.7488829442139036
    Two-Electron Energy =                 195.8483474099495254
    DFT Exchange-Correlation Energy =     -20.3071412936217151
    Empirical Dispersion Energy =           0.0000000000000000
    VV10 Nonlocal Energy =                  0.0000000000000000
    Total Energy =                       -157.8130700917866704

  UHF NO Occupations:
  HONO-2 :    9 Ap 1.9996009
  HONO-1 :   10 Ap 1.9989805
  HONO-0 :   11 Ap 1.0000000
  LUNO+0 :   12 Ap 0.0010195
  LUNO+1 :   13 Ap 0.0003991
  LUNO+2 :   14 Ap 0.0001978
  LUNO+3 :    7App 0.0001973

Computation Completed

Properties will be evaluated at   0.000000,   0.000000,   0.000000 [a0]

Properties computed using the SCF density matrix

  Nuclear Dipole Moment: [e a0]
     X:     0.8272      Y:    -0.0009      Z:    -0.0000

  Electronic Dipole Moment: [e a0]
     X:    -0.7493      Y:     0.0000      Z:     0.0000

  Dipole Moment: [e a0]
     X:     0.0779      Y:    -0.0009      Z:    -0.0000     Total:     0.0779

  Dipole Moment: [D]
     X:     0.1980      Y:    -0.0022      Z:    -0.0000     Total:     0.1980

*** tstop() called on n066 at Fri Nov  5 12:35:52 2021
Module time:
	user time   =     542.54 seconds =       9.04 minutes
	system time =      11.95 seconds =       0.20 minutes
	total time  =        140 seconds =       2.33 minutes
Total time:
	user time   =     542.54 seconds =       9.04 minutes
	system time =      11.95 seconds =       0.20 minutes
	total time  =        140 seconds =       2.33 minutes
Grab this energy -157.81307009178667
    Psi4 stopped on: Friday, 05 November 2021 12:35PM
    Psi4 wall time for execution: 0:02:19.45

*** Psi4 exiting successfully. Buy a developer a beer!
