                               Psi4 1.4a2.dev629

  ==> Input File <==

--------------------------------------------------------------------------
import os
memory 14 GB

molecule {
 C   -0.3251171923   -0.0000034585    0.0053442597
 C    0.0607105005   -1.4014587524   -2.4262860549
 C    0.0604627548    2.8020129101    0.0011067677
 C    0.0604554524   -1.4005491676    2.4269241574
 H    2.0870495299   -1.6409093591   -2.8429205950
 H   -0.7646179991   -0.3908688665   -4.0290040326
 H   -0.7656181162   -3.2926590466   -2.3526693868
 H    2.0871147438    3.2820662169   -0.0009979580
 H   -0.7660661015    3.6826193406    1.6752070787
 H   -0.7643940145    3.6843338910   -1.6766707597
 H    2.0874594869   -1.6412495830    2.8415139830
 H   -0.7646874816   -3.2935899536    2.3514624194
 H   -0.7653594397   -0.3897684850    4.0269901211
units bohr
0 2
}

basis {

assign 6-31g_2dfp_

[ 6-31g_2dfp_ ]

spherical

!----------------------------------------------------------------------
! Basis Set Exchange
! Version v0.8.13
! https://www.basissetexchange.org
!----------------------------------------------------------------------
!   Basis set: 6-31G(2df,p)
! Description: 6-31G(2df,p)
!        Role: orbital
!     Version: 0  (Data from the original Basis Set Exchange)
!----------------------------------------------------------------------

****
H     0
S    3   1.00
     18.7311370              0.03349460
      2.8253937              0.23472695
      0.6401217              0.81375733
S    1   1.00
      0.1612778              1.00000000
P    1   1.00
      1.5000000              1.0000000
P    1   1.00
      0.3750000              1.0000000
****
B     0
S    6   1.00
   2068.8823000              0.0018663
    310.6495700              0.0142515
     70.6830330              0.0695516
     19.8610800              0.2325729
      6.2993048              0.4670787
      2.1270270              0.3634314
SP   3   1.00
      4.7279710             -0.1303938              0.0745976
      1.1903377             -0.1307889              0.3078467
      0.3594117              1.1309444              0.7434568
SP   1   1.00
      0.1267512              1.0000000              1.0000000
D    1   1.00
      0.8020000              1.0000000
D    1   1.00
      0.2005000              1.0000000
F    1   1.00
      0.5000000              1.0000000
****
C     0
S    6   1.00
   3047.5249000              0.0018347
    457.3695100              0.0140373
    103.9486900              0.0688426
     29.2101550              0.2321844
      9.2866630              0.4679413
      3.1639270              0.3623120
SP   3   1.00
      7.8682724             -0.1193324              0.0689991
      1.8812885             -0.1608542              0.3164240
      0.5442493              1.1434564              0.7443083
SP   1   1.00
      0.1687144              1.0000000              1.0000000
D    1   1.00
      1.2520000              1.0000000
D    1   1.00
      0.3130000              1.0000000
F    1   1.00
      0.8000000              1.0000000
****
N     0
S    6   1.00
   4173.5110000              0.0018348
    627.4579000              0.0139950
    142.9021000              0.0685870
     40.2343300              0.2322410
     12.8202100              0.4690700
      4.3904370              0.3604550
SP   3   1.00
     11.6263580             -0.1149610              0.0675800
      2.7162800             -0.1691180              0.3239070
      0.7722180              1.1458520              0.7408950
SP   1   1.00
      0.2120313              1.0000000              1.0000000
D    1   1.00
      1.8260000              1.0000000
D    1   1.00
      0.4565000              1.0000000
F    1   1.00
      1.0000000              1.0000000
****
O     0
S    6   1.00
   5484.6717000              0.0018311
    825.2349500              0.0139501
    188.0469600              0.0684451
     52.9645000              0.2327143
     16.8975700              0.4701930
      5.7996353              0.3585209
SP   3   1.00
     15.5396160             -0.1107775              0.0708743
      3.5999336             -0.1480263              0.3397528
      1.0137618              1.1307670              0.7271586
SP   1   1.00
      0.2700058              1.0000000              1.0000000
D    1   1.00
      2.5840000              1.0000000
D    1   1.00
      0.6460000              1.0000000
F    1   1.00
      1.4000000              1.0000000
****
F     0
S    6   1.00
   7001.7130900              0.0018196169
   1051.3660900              0.0139160796
    239.2856900              0.0684053245
     67.3974453              0.233185760
     21.5199573              0.471267439
      7.40310130             0.356618546
SP   3   1.00
     20.8479528             -0.108506975            0.0716287243
      4.80830834            -0.146451658            0.3459121030
      1.34406986             1.128688580            0.7224699570
SP   1   1.00
      0.358151393            1.0000000              1.0000000
D    1   1.00
      3.5000000              1.0000000
D    1   1.00
      0.8750000              1.0000000
F    1   1.00
      1.8500000              1.0000000
****
Al     0
S    6   1.00
  13983.1000000              0.00194267
   2098.7500000              0.0148599
    477.7050000              0.0728494
    134.3600000              0.2468300
     42.8709000              0.4872580
     14.5189000              0.3234960
SP   6   1.00
    239.6680000             -0.00292619             0.00460285
     57.4419000             -0.0374080              0.0331990
     18.2859000             -0.1144870              0.1362820
      6.5991400              0.1156350              0.3304760
      2.4904900              0.6125950              0.4491460
      0.9445400              0.3937990              0.2657040
SP   3   1.00
      1.2779000             -0.2276060             -0.0175130
      0.3975900              0.00144583             0.2445330
      0.1600950              1.0927900              0.8049340
SP   1   1.00
      0.0556577              1.0000000              1.0000000
D    1   1.00
      0.6500000              1.0000000
D    1   1.00
      0.1625000              1.0000000
F    1   1.00
      0.2500000              1.0000000
****
Si     0
S    6   1.00
  16115.9000000              0.00195948
   2425.5800000              0.01492880
    553.8670000              0.07284780
    156.3400000              0.24613000
     50.0683000              0.48591400
     17.0178000              0.32500200
SP   6   1.00
    292.7180000             -0.00278094             0.00443826
     69.8731000             -0.03571460             0.03266790
     22.3363000             -0.11498500             0.13472100
      8.1503900              0.09356340             0.32867800
      3.1345800              0.60301700             0.44964000
      1.2254300              0.41895900             0.26137200
SP   3   1.00
      1.7273800             -0.24463000            -0.01779510
      0.5729220              0.00431572             0.25353900
      0.2221920              1.09818000             0.80066900
SP   1   1.00
      0.0778369              1.00000000             1.00000000
D    1   1.00
      0.9000000              1.0000000
D    1   1.00
      0.2250000              1.0000000
F    1   1.00
      0.3200000              1.0000000
****
P     0
S    6   1.00
  19413.3000000              0.0018516
   2909.4200000              0.0142062
    661.3640000              0.0699995
    185.7590000              0.2400790
     59.1943000              0.4847620
     20.0310000              0.3352000
SP   6   1.00
    339.4780000             -0.00278217             0.00456462
     81.0101000             -0.0360499              0.03369360
     25.8780000             -0.1166310              0.13975500
      9.4522100              0.0968328              0.33936200
      3.6656600              0.6144180              0.45092100
      1.4674600              0.4037980              0.23858600
SP   3   1.00
      2.1562300             -0.2529230             -0.01776530
      0.7489970              0.0328517              0.27405800
      0.2831450              1.0812500              0.78542100
SP   1   1.00
      0.0998317              1.0000000              1.00000000
D    1   1.00
      1.1000000              1.0000000
D    1   1.00
      0.2750000              1.0000000
F    1   1.00
      0.4500000              1.0000000
****
S     0
S    6   1.00
  21917.1000000              0.0018690
   3301.4900000              0.0142300
    754.1460000              0.0696960
    212.7110000              0.2384870
     67.9896000              0.4833070
     23.0515000              0.3380740
SP   6   1.00
    423.7350000             -0.0023767              0.0040610
    100.7100000             -0.0316930              0.0306810
     32.1599000             -0.1133170              0.1304520
     11.8079000              0.0560900              0.3272050
      4.6311000              0.5922550              0.4528510
      1.8702500              0.4550060              0.2560420
SP   3   1.00
      2.6158400             -0.2503740             -0.0145110
      0.9221670              0.0669570              0.3102630
      0.3412870              1.0545100              0.7544830
SP   1   1.00
      0.1171670              1.0000000              1.0000000
D    1   1.00
      1.3000000              1.0000000
D    1   1.00
      0.3250000              1.0000000
F    1   1.00
      0.5500000              1.0000000
****
Cl     0
S    6   1.00
  25180.1000000              0.0018330
   3780.3500000              0.0140340
    860.4740000              0.0690970
    242.1450000              0.2374520
     77.3349000              0.4830340
     26.2470000              0.3398560
SP   6   1.00
    491.7650000             -0.0022974              0.0039894
    116.9840000             -0.0307140              0.0303180
     37.4153000             -0.1125280              0.1298800
     13.7834000              0.0450160              0.3279510
      5.4521500              0.5893530              0.4535270
      2.2258800              0.4652060              0.2521540
SP   3   1.00
      3.1864900             -0.2518300             -0.0142990
      1.1442700              0.0615890              0.3235720
      0.4203770              1.0601800              0.7435070
SP   1   1.00
      0.1426570              1.0000000              1.0000000
D    1   1.00
      1.5000000              1.0000000
D    1   1.00
      0.3750000              1.0000000
F    1   1.00
      0.7000000              1.0000000
****
}

set {
reference uhf
freeze_core true
e_convergence 10
d_convergence 10
dft_spherical_points 1202
dft_radial_points 99
}

e = energy('b3lyp')

print_out('Grab this energy {0}'.format(e))
--------------------------------------------------------------------------

    Molecular point group: c1

    Geometry (in Bohr), charge = 0, multiplicity = 2:

       Center              X                  Y                   Z               Mass
    ------------   -----------------  -----------------  -----------------  -----------------
         C           -0.324452986411    -0.000003324134     0.003978842221    12.000000000000
         C            0.061374706389    -1.401458618034    -2.427651472379    12.000000000000
         C            0.061126960689     2.802013044466    -0.000258649779    12.000000000000
         C            0.061119658289    -1.400549033234     2.425558739921    12.000000000000
         H            2.087713735789    -1.640909224734    -2.844286012479     1.007825032230
         H           -0.763953793211    -0.390868732134    -4.030369450079     1.007825032230
         H           -0.764953910311    -3.292658912234    -2.354034804279     1.007825032230
         H            2.087778949689     3.282066351266    -0.002363375479     1.007825032230
         H           -0.765401895611     3.682619474966     1.673841661221     1.007825032230
         H           -0.763729808611     3.684334025366    -1.678036177179     1.007825032230
         H            2.088123692789    -1.641249448634     2.840148565521     1.007825032230
         H           -0.764023275711    -3.293589819234     2.350097001921     1.007825032230
         H           -0.764695233811    -0.389768350634     4.025624703621     1.007825032230

  Charge       = 0
  Multiplicity = 2
  Basis Set: ANONYMOUS67AE9107
    Blend: 6-31G_2DFP_
  Basis Set: (ANONYMOUS67AE9107 AUX)
    Blend: DEF2-UNIVERSAL-JKFIT

    Orbital Energies [Eh]
    ---------------------

    Alpha Occupied:

       1A    -10.180355     2A    -10.167098     3A    -10.167066
       4A    -10.167020     5A     -0.797705     6A     -0.686338
       7A     -0.685960     8A     -0.530764     9A     -0.441300
      10A     -0.434671    11A     -0.434245    12A     -0.382868
      13A     -0.382639    14A     -0.363470    15A     -0.338495
      16A     -0.337454    17A     -0.168870

    Alpha Virtual:

      18A      0.076036    19A      0.134191    20A      0.134219
      21A      0.142381    22A      0.142734    23A      0.154673
      24A      0.178811    25A      0.178822    26A      0.203411
      27A      0.214582    28A      0.275657    29A      0.276235
      30A      0.398880    31A      0.399126    32A      0.403419
      33A      0.424249    34A      0.424250    35A      0.456357
      36A      0.495363    37A      0.495461    38A      0.512350
      39A      0.513922    40A      0.578444    41A      0.578858
      42A      0.591828    43A      0.591859    44A      0.602805
      45A      0.624689    46A      0.631523    47A      0.636009
      48A      0.636313    49A      0.663070    50A      0.663203
      51A      0.683887    52A      0.683986    53A      0.734909
      54A      0.825398    55A      0.825613    56A      0.853575
      57A      0.914767    58A      0.914993    59A      0.943905
      60A      0.945414    61A      0.961395    62A      0.961747
      63A      1.002725    64A      1.127394    65A      1.127884
      66A      1.142849    67A      1.162329    68A      1.163105
      69A      1.223410    70A      1.274051    71A      1.274976
      72A      1.279136    73A      1.323985    74A      1.324168
      75A      1.356409    76A      1.365468    77A      1.366006
      78A      1.392630    79A      1.404251    80A      1.404379
      81A      1.416942    82A      1.417591    83A      1.427310
      84A      1.490892    85A      1.499394    86A      1.542765
      87A      1.542770    88A      1.575047    89A      1.575095
      90A      1.669760    91A      1.739356    92A      1.739763
      93A      1.768461    94A      1.830854    95A      1.831371
      96A      1.971636    97A      2.017626    98A      2.018509
      99A      2.018787   100A      2.051642   101A      2.052696
     102A      2.738663   103A      2.739144   104A      2.790700
     105A      2.810908   106A      2.889227   107A      2.890351
     108A      2.894688   109A      2.928656   110A      2.929423
     111A      2.958931   112A      2.964177   113A      2.964478
     114A      3.033522   115A      3.071254   116A      3.072278
     117A      3.084707   118A      3.168749   119A      3.168897
     120A      3.180499   121A      3.285417   122A      3.286015
     123A      3.325670   124A      3.326426   125A      3.375891
     126A      3.490118   127A      3.491156   128A      3.513749
     129A      3.525163   130A      3.567612   131A      3.568091
     132A      3.574335   133A      3.666125   134A      3.666746
     135A      3.678563   136A      3.694604   137A      3.694665
     138A      3.774903   139A      3.776372   140A      3.790478
     141A      3.911670   142A      3.912588   143A      4.035553
     144A      4.110930   145A      4.111561   146A      4.147368
     147A      4.149335   148A      4.173315   149A      4.201675
     150A      4.202481   151A      4.203417   152A      4.210379
     153A      4.315117   154A      4.316220   155A      4.357800
     156A      4.424898   157A      4.425006   158A      4.442454
     159A      4.515866   160A      4.516161   161A      4.576954
     162A      4.577368   163A      4.617298   164A      4.709179
     165A      4.773677   166A      4.774785   167A      4.837908
     168A      4.962306   169A      5.002836   170A      5.003347
     171A      5.227690   172A      5.246846   173A      5.246903
     174A      5.354371   175A      5.355484   176A      5.479083

    Beta Occupied:

       1A    -10.167849     2A    -10.167822     3A    -10.167789
       4A    -10.166527     5A     -0.781027     6A     -0.684130
       7A     -0.683777     8A     -0.511739     9A     -0.431052
      10A     -0.430632    11A     -0.421982    12A     -0.376923
      13A     -0.376775    14A     -0.362460    15A     -0.333624
      16A     -0.332564

    Beta Virtual:

      17A     -0.025576    18A      0.077049    19A      0.135076
      20A      0.135083    21A      0.144252    22A      0.144584
      23A      0.163084    24A      0.182477    25A      0.182512
      26A      0.214809    27A      0.218833    28A      0.282050
      29A      0.282559    30A      0.400047    31A      0.400287
      32A      0.419844    33A      0.427055    34A      0.427077
      35A      0.468187    36A      0.497607    37A      0.497710
      38A      0.514080    39A      0.556349    40A      0.583956
      41A      0.584411    42A      0.598042    43A      0.598050
      44A      0.610209    45A      0.628061    46A      0.631674
      47A      0.639290    48A      0.639622    49A      0.666616
      50A      0.666737    51A      0.686540    52A      0.686642
      53A      0.757468    54A      0.830555    55A      0.830762
      56A      0.854925    57A      0.922666    58A      0.922944
      59A      0.945742    60A      0.954261    61A      0.966720
      62A      0.967087    63A      1.007936    64A      1.131453
      65A      1.131895    66A      1.156430    67A      1.167415
      68A      1.168178    69A      1.232277    70A      1.279683
      71A      1.280503    72A      1.284822    73A      1.328947
      74A      1.329107    75A      1.365883    76A      1.370767
      77A      1.371209    78A      1.393673    79A      1.407647
      80A      1.407880    81A      1.422052    82A      1.422684
      83A      1.427579    84A      1.491952    85A      1.509861
      86A      1.547176    87A      1.547186    88A      1.582928
      89A      1.582937    90A      1.674605    91A      1.745112
      92A      1.745526    93A      1.779227    94A      1.834697
      95A      1.835243    96A      1.972487    97A      2.024017
      98A      2.025133    99A      2.039871   100A      2.058387
     101A      2.059415   102A      2.746957   103A      2.747500
     104A      2.811315   105A      2.815831   106A      2.902069
     107A      2.903018   108A      2.924409   109A      2.931069
     110A      2.931944   111A      2.959991   112A      2.968685
     113A      2.968982   114A      3.041465   115A      3.081254
     116A      3.082122   117A      3.086521   118A      3.184423
     119A      3.184619   120A      3.188285   121A      3.290280
     122A      3.290795   123A      3.329498   124A      3.330256
     125A      3.383736   126A      3.492769   127A      3.493825
     128A      3.512111   129A      3.528246   130A      3.574201
     131A      3.581059   132A      3.581450   133A      3.671042
     134A      3.671505   135A      3.691916   136A      3.725956
     137A      3.726258   138A      3.779383   139A      3.780837
     140A      3.818971   141A      3.921538   142A      3.922454
     143A      4.046387   144A      4.117700   145A      4.118246
     146A      4.154682   147A      4.156591   148A      4.187410
     149A      4.207747   150A      4.208580   151A      4.211109
     152A      4.214825   153A      4.322479   154A      4.323708
     155A      4.361141   156A      4.433108   157A      4.433207
     158A      4.445367   159A      4.523622   160A      4.524013
     161A      4.587516   162A      4.587944   163A      4.624589
     164A      4.719419   165A      4.780608   166A      4.781789
     167A      4.840821   168A      4.967101   169A      5.006876
     170A      5.007357   171A      5.233421   172A      5.248631
     173A      5.248678   174A      5.360824   175A      5.361989
     176A      5.481399

    Final Occupation by Irrep:
              A
    DOCC [    16 ]
    SOCC [     1 ]

  @DF-UKS Final Energy:  -157.81305441232780

   => Energetics <=

    Nuclear Repulsion Energy =            125.3830956581662122
    One-Electron Energy =                -458.7263801798150098
    Two-Electron Energy =                 195.8370306303909274
    DFT Exchange-Correlation Energy =     -20.3068005210699418
    Empirical Dispersion Energy =           0.0000000000000000
    VV10 Nonlocal Energy =                  0.0000000000000000
    Total Energy =                       -157.8130544123278014

  UHF NO Occupations:
  HONO-2 :   15  A 1.9996022
  HONO-1 :   16  A 1.9989785
  HONO-0 :   17  A 1.0000000
  LUNO+0 :   18  A 0.0010215
  LUNO+1 :   19  A 0.0003978
  LUNO+2 :   20  A 0.0001989
  LUNO+3 :   21  A 0.0001968

Computation Completed

Properties will be evaluated at   0.000000,   0.000000,   0.000000 [a0]

Properties computed using the SCF density matrix

  Nuclear Dipole Moment: [e a0]
     X:     0.8319      Y:    -0.0000      Z:    -0.0096

  Electronic Dipole Moment: [e a0]
     X:    -0.7535      Y:     0.0000      Z:     0.0108

  Dipole Moment: [e a0]
     X:     0.0783      Y:     0.0000      Z:     0.0012     Total:     0.0783

  Dipole Moment: [D]
     X:     0.1991      Y:     0.0000      Z:     0.0031     Total:     0.1991

*** tstop() called on n091 at Fri Nov  5 13:59:22 2021
Module time:
	user time   =     493.25 seconds =       8.22 minutes
	system time =       4.58 seconds =       0.08 minutes
	total time  =        125 seconds =       2.08 minutes
Total time:
	user time   =     493.25 seconds =       8.22 minutes
	system time =       4.58 seconds =       0.08 minutes
	total time  =        125 seconds =       2.08 minutes
Grab this energy -157.8130544123278
    Psi4 stopped on: Friday, 05 November 2021 01:59PM
    Psi4 wall time for execution: 0:02:05.17

*** Psi4 exiting successfully. Buy a developer a beer!
