                               Psi4 1.4a2.dev629

  ==> Input File <==

--------------------------------------------------------------------------
import os
memory 14 GB

molecule {
 C   -0.3223163808   -0.0000020148   -0.0000000000
 C    0.0621995156   -1.4008006935   -2.4262476689
 C    0.0620797853    2.8016058227    0.0000000000
 C    0.0621995156   -1.4008006935    2.4262476689
 H    2.0836260422   -1.6438865181   -2.8470760025
 H   -0.7644498088   -0.3863114121   -4.0268759432
 H   -0.7646137816   -3.2941627271   -2.3480308211
 H    2.0834869362    3.2876811933    0.0000000000
 H   -0.7646910762    3.6805066934    1.6788517972
 H   -0.7646910762    3.6805066934   -1.6788517972
 H    2.0836260422   -1.6438865181    2.8470760025
 H   -0.7646137816   -3.2941627271    2.3480308211
 H   -0.7644498088   -0.3863114121    4.0268759432
units bohr
0 2
}

basis {

assign 6-31g_2dfp_

[ 6-31g_2dfp_ ]

spherical

!----------------------------------------------------------------------
! Basis Set Exchange
! Version v0.8.13
! https://www.basissetexchange.org
!----------------------------------------------------------------------
!   Basis set: 6-31G(2df,p)
! Description: 6-31G(2df,p)
!        Role: orbital
!     Version: 0  (Data from the original Basis Set Exchange)
!----------------------------------------------------------------------

****
H     0
S    3   1.00
     18.7311370              0.03349460
      2.8253937              0.23472695
      0.6401217              0.81375733
S    1   1.00
      0.1612778              1.00000000
P    1   1.00
      1.5000000              1.0000000
P    1   1.00
      0.3750000              1.0000000
****
B     0
S    6   1.00
   2068.8823000              0.0018663
    310.6495700              0.0142515
     70.6830330              0.0695516
     19.8610800              0.2325729
      6.2993048              0.4670787
      2.1270270              0.3634314
SP   3   1.00
      4.7279710             -0.1303938              0.0745976
      1.1903377             -0.1307889              0.3078467
      0.3594117              1.1309444              0.7434568
SP   1   1.00
      0.1267512              1.0000000              1.0000000
D    1   1.00
      0.8020000              1.0000000
D    1   1.00
      0.2005000              1.0000000
F    1   1.00
      0.5000000              1.0000000
****
C     0
S    6   1.00
   3047.5249000              0.0018347
    457.3695100              0.0140373
    103.9486900              0.0688426
     29.2101550              0.2321844
      9.2866630              0.4679413
      3.1639270              0.3623120
SP   3   1.00
      7.8682724             -0.1193324              0.0689991
      1.8812885             -0.1608542              0.3164240
      0.5442493              1.1434564              0.7443083
SP   1   1.00
      0.1687144              1.0000000              1.0000000
D    1   1.00
      1.2520000              1.0000000
D    1   1.00
      0.3130000              1.0000000
F    1   1.00
      0.8000000              1.0000000
****
N     0
S    6   1.00
   4173.5110000              0.0018348
    627.4579000              0.0139950
    142.9021000              0.0685870
     40.2343300              0.2322410
     12.8202100              0.4690700
      4.3904370              0.3604550
SP   3   1.00
     11.6263580             -0.1149610              0.0675800
      2.7162800             -0.1691180              0.3239070
      0.7722180              1.1458520              0.7408950
SP   1   1.00
      0.2120313              1.0000000              1.0000000
D    1   1.00
      1.8260000              1.0000000
D    1   1.00
      0.4565000              1.0000000
F    1   1.00
      1.0000000              1.0000000
****
O     0
S    6   1.00
   5484.6717000              0.0018311
    825.2349500              0.0139501
    188.0469600              0.0684451
     52.9645000              0.2327143
     16.8975700              0.4701930
      5.7996353              0.3585209
SP   3   1.00
     15.5396160             -0.1107775              0.0708743
      3.5999336             -0.1480263              0.3397528
      1.0137618              1.1307670              0.7271586
SP   1   1.00
      0.2700058              1.0000000              1.0000000
D    1   1.00
      2.5840000              1.0000000
D    1   1.00
      0.6460000              1.0000000
F    1   1.00
      1.4000000              1.0000000
****
F     0
S    6   1.00
   7001.7130900              0.0018196169
   1051.3660900              0.0139160796
    239.2856900              0.0684053245
     67.3974453              0.233185760
     21.5199573              0.471267439
      7.40310130             0.356618546
SP   3   1.00
     20.8479528             -0.108506975            0.0716287243
      4.80830834            -0.146451658            0.3459121030
      1.34406986             1.128688580            0.7224699570
SP   1   1.00
      0.358151393            1.0000000              1.0000000
D    1   1.00
      3.5000000              1.0000000
D    1   1.00
      0.8750000              1.0000000
F    1   1.00
      1.8500000              1.0000000
****
Al     0
S    6   1.00
  13983.1000000              0.00194267
   2098.7500000              0.0148599
    477.7050000              0.0728494
    134.3600000              0.2468300
     42.8709000              0.4872580
     14.5189000              0.3234960
SP   6   1.00
    239.6680000             -0.00292619             0.00460285
     57.4419000             -0.0374080              0.0331990
     18.2859000             -0.1144870              0.1362820
      6.5991400              0.1156350              0.3304760
      2.4904900              0.6125950              0.4491460
      0.9445400              0.3937990              0.2657040
SP   3   1.00
      1.2779000             -0.2276060             -0.0175130
      0.3975900              0.00144583             0.2445330
      0.1600950              1.0927900              0.8049340
SP   1   1.00
      0.0556577              1.0000000              1.0000000
D    1   1.00
      0.6500000              1.0000000
D    1   1.00
      0.1625000              1.0000000
F    1   1.00
      0.2500000              1.0000000
****
Si     0
S    6   1.00
  16115.9000000              0.00195948
   2425.5800000              0.01492880
    553.8670000              0.07284780
    156.3400000              0.24613000
     50.0683000              0.48591400
     17.0178000              0.32500200
SP   6   1.00
    292.7180000             -0.00278094             0.00443826
     69.8731000             -0.03571460             0.03266790
     22.3363000             -0.11498500             0.13472100
      8.1503900              0.09356340             0.32867800
      3.1345800              0.60301700             0.44964000
      1.2254300              0.41895900             0.26137200
SP   3   1.00
      1.7273800             -0.24463000            -0.01779510
      0.5729220              0.00431572             0.25353900
      0.2221920              1.09818000             0.80066900
SP   1   1.00
      0.0778369              1.00000000             1.00000000
D    1   1.00
      0.9000000              1.0000000
D    1   1.00
      0.2250000              1.0000000
F    1   1.00
      0.3200000              1.0000000
****
P     0
S    6   1.00
  19413.3000000              0.0018516
   2909.4200000              0.0142062
    661.3640000              0.0699995
    185.7590000              0.2400790
     59.1943000              0.4847620
     20.0310000              0.3352000
SP   6   1.00
    339.4780000             -0.00278217             0.00456462
     81.0101000             -0.0360499              0.03369360
     25.8780000             -0.1166310              0.13975500
      9.4522100              0.0968328              0.33936200
      3.6656600              0.6144180              0.45092100
      1.4674600              0.4037980              0.23858600
SP   3   1.00
      2.1562300             -0.2529230             -0.01776530
      0.7489970              0.0328517              0.27405800
      0.2831450              1.0812500              0.78542100
SP   1   1.00
      0.0998317              1.0000000              1.00000000
D    1   1.00
      1.1000000              1.0000000
D    1   1.00
      0.2750000              1.0000000
F    1   1.00
      0.4500000              1.0000000
****
S     0
S    6   1.00
  21917.1000000              0.0018690
   3301.4900000              0.0142300
    754.1460000              0.0696960
    212.7110000              0.2384870
     67.9896000              0.4833070
     23.0515000              0.3380740
SP   6   1.00
    423.7350000             -0.0023767              0.0040610
    100.7100000             -0.0316930              0.0306810
     32.1599000             -0.1133170              0.1304520
     11.8079000              0.0560900              0.3272050
      4.6311000              0.5922550              0.4528510
      1.8702500              0.4550060              0.2560420
SP   3   1.00
      2.6158400             -0.2503740             -0.0145110
      0.9221670              0.0669570              0.3102630
      0.3412870              1.0545100              0.7544830
SP   1   1.00
      0.1171670              1.0000000              1.0000000
D    1   1.00
      1.3000000              1.0000000
D    1   1.00
      0.3250000              1.0000000
F    1   1.00
      0.5500000              1.0000000
****
Cl     0
S    6   1.00
  25180.1000000              0.0018330
   3780.3500000              0.0140340
    860.4740000              0.0690970
    242.1450000              0.2374520
     77.3349000              0.4830340
     26.2470000              0.3398560
SP   6   1.00
    491.7650000             -0.0022974              0.0039894
    116.9840000             -0.0307140              0.0303180
     37.4153000             -0.1125280              0.1298800
     13.7834000              0.0450160              0.3279510
      5.4521500              0.5893530              0.4535270
      2.2258800              0.4652060              0.2521540
SP   3   1.00
      3.1864900             -0.2518300             -0.0142990
      1.1442700              0.0615890              0.3235720
      0.4203770              1.0601800              0.7435070
SP   1   1.00
      0.1426570              1.0000000              1.0000000
D    1   1.00
      1.5000000              1.0000000
D    1   1.00
      0.3750000              1.0000000
F    1   1.00
      0.7000000              1.0000000
****
}

set {
reference uhf
freeze_core true
e_convergence 10
d_convergence 10
dft_spherical_points 1202
dft_radial_points 99
}

e = energy('b3lyp')

print_out('Grab this energy {0}'.format(e))
--------------------------------------------------------------------------

    Molecular point group: cs

    Geometry (in Bohr), charge = 0, multiplicity = 2:

       Center              X                  Y                   Z               Mass
    ------------   -----------------  -----------------  -----------------  -----------------
         C           -0.323125797262    -0.000002051721     0.000000000000    12.000000000000
         C            0.061390099138    -1.400800730421    -2.426247668900    12.000000000000
         C            0.061270368838     2.801605785779     0.000000000000    12.000000000000
         C            0.061390099138    -1.400800730421     2.426247668900    12.000000000000
         H            2.082816625738    -1.643886555021    -2.847076002500     1.007825032230
         H           -0.765259225262    -0.386311449021    -4.026875943200     1.007825032230
         H           -0.765423198062    -3.294162764021    -2.348030821100     1.007825032230
         H            2.082677519738     3.287681156379     0.000000000000     1.007825032230
         H           -0.765500492662     3.680506656479     1.678851797200     1.007825032230
         H           -0.765500492662     3.680506656479    -1.678851797200     1.007825032230
         H            2.082816625738    -1.643886555021     2.847076002500     1.007825032230
         H           -0.765423198062    -3.294162764021     2.348030821100     1.007825032230
         H           -0.765259225262    -0.386311449021     4.026875943200     1.007825032230

  Charge       = 0
  Multiplicity = 2
  Basis Set: ANONYMOUSF51EEC06
    Blend: 6-31G_2DFP_
  Basis Set: (ANONYMOUSF51EEC06 AUX)
    Blend: DEF2-UNIVERSAL-JKFIT

    Orbital Energies [Eh]
    ---------------------

    Alpha Occupied:

       1Ap   -10.180284     2Ap   -10.167027     1App  -10.167027
       3Ap   -10.166981     4Ap    -0.797804     5Ap    -0.686194
       2App   -0.686193     6Ap    -0.530787     7Ap    -0.441219
       3App   -0.434628     8Ap    -0.434628     9Ap    -0.382735
       4App   -0.382734     5App   -0.363433     6App   -0.337946
      10Ap    -0.337946    11Ap    -0.168924

    Alpha Virtual:

      12Ap     0.075987    13Ap     0.134148     7App    0.134149
      14Ap     0.142563     8App    0.142563    15Ap     0.155045
      16Ap     0.178956     9App    0.178957    17Ap     0.203589
      10App    0.214529    11App    0.276010    18Ap     0.276011
      19Ap     0.399346    12App    0.399351    20Ap     0.403427
      13App    0.423908    21Ap     0.423909    22Ap     0.456670
      23Ap     0.495211    14App    0.495211    15App    0.512279
      24Ap     0.514133    25Ap     0.578977    16App    0.578985
      17App    0.591903    26Ap     0.591905    27Ap     0.603323
      28Ap     0.624261    18App    0.631389    19App    0.635872
      29Ap     0.635876    30Ap     0.663908    20App    0.663908
      31Ap     0.683603    21App    0.683604    32Ap     0.734933
      22App    0.825437    33Ap     0.825440    23App    0.854195
      24App    0.915245    34Ap     0.915251    25App    0.943840
      35Ap     0.944470    26App    0.961385    36Ap     0.961402
      37Ap     1.003640    38Ap     1.127856    27App    1.127869
      39Ap     1.142941    40Ap     1.162995    28App    1.163007
      41Ap     1.222911    42Ap     1.274732    29App    1.274735
      43Ap     1.279514    30App    1.324565    44Ap     1.324568
      45Ap     1.355454    31App    1.366116    46Ap     1.366120
      32App    1.392504    47Ap     1.405071    33App    1.405073
      34App    1.416137    48Ap     1.416144    35App    1.428122
      36App    1.491514    49Ap     1.500031    37App    1.543202
      50Ap     1.543204    51Ap     1.574072    38App    1.574074
      52Ap     1.668559    53Ap     1.740264    39App    1.740276
      54Ap     1.770167    40App    1.829997    55Ap     1.829997
      41App    1.970708    56Ap     2.018397    57Ap     2.018936
      42App    2.018940    43App    2.054009    58Ap     2.054010
      44App    2.738167    59Ap     2.738168    60Ap     2.791317
      45App    2.810970    61Ap     2.890329    46App    2.890335
      62Ap     2.895273    63Ap     2.929284    47App    2.929292
      48App    2.959133    64Ap     2.964794    49App    2.964809
      65Ap     3.034709    50App    3.071310    66Ap     3.071324
      51App    3.082954    67Ap     3.168905    52App    3.168912
      68Ap     3.180638    53App    3.285413    69Ap     3.285413
      70Ap     3.326529    54App    3.326535    71Ap     3.375438
      55App    3.490388    72Ap     3.490409    56App    3.515229
      73Ap     3.524144    57App    3.568781    74Ap     3.568801
      58App    3.575973    75Ap     3.666764    59App    3.666772
      76Ap     3.679039    60App    3.693930    77Ap     3.693945
      78Ap     3.776372    61App    3.776398    79Ap     3.789903
      80Ap     3.911664    62App    3.911671    81Ap     4.033986
      82Ap     4.111405    63App    4.111409    83Ap     4.148691
      64App    4.148699    84Ap     4.174915    65App    4.202235
      85Ap     4.202238    86Ap     4.202801    66App    4.211980
      87Ap     4.316421    67App    4.316441    68App    4.357764
      88Ap     4.425186    69App    4.425189    70App    4.443198
      71App    4.517498    89Ap     4.517500    72App    4.577585
      90Ap     4.577598    91Ap     4.617626    92Ap     4.710006
      93Ap     4.774477    73App    4.774484    74App    4.835533
      94Ap     4.962559    75App    5.004247    95Ap     5.004260
      96Ap     5.230795    76App    5.243808    97Ap     5.243809
      98Ap     5.357489    77App    5.357502    78App    5.477401

    Beta Occupied:

       1Ap   -10.167779     1App  -10.167778     2Ap   -10.167752
       3Ap   -10.166455     4Ap    -0.781122     5Ap    -0.683984
       2App   -0.683984     6Ap    -0.511709     3App   -0.430974
       7Ap    -0.430974     8Ap    -0.421976     9Ap    -0.376846
       4App   -0.376844     5App   -0.362408     6App   -0.333072
      10Ap    -0.333072

    Beta Virtual:

      11Ap    -0.025615    12Ap     0.076980    13Ap     0.134971
       7App    0.134971    14Ap     0.144455     8App    0.144456
      15Ap     0.163484    16Ap     0.182655     9App    0.182656
      10App    0.214765    17Ap     0.218973    11App    0.282353
      18Ap     0.282355    19Ap     0.400513    12App    0.400517
      20Ap     0.419779    13App    0.426720    21Ap     0.426720
      22Ap     0.468677    23Ap     0.497462    14App    0.497463
      15App    0.514006    24Ap     0.556517    25Ap     0.584499
      16App    0.584507    17App    0.598092    26Ap     0.598093
      27Ap     0.610608    28Ap     0.627777    18App    0.631545
      19App    0.639197    29Ap     0.639201    30Ap     0.667441
      20App    0.667441    31Ap     0.686250    21App    0.686252
      32Ap     0.757460    22App    0.830585    33Ap     0.830587
      23App    0.855540    24App    0.923198    34Ap     0.923205
      25App    0.945684    35Ap     0.953350    26App    0.966726
      36Ap     0.966742    37Ap     1.008919    38Ap     1.131848
      27App    1.131860    39Ap     1.156241    40Ap     1.168092
      28App    1.168105    41Ap     1.231900    42Ap     1.280351
      29App    1.280355    43Ap     1.285324    30App    1.329508
      44Ap     1.329509    45Ap     1.364891    31App    1.371291
      46Ap     1.371295    32App    1.393545    47Ap     1.408585
      33App    1.408588    34App    1.421227    48Ap     1.421234
      35App    1.428382    36App    1.492588    49Ap     1.510467
      50Ap     1.547577    37App    1.547578    38App    1.581962
      51Ap     1.581963    52Ap     1.673356    53Ap     1.746031
      39App    1.746042    54Ap     1.780960    40App    1.833851
      55Ap     1.833851    41App    1.971580    56Ap     2.025479
      42App    2.025483    57Ap     2.039778    43App    2.060602
      58Ap     2.060603    44App    2.746494    59Ap     2.746495
      45App    2.811379    60Ap     2.816490    61Ap     2.903043
      46App    2.903049    62Ap     2.925182    63Ap     2.931761
      47App    2.931770    48App    2.960198    64Ap     2.969374
      49App    2.969388    65Ap     3.042432    50App    3.081234
      66Ap     3.081246    51App    3.084770    67Ap     3.184645
      52App    3.184649    68Ap     3.188327    69Ap     3.290180
      53App    3.290180    70Ap     3.330371    54App    3.330376
      71Ap     3.383283    55App    3.493159    72Ap     3.493179
      56App    3.513594    73Ap     3.527203    57App    3.575840
      58App    3.581946    74Ap     3.581968    75Ap     3.671607
      59App    3.671618    76Ap     3.692359    60App    3.725560
      77Ap     3.725576    78Ap     3.780965    61App    3.780991
      79Ap     3.818423    80Ap     3.921423    62App    3.921431
      81Ap     4.044812    82Ap     4.118218    63App    4.118219
      83Ap     4.155906    64App    4.155915    84Ap     4.188949
      65App    4.208061    85Ap     4.208064    86Ap     4.210834
      66App    4.216330    87Ap     4.323921    67App    4.323942
      68App    4.361170    88Ap     4.433403    69App    4.433406
      70App    4.446128    71App    4.525254    89Ap     4.525256
      72App    4.588229    90Ap     4.588241    91Ap     4.624912
      92Ap     4.720233    93Ap     4.781480    73App    4.781487
      74App    4.838461    94Ap     4.967343    75App    5.008261
      95Ap     5.008274    96Ap     5.236545    76App    5.245606
      97Ap     5.245607    98Ap     5.363996    77App    5.364009
      78App    5.479734

    Final Occupation by Irrep:
             Ap   App
    DOCC [    10,    6 ]
    SOCC [     1,    0 ]

  @DF-UKS Final Energy:  -157.81306037621204

   => Energetics <=

    Nuclear Repulsion Energy =            125.3999877969044974
    One-Electron Energy =                -458.7596351873462481
    Two-Electron Energy =                 195.8538433762923603
    DFT Exchange-Correlation Energy =     -20.3072563620626489
    Empirical Dispersion Energy =           0.0000000000000000
    VV10 Nonlocal Energy =                  0.0000000000000000
    Total Energy =                       -157.8130603762120359

  UHF NO Occupations:
  HONO-2 :    9 Ap 1.9996032
  HONO-1 :   10 Ap 1.9989813
  HONO-0 :   11 Ap 1.0000000
  LUNO+0 :   12 Ap 0.0010187
  LUNO+1 :   13 Ap 0.0003968
  LUNO+2 :    7App 0.0001975
  LUNO+3 :   14 Ap 0.0001975

Computation Completed

Properties will be evaluated at   0.000000,   0.000000,   0.000000 [a0]

Properties computed using the SCF density matrix

  Nuclear Dipole Moment: [e a0]
     X:     0.8215      Y:    -0.0000      Z:     0.0000

  Electronic Dipole Moment: [e a0]
     X:    -0.7404      Y:     0.0000      Z:     0.0000

  Dipole Moment: [e a0]
     X:     0.0811      Y:     0.0000      Z:     0.0000     Total:     0.0811

  Dipole Moment: [D]
     X:     0.2061      Y:     0.0000      Z:     0.0000     Total:     0.2061

*** tstop() called on n032 at Fri Nov  5 14:47:32 2021
Module time:
	user time   =     640.17 seconds =      10.67 minutes
	system time =      12.12 seconds =       0.20 minutes
	total time  =        164 seconds =       2.73 minutes
Total time:
	user time   =     640.17 seconds =      10.67 minutes
	system time =      12.12 seconds =       0.20 minutes
	total time  =        164 seconds =       2.73 minutes
Grab this energy -157.81306037621204
    Psi4 stopped on: Friday, 05 November 2021 02:47PM
    Psi4 wall time for execution: 0:02:43.98

*** Psi4 exiting successfully. Buy a developer a beer!
