                               Psi4 1.4a2.dev629

  ==> Input File <==

--------------------------------------------------------------------------
import os
memory 14 GB

molecule {
 C   -0.3218902087   -0.0000015050    0.0002246459
 C    0.0604277728   -1.4021159951   -2.4280433637
 C    0.0601643386    2.8018540698    0.0004832076
 C    0.0601400496   -1.3997325725    2.4248810726
 H    2.0870551864   -1.6436988430   -2.8469360297
 H   -0.7653247527   -0.3877306360   -4.0251008945
 H   -0.7655495545   -3.2918410625   -2.3484300640
 H    2.0868489470    3.2880590606   -0.0001852856
 H   -0.7655469865    3.6802673768    1.6764640911
 H   -0.7654237752    3.6802437919   -1.6766486572
 H    2.0869161810   -1.6444534736    2.8478727317
 H   -0.7652633506   -3.2922547102    2.3494975200
 H   -0.7651617240   -0.3886198148    4.0259210257
units bohr
0 2
}

basis {

assign 6-31g_2dfp_

[ 6-31g_2dfp_ ]

spherical

!----------------------------------------------------------------------
! Basis Set Exchange
! Version v0.8.13
! https://www.basissetexchange.org
!----------------------------------------------------------------------
!   Basis set: 6-31G(2df,p)
! Description: 6-31G(2df,p)
!        Role: orbital
!     Version: 0  (Data from the original Basis Set Exchange)
!----------------------------------------------------------------------

****
H     0
S    3   1.00
     18.7311370              0.03349460
      2.8253937              0.23472695
      0.6401217              0.81375733
S    1   1.00
      0.1612778              1.00000000
P    1   1.00
      1.5000000              1.0000000
P    1   1.00
      0.3750000              1.0000000
****
B     0
S    6   1.00
   2068.8823000              0.0018663
    310.6495700              0.0142515
     70.6830330              0.0695516
     19.8610800              0.2325729
      6.2993048              0.4670787
      2.1270270              0.3634314
SP   3   1.00
      4.7279710             -0.1303938              0.0745976
      1.1903377             -0.1307889              0.3078467
      0.3594117              1.1309444              0.7434568
SP   1   1.00
      0.1267512              1.0000000              1.0000000
D    1   1.00
      0.8020000              1.0000000
D    1   1.00
      0.2005000              1.0000000
F    1   1.00
      0.5000000              1.0000000
****
C     0
S    6   1.00
   3047.5249000              0.0018347
    457.3695100              0.0140373
    103.9486900              0.0688426
     29.2101550              0.2321844
      9.2866630              0.4679413
      3.1639270              0.3623120
SP   3   1.00
      7.8682724             -0.1193324              0.0689991
      1.8812885             -0.1608542              0.3164240
      0.5442493              1.1434564              0.7443083
SP   1   1.00
      0.1687144              1.0000000              1.0000000
D    1   1.00
      1.2520000              1.0000000
D    1   1.00
      0.3130000              1.0000000
F    1   1.00
      0.8000000              1.0000000
****
N     0
S    6   1.00
   4173.5110000              0.0018348
    627.4579000              0.0139950
    142.9021000              0.0685870
     40.2343300              0.2322410
     12.8202100              0.4690700
      4.3904370              0.3604550
SP   3   1.00
     11.6263580             -0.1149610              0.0675800
      2.7162800             -0.1691180              0.3239070
      0.7722180              1.1458520              0.7408950
SP   1   1.00
      0.2120313              1.0000000              1.0000000
D    1   1.00
      1.8260000              1.0000000
D    1   1.00
      0.4565000              1.0000000
F    1   1.00
      1.0000000              1.0000000
****
O     0
S    6   1.00
   5484.6717000              0.0018311
    825.2349500              0.0139501
    188.0469600              0.0684451
     52.9645000              0.2327143
     16.8975700              0.4701930
      5.7996353              0.3585209
SP   3   1.00
     15.5396160             -0.1107775              0.0708743
      3.5999336             -0.1480263              0.3397528
      1.0137618              1.1307670              0.7271586
SP   1   1.00
      0.2700058              1.0000000              1.0000000
D    1   1.00
      2.5840000              1.0000000
D    1   1.00
      0.6460000              1.0000000
F    1   1.00
      1.4000000              1.0000000
****
F     0
S    6   1.00
   7001.7130900              0.0018196169
   1051.3660900              0.0139160796
    239.2856900              0.0684053245
     67.3974453              0.233185760
     21.5199573              0.471267439
      7.40310130             0.356618546
SP   3   1.00
     20.8479528             -0.108506975            0.0716287243
      4.80830834            -0.146451658            0.3459121030
      1.34406986             1.128688580            0.7224699570
SP   1   1.00
      0.358151393            1.0000000              1.0000000
D    1   1.00
      3.5000000              1.0000000
D    1   1.00
      0.8750000              1.0000000
F    1   1.00
      1.8500000              1.0000000
****
Al     0
S    6   1.00
  13983.1000000              0.00194267
   2098.7500000              0.0148599
    477.7050000              0.0728494
    134.3600000              0.2468300
     42.8709000              0.4872580
     14.5189000              0.3234960
SP   6   1.00
    239.6680000             -0.00292619             0.00460285
     57.4419000             -0.0374080              0.0331990
     18.2859000             -0.1144870              0.1362820
      6.5991400              0.1156350              0.3304760
      2.4904900              0.6125950              0.4491460
      0.9445400              0.3937990              0.2657040
SP   3   1.00
      1.2779000             -0.2276060             -0.0175130
      0.3975900              0.00144583             0.2445330
      0.1600950              1.0927900              0.8049340
SP   1   1.00
      0.0556577              1.0000000              1.0000000
D    1   1.00
      0.6500000              1.0000000
D    1   1.00
      0.1625000              1.0000000
F    1   1.00
      0.2500000              1.0000000
****
Si     0
S    6   1.00
  16115.9000000              0.00195948
   2425.5800000              0.01492880
    553.8670000              0.07284780
    156.3400000              0.24613000
     50.0683000              0.48591400
     17.0178000              0.32500200
SP   6   1.00
    292.7180000             -0.00278094             0.00443826
     69.8731000             -0.03571460             0.03266790
     22.3363000             -0.11498500             0.13472100
      8.1503900              0.09356340             0.32867800
      3.1345800              0.60301700             0.44964000
      1.2254300              0.41895900             0.26137200
SP   3   1.00
      1.7273800             -0.24463000            -0.01779510
      0.5729220              0.00431572             0.25353900
      0.2221920              1.09818000             0.80066900
SP   1   1.00
      0.0778369              1.00000000             1.00000000
D    1   1.00
      0.9000000              1.0000000
D    1   1.00
      0.2250000              1.0000000
F    1   1.00
      0.3200000              1.0000000
****
P     0
S    6   1.00
  19413.3000000              0.0018516
   2909.4200000              0.0142062
    661.3640000              0.0699995
    185.7590000              0.2400790
     59.1943000              0.4847620
     20.0310000              0.3352000
SP   6   1.00
    339.4780000             -0.00278217             0.00456462
     81.0101000             -0.0360499              0.03369360
     25.8780000             -0.1166310              0.13975500
      9.4522100              0.0968328              0.33936200
      3.6656600              0.6144180              0.45092100
      1.4674600              0.4037980              0.23858600
SP   3   1.00
      2.1562300             -0.2529230             -0.01776530
      0.7489970              0.0328517              0.27405800
      0.2831450              1.0812500              0.78542100
SP   1   1.00
      0.0998317              1.0000000              1.00000000
D    1   1.00
      1.1000000              1.0000000
D    1   1.00
      0.2750000              1.0000000
F    1   1.00
      0.4500000              1.0000000
****
S     0
S    6   1.00
  21917.1000000              0.0018690
   3301.4900000              0.0142300
    754.1460000              0.0696960
    212.7110000              0.2384870
     67.9896000              0.4833070
     23.0515000              0.3380740
SP   6   1.00
    423.7350000             -0.0023767              0.0040610
    100.7100000             -0.0316930              0.0306810
     32.1599000             -0.1133170              0.1304520
     11.8079000              0.0560900              0.3272050
      4.6311000              0.5922550              0.4528510
      1.8702500              0.4550060              0.2560420
SP   3   1.00
      2.6158400             -0.2503740             -0.0145110
      0.9221670              0.0669570              0.3102630
      0.3412870              1.0545100              0.7544830
SP   1   1.00
      0.1171670              1.0000000              1.0000000
D    1   1.00
      1.3000000              1.0000000
D    1   1.00
      0.3250000              1.0000000
F    1   1.00
      0.5500000              1.0000000
****
Cl     0
S    6   1.00
  25180.1000000              0.0018330
   3780.3500000              0.0140340
    860.4740000              0.0690970
    242.1450000              0.2374520
     77.3349000              0.4830340
     26.2470000              0.3398560
SP   6   1.00
    491.7650000             -0.0022974              0.0039894
    116.9840000             -0.0307140              0.0303180
     37.4153000             -0.1125280              0.1298800
     13.7834000              0.0450160              0.3279510
      5.4521500              0.5893530              0.4535270
      2.2258800              0.4652060              0.2521540
SP   3   1.00
      3.1864900             -0.2518300             -0.0142990
      1.1442700              0.0615890              0.3235720
      0.4203770              1.0601800              0.7435070
SP   1   1.00
      0.1426570              1.0000000              1.0000000
D    1   1.00
      1.5000000              1.0000000
D    1   1.00
      0.3750000              1.0000000
F    1   1.00
      0.7000000              1.0000000
****
}

set {
reference uhf
freeze_core true
e_convergence 10
d_convergence 10
dft_spherical_points 1202
dft_radial_points 99
}

e = energy('b3lyp')

print_out('Grab this energy {0}'.format(e))
--------------------------------------------------------------------------

    Molecular point group: c1

    Geometry (in Bohr), charge = 0, multiplicity = 2:

       Center              X                  Y                   Z               Mass
    ------------   -----------------  -----------------  -----------------  -----------------
         C           -0.321674861739    -0.000001845528     0.000697388262    12.000000000000
         C            0.060643119761    -1.402116335628    -2.427570621338    12.000000000000
         C            0.060379685561     2.801853729272     0.000955949962    12.000000000000
         C            0.060355396561    -1.399732913028     2.425353814962    12.000000000000
         H            2.087270533361    -1.643699183528    -2.846463287338     1.007825032230
         H           -0.765109405739    -0.387730976528    -4.024628152138     1.007825032230
         H           -0.765334207539    -3.291841403028    -2.347957321638     1.007825032230
         H            2.087064293961     3.288058720072     0.000287456762     1.007825032230
         H           -0.765331639539     3.680267036272     1.676936833462     1.007825032230
         H           -0.765208428239     3.680243451372    -1.676175914838     1.007825032230
         H            2.087131527961    -1.644453814128     2.848345474062     1.007825032230
         H           -0.765048003639    -3.292255050728     2.349970262362     1.007825032230
         H           -0.764946377039    -0.388620155328     4.026393768062     1.007825032230

  Charge       = 0
  Multiplicity = 2
  Basis Set: ANONYMOUSDA4120A9
    Blend: 6-31G_2DFP_
  Basis Set: (ANONYMOUSDA4120A9 AUX)
    Blend: DEF2-UNIVERSAL-JKFIT

    Orbital Energies [Eh]
    ---------------------

    Alpha Occupied:

       1A    -10.180276     2A    -10.167066     3A    -10.167027
       4A    -10.166977     5A     -0.797781     6A     -0.686227
       7A     -0.686181     8A     -0.530770     9A     -0.441067
      10A     -0.434817    11A     -0.434652    12A     -0.382582
      13A     -0.382401    14A     -0.363738    15A     -0.338298
      16A     -0.337882    17A     -0.168778

    Alpha Virtual:

      18A      0.076069    19A      0.134140    20A      0.134177
      21A      0.142588    22A      0.142717    23A      0.154800
      24A      0.178627    25A      0.178792    26A      0.203519
      27A      0.214850    28A      0.275934    29A      0.276384
      30A      0.399238    31A      0.399258    32A      0.403426
      33A      0.424081    34A      0.424169    35A      0.456499
      36A      0.495393    37A      0.495436    38A      0.512115
      39A      0.514079    40A      0.578650    41A      0.578723
      42A      0.591549    43A      0.591668    44A      0.602354
      45A      0.624843    46A      0.631833    47A      0.636241
      48A      0.636572    49A      0.663191    50A      0.663314
      51A      0.683941    52A      0.683982    53A      0.735190
      54A      0.825408    55A      0.825517    56A      0.853914
      57A      0.915075    58A      0.915106    59A      0.944078
      60A      0.944565    61A      0.961242    62A      0.961309
      63A      1.003451    64A      1.127938    65A      1.128088
      66A      1.142211    67A      1.162552    68A      1.163124
      69A      1.223487    70A      1.274244    71A      1.274849
      72A      1.279133    73A      1.324544    74A      1.324673
      75A      1.355754    76A      1.366281    77A      1.366586
      78A      1.392444    79A      1.403832    80A      1.404170
      81A      1.416722    82A      1.417019    83A      1.427872
      84A      1.491674    85A      1.498686    86A      1.542711
      87A      1.542849    88A      1.574534    89A      1.574922
      90A      1.670089    91A      1.739525    92A      1.739797
      93A      1.768259    94A      1.831280    95A      1.832291
      96A      1.971991    97A      2.018199    98A      2.019147
      99A      2.019454   100A      2.051573   101A      2.052932
     102A      2.738559   103A      2.738801   104A      2.790724
     105A      2.811458   106A      2.890124   107A      2.890277
     108A      2.894637   109A      2.929413   110A      2.929538
     111A      2.959062   112A      2.964406   113A      2.964564
     114A      3.033654   115A      3.071991   116A      3.072261
     117A      3.084425   118A      3.168464   119A      3.168841
     120A      3.180641   121A      3.284502   122A      3.284529
     123A      3.326619   124A      3.326992   125A      3.375446
     126A      3.490053   127A      3.490718   128A      3.514196
     129A      3.524867   130A      3.568604   131A      3.568763
     132A      3.574523   133A      3.666256   134A      3.667636
     135A      3.679888   136A      3.693940   137A      3.694181
     138A      3.776894   139A      3.777274   140A      3.790386
     141A      3.911500   142A      3.912997   143A      4.034764
     144A      4.111457   145A      4.111764   146A      4.147851
     147A      4.148455   148A      4.173285   149A      4.202270
     150A      4.202905   151A      4.203446   152A      4.210803
     153A      4.315024   154A      4.316478   155A      4.358498
     156A      4.423644   157A      4.425493   158A      4.443784
     159A      4.515885   160A      4.517201   161A      4.578134
     162A      4.578179   163A      4.618032   164A      4.709125
     165A      4.774410   166A      4.775044   167A      4.838114
     168A      4.962730   169A      5.002111   170A      5.003535
     171A      5.228148   172A      5.246719   173A      5.247115
     174A      5.355716   175A      5.355844   176A      5.479713

    Beta Occupied:

       1A    -10.167826     2A    -10.167786     3A    -10.167743
       4A    -10.166458     5A     -0.781102     6A     -0.684038
       7A     -0.683980     8A     -0.511750     9A     -0.431199
      10A     -0.431032    11A     -0.421733    12A     -0.376677
      13A     -0.376456    14A     -0.362723    15A     -0.333419
      16A     -0.333000

    Beta Virtual:

      17A     -0.025642    18A      0.077083    19A      0.135056
      20A      0.135062    21A      0.144472    22A      0.144568
      23A      0.163270    24A      0.182310    25A      0.182450
      26A      0.215080    27A      0.218924    28A      0.282278
      29A      0.282711    30A      0.400411    31A      0.400426
      32A      0.419898    33A      0.426889    34A      0.426979
      35A      0.468394    36A      0.497642    37A      0.497699
      38A      0.513854    39A      0.556424    40A      0.584209
      41A      0.584293    42A      0.597722    43A      0.597841
      44A      0.609804    45A      0.628195    46A      0.631989
      47A      0.639525    48A      0.639847    49A      0.666747
      50A      0.666881    51A      0.686594    52A      0.686611
      53A      0.757693    54A      0.830568    55A      0.830687
      56A      0.855271    57A      0.923034    58A      0.923069
      59A      0.945918    60A      0.953499    61A      0.966585
      62A      0.966644    63A      1.008673    64A      1.131965
      65A      1.132106    66A      1.155614    67A      1.167611
      68A      1.168219    69A      1.232463    70A      1.279822
      71A      1.280434    72A      1.284878    73A      1.329539
      74A      1.329640    75A      1.365195    76A      1.371555
      77A      1.371805    78A      1.393509    79A      1.407349
      80A      1.407587    81A      1.421808    82A      1.422071
      83A      1.428140    84A      1.492724    85A      1.509123
      86A      1.547112    87A      1.547265    88A      1.582400
      89A      1.582800    90A      1.674920    91A      1.745285
      92A      1.745564    93A      1.779060    94A      1.835153
      95A      1.836145    96A      1.972852    97A      2.024618
      98A      2.025700    99A      2.040659   100A      2.058270
     101A      2.059631   102A      2.746917   103A      2.747114
     104A      2.811861   105A      2.815879   106A      2.902793
     107A      2.902902   108A      2.924352   109A      2.931923
     110A      2.932017   111A      2.960124   112A      2.968925
     113A      2.969112   114A      3.041631   115A      3.081865
     116A      3.082123   117A      3.086250   118A      3.184277
     119A      3.184683   120A      3.188319   121A      3.289339
     122A      3.289367   123A      3.330423   124A      3.330780
     125A      3.383255   126A      3.492742   127A      3.493452
     128A      3.512557   129A      3.527904   130A      3.574376
     131A      3.581884   132A      3.582079   133A      3.670995
     134A      3.672437   135A      3.693186   136A      3.725554
     137A      3.725812   138A      3.781337   139A      3.781802
     140A      3.818941   141A      3.921405   142A      3.922800
     143A      4.045623   144A      4.118184   145A      4.118696
     146A      4.155143   147A      4.155554   148A      4.187383
     149A      4.208297   150A      4.209097   151A      4.211057
     152A      4.215300   153A      4.322415   154A      4.323925
     155A      4.361860   156A      4.431919   157A      4.433704
     158A      4.446693   159A      4.523698   160A      4.525003
     161A      4.588687   162A      4.588762   163A      4.625233
     164A      4.719445   165A      4.781367   166A      4.781963
     167A      4.841021   168A      4.967529   169A      5.006178
     170A      5.007573   171A      5.233863   172A      5.248510
     173A      5.248892   174A      5.362167   175A      5.362338
     176A      5.482028

    Final Occupation by Irrep:
              A
    DOCC [    16 ]
    SOCC [     1 ]

  @DF-UKS Final Energy:  -157.81307917721446

   => Energetics <=

    Nuclear Repulsion Energy =            125.3970187984687215
    One-Electron Energy =                -458.7535397135980020
    Two-Electron Energy =                 195.8506525763498871
    DFT Exchange-Correlation Energy =     -20.3072108384350472
    Empirical Dispersion Energy =           0.0000000000000000
    VV10 Nonlocal Energy =                  0.0000000000000000
    Total Energy =                       -157.8130791772144619

  UHF NO Occupations:
  HONO-2 :   15  A 1.9995994
  HONO-1 :   16  A 1.9989790
  HONO-0 :   17  A 1.0000000
  LUNO+0 :   18  A 0.0010210
  LUNO+1 :   19  A 0.0004006
  LUNO+2 :   20  A 0.0001978
  LUNO+3 :   21  A 0.0001971

Computation Completed

Properties will be evaluated at   0.000000,   0.000000,   0.000000 [a0]

Properties computed using the SCF density matrix

  Nuclear Dipole Moment: [e a0]
     X:     0.8287      Y:    -0.0000      Z:     0.0033

  Electronic Dipole Moment: [e a0]
     X:    -0.7516      Y:     0.0000      Z:    -0.0034

  Dipole Moment: [e a0]
     X:     0.0771      Y:     0.0000      Z:    -0.0001     Total:     0.0771

  Dipole Moment: [D]
     X:     0.1961      Y:     0.0000      Z:    -0.0002     Total:     0.1961

*** tstop() called on n036 at Fri Nov  5 11:31:51 2021
Module time:
	user time   =     599.40 seconds =       9.99 minutes
	system time =      11.50 seconds =       0.19 minutes
	total time  =        153 seconds =       2.55 minutes
Total time:
	user time   =     599.40 seconds =       9.99 minutes
	system time =      11.50 seconds =       0.19 minutes
	total time  =        153 seconds =       2.55 minutes
Grab this energy -157.81307917721446
    Psi4 stopped on: Friday, 05 November 2021 11:31AM
    Psi4 wall time for execution: 0:02:33.64

*** Psi4 exiting successfully. Buy a developer a beer!
