                               Psi4 1.4a2.dev629

  ==> Input File <==

--------------------------------------------------------------------------
import os
memory 14 GB

molecule {
 C   -0.3233410181    0.0002545393   -0.0004973104
 C    0.0609726669   -1.4013279550   -2.4262130599
 C    0.0589709960    2.8017668631   -0.0003840890
 C    0.0633566790   -1.4015749835    2.4258753867
 H    2.0904080960   -1.6436303956   -2.8472202089
 H   -0.7666623014   -0.3905462168   -4.0238670110
 H   -0.7682573180   -3.2897216968   -2.3506534050
 H    2.0870021732    3.2880947851   -0.0001821684
 H   -0.7662029658    3.6807302552    1.6770117146
 H   -0.7638089696    3.6798008089   -1.6764045939
 H    2.0832650925   -1.6442140328    2.8478604479
 H   -0.7637574691   -3.2938762931    2.3476213948
 H   -0.7645535384   -0.3857799917    4.0270529025
units bohr
0 2
}

basis {

assign 6-31g_2dfp_

[ 6-31g_2dfp_ ]

spherical

!----------------------------------------------------------------------
! Basis Set Exchange
! Version v0.8.13
! https://www.basissetexchange.org
!----------------------------------------------------------------------
!   Basis set: 6-31G(2df,p)
! Description: 6-31G(2df,p)
!        Role: orbital
!     Version: 0  (Data from the original Basis Set Exchange)
!----------------------------------------------------------------------

****
H     0
S    3   1.00
     18.7311370              0.03349460
      2.8253937              0.23472695
      0.6401217              0.81375733
S    1   1.00
      0.1612778              1.00000000
P    1   1.00
      1.5000000              1.0000000
P    1   1.00
      0.3750000              1.0000000
****
B     0
S    6   1.00
   2068.8823000              0.0018663
    310.6495700              0.0142515
     70.6830330              0.0695516
     19.8610800              0.2325729
      6.2993048              0.4670787
      2.1270270              0.3634314
SP   3   1.00
      4.7279710             -0.1303938              0.0745976
      1.1903377             -0.1307889              0.3078467
      0.3594117              1.1309444              0.7434568
SP   1   1.00
      0.1267512              1.0000000              1.0000000
D    1   1.00
      0.8020000              1.0000000
D    1   1.00
      0.2005000              1.0000000
F    1   1.00
      0.5000000              1.0000000
****
C     0
S    6   1.00
   3047.5249000              0.0018347
    457.3695100              0.0140373
    103.9486900              0.0688426
     29.2101550              0.2321844
      9.2866630              0.4679413
      3.1639270              0.3623120
SP   3   1.00
      7.8682724             -0.1193324              0.0689991
      1.8812885             -0.1608542              0.3164240
      0.5442493              1.1434564              0.7443083
SP   1   1.00
      0.1687144              1.0000000              1.0000000
D    1   1.00
      1.2520000              1.0000000
D    1   1.00
      0.3130000              1.0000000
F    1   1.00
      0.8000000              1.0000000
****
N     0
S    6   1.00
   4173.5110000              0.0018348
    627.4579000              0.0139950
    142.9021000              0.0685870
     40.2343300              0.2322410
     12.8202100              0.4690700
      4.3904370              0.3604550
SP   3   1.00
     11.6263580             -0.1149610              0.0675800
      2.7162800             -0.1691180              0.3239070
      0.7722180              1.1458520              0.7408950
SP   1   1.00
      0.2120313              1.0000000              1.0000000
D    1   1.00
      1.8260000              1.0000000
D    1   1.00
      0.4565000              1.0000000
F    1   1.00
      1.0000000              1.0000000
****
O     0
S    6   1.00
   5484.6717000              0.0018311
    825.2349500              0.0139501
    188.0469600              0.0684451
     52.9645000              0.2327143
     16.8975700              0.4701930
      5.7996353              0.3585209
SP   3   1.00
     15.5396160             -0.1107775              0.0708743
      3.5999336             -0.1480263              0.3397528
      1.0137618              1.1307670              0.7271586
SP   1   1.00
      0.2700058              1.0000000              1.0000000
D    1   1.00
      2.5840000              1.0000000
D    1   1.00
      0.6460000              1.0000000
F    1   1.00
      1.4000000              1.0000000
****
F     0
S    6   1.00
   7001.7130900              0.0018196169
   1051.3660900              0.0139160796
    239.2856900              0.0684053245
     67.3974453              0.233185760
     21.5199573              0.471267439
      7.40310130             0.356618546
SP   3   1.00
     20.8479528             -0.108506975            0.0716287243
      4.80830834            -0.146451658            0.3459121030
      1.34406986             1.128688580            0.7224699570
SP   1   1.00
      0.358151393            1.0000000              1.0000000
D    1   1.00
      3.5000000              1.0000000
D    1   1.00
      0.8750000              1.0000000
F    1   1.00
      1.8500000              1.0000000
****
Al     0
S    6   1.00
  13983.1000000              0.00194267
   2098.7500000              0.0148599
    477.7050000              0.0728494
    134.3600000              0.2468300
     42.8709000              0.4872580
     14.5189000              0.3234960
SP   6   1.00
    239.6680000             -0.00292619             0.00460285
     57.4419000             -0.0374080              0.0331990
     18.2859000             -0.1144870              0.1362820
      6.5991400              0.1156350              0.3304760
      2.4904900              0.6125950              0.4491460
      0.9445400              0.3937990              0.2657040
SP   3   1.00
      1.2779000             -0.2276060             -0.0175130
      0.3975900              0.00144583             0.2445330
      0.1600950              1.0927900              0.8049340
SP   1   1.00
      0.0556577              1.0000000              1.0000000
D    1   1.00
      0.6500000              1.0000000
D    1   1.00
      0.1625000              1.0000000
F    1   1.00
      0.2500000              1.0000000
****
Si     0
S    6   1.00
  16115.9000000              0.00195948
   2425.5800000              0.01492880
    553.8670000              0.07284780
    156.3400000              0.24613000
     50.0683000              0.48591400
     17.0178000              0.32500200
SP   6   1.00
    292.7180000             -0.00278094             0.00443826
     69.8731000             -0.03571460             0.03266790
     22.3363000             -0.11498500             0.13472100
      8.1503900              0.09356340             0.32867800
      3.1345800              0.60301700             0.44964000
      1.2254300              0.41895900             0.26137200
SP   3   1.00
      1.7273800             -0.24463000            -0.01779510
      0.5729220              0.00431572             0.25353900
      0.2221920              1.09818000             0.80066900
SP   1   1.00
      0.0778369              1.00000000             1.00000000
D    1   1.00
      0.9000000              1.0000000
D    1   1.00
      0.2250000              1.0000000
F    1   1.00
      0.3200000              1.0000000
****
P     0
S    6   1.00
  19413.3000000              0.0018516
   2909.4200000              0.0142062
    661.3640000              0.0699995
    185.7590000              0.2400790
     59.1943000              0.4847620
     20.0310000              0.3352000
SP   6   1.00
    339.4780000             -0.00278217             0.00456462
     81.0101000             -0.0360499              0.03369360
     25.8780000             -0.1166310              0.13975500
      9.4522100              0.0968328              0.33936200
      3.6656600              0.6144180              0.45092100
      1.4674600              0.4037980              0.23858600
SP   3   1.00
      2.1562300             -0.2529230             -0.01776530
      0.7489970              0.0328517              0.27405800
      0.2831450              1.0812500              0.78542100
SP   1   1.00
      0.0998317              1.0000000              1.00000000
D    1   1.00
      1.1000000              1.0000000
D    1   1.00
      0.2750000              1.0000000
F    1   1.00
      0.4500000              1.0000000
****
S     0
S    6   1.00
  21917.1000000              0.0018690
   3301.4900000              0.0142300
    754.1460000              0.0696960
    212.7110000              0.2384870
     67.9896000              0.4833070
     23.0515000              0.3380740
SP   6   1.00
    423.7350000             -0.0023767              0.0040610
    100.7100000             -0.0316930              0.0306810
     32.1599000             -0.1133170              0.1304520
     11.8079000              0.0560900              0.3272050
      4.6311000              0.5922550              0.4528510
      1.8702500              0.4550060              0.2560420
SP   3   1.00
      2.6158400             -0.2503740             -0.0145110
      0.9221670              0.0669570              0.3102630
      0.3412870              1.0545100              0.7544830
SP   1   1.00
      0.1171670              1.0000000              1.0000000
D    1   1.00
      1.3000000              1.0000000
D    1   1.00
      0.3250000              1.0000000
F    1   1.00
      0.5500000              1.0000000
****
Cl     0
S    6   1.00
  25180.1000000              0.0018330
   3780.3500000              0.0140340
    860.4740000              0.0690970
    242.1450000              0.2374520
     77.3349000              0.4830340
     26.2470000              0.3398560
SP   6   1.00
    491.7650000             -0.0022974              0.0039894
    116.9840000             -0.0307140              0.0303180
     37.4153000             -0.1125280              0.1298800
     13.7834000              0.0450160              0.3279510
      5.4521500              0.5893530              0.4535270
      2.2258800              0.4652060              0.2521540
SP   3   1.00
      3.1864900             -0.2518300             -0.0142990
      1.1442700              0.0615890              0.3235720
      0.4203770              1.0601800              0.7435070
SP   1   1.00
      0.1426570              1.0000000              1.0000000
D    1   1.00
      1.5000000              1.0000000
D    1   1.00
      0.3750000              1.0000000
F    1   1.00
      0.7000000              1.0000000
****
}

set {
reference uhf
freeze_core true
e_convergence 10
d_convergence 10
dft_spherical_points 1202
dft_radial_points 99
}

e = energy('b3lyp')

print_out('Grab this energy {0}'.format(e))
--------------------------------------------------------------------------

    Molecular point group: c1

    Geometry (in Bohr), charge = 0, multiplicity = 2:

       Center              X                  Y                   Z               Mass
    ------------   -----------------  -----------------  -----------------  -----------------
         C           -0.323340884938     0.000424758866    -0.000262508237    12.000000000000
         C            0.060972800062    -1.401157735434    -2.425978257737    12.000000000000
         C            0.058971129162     2.801937082666    -0.000149286837    12.000000000000
         C            0.063356812162    -1.401404763934     2.426110188863    12.000000000000
         H            2.090408229162    -1.643460176034    -2.846985406737     1.007825032230
         H           -0.766662168238    -0.390375997234    -4.023632208837     1.007825032230
         H           -0.768257184838    -3.289551477234    -2.350418602837     1.007825032230
         H            2.087002306362     3.288265004666     0.000052633763     1.007825032230
         H           -0.766202832638     3.680900474766     1.677246516763     1.007825032230
         H           -0.763808836438     3.679971028466    -1.676169791737     1.007825032230
         H            2.083265225662    -1.644043813234     2.848095250063     1.007825032230
         H           -0.763757335938    -3.293706073534     2.347856196963     1.007825032230
         H           -0.764553405238    -0.385609772134     4.027287704663     1.007825032230

  Charge       = 0
  Multiplicity = 2
  Basis Set: ANONYMOUS3F0B6FCC
    Blend: 6-31G_2DFP_
  Basis Set: (ANONYMOUS3F0B6FCC AUX)
    Blend: DEF2-UNIVERSAL-JKFIT

    Orbital Energies [Eh]
    ---------------------

    Alpha Occupied:

       1A    -10.180342     2A    -10.167056     3A    -10.167022
       4A    -10.166967     5A     -0.797766     6A     -0.686221
       7A     -0.686155     8A     -0.530778     9A     -0.441128
      10A     -0.434772    11A     -0.434567    12A     -0.382749
      13A     -0.382447    14A     -0.363612    15A     -0.338090
      16A     -0.337908    17A     -0.168961

    Alpha Virtual:

      18A      0.076071    19A      0.133985    20A      0.134324
      21A      0.142539    22A      0.142713    23A      0.154881
      24A      0.178637    25A      0.178922    26A      0.203548
      27A      0.214803    28A      0.275891    29A      0.276080
      30A      0.399070    31A      0.399383    32A      0.403347
      33A      0.424000    34A      0.424195    35A      0.456592
      36A      0.495241    37A      0.495535    38A      0.512161
      39A      0.513981    40A      0.578620    41A      0.579012
      42A      0.591446    43A      0.591811    44A      0.602582
      45A      0.624761    46A      0.631754    47A      0.636121
      48A      0.636393    49A      0.663005    50A      0.663834
      51A      0.683627    52A      0.684081    53A      0.734996
      54A      0.825379    55A      0.825427    56A      0.853921
      57A      0.914810    58A      0.915240    59A      0.944126
      60A      0.944611    61A      0.961148    62A      0.961442
      63A      1.003452    64A      1.127989    65A      1.128228
      66A      1.142212    67A      1.163108    68A      1.163439
      69A      1.223325    70A      1.274286    71A      1.274676
      72A      1.279375    73A      1.324098    74A      1.324614
      75A      1.355953    76A      1.365742    77A      1.366360
      78A      1.392449    79A      1.403595    80A      1.404526
      81A      1.416505    82A      1.417732    83A      1.427912
      84A      1.491489    85A      1.499078    86A      1.542366
      87A      1.543306    88A      1.574227    89A      1.574666
      90A      1.669822    91A      1.738983    92A      1.739809
      93A      1.768361    94A      1.830563    95A      1.832229
      96A      1.971716    97A      2.018102    98A      2.018362
      99A      2.019933   100A      2.051633   101A      2.053674
     102A      2.738075   103A      2.738894   104A      2.790926
     105A      2.811425   106A      2.889658   107A      2.890224
     108A      2.894968   109A      2.929470   110A      2.929526
     111A      2.958999   112A      2.964030   113A      2.964720
     114A      3.034017   115A      3.071147   116A      3.071404
     117A      3.084372   118A      3.168523   119A      3.169037
     120A      3.180602   121A      3.284990   122A      3.285641
     123A      3.326905   124A      3.327414   125A      3.375627
     126A      3.489800   127A      3.490517   128A      3.514017
     129A      3.525323   130A      3.568237   131A      3.568542
     132A      3.575154   133A      3.665616   134A      3.667167
     135A      3.679645   136A      3.693987   137A      3.694272
     138A      3.776746   139A      3.776860   140A      3.789127
     141A      3.912098   142A      3.912354   143A      4.034438
     144A      4.110903   145A      4.111816   146A      4.147524
     147A      4.148673   148A      4.173229   149A      4.202079
     150A      4.202429   151A      4.204243   152A      4.210918
     153A      4.315034   154A      4.316935   155A      4.358991
     156A      4.424115   157A      4.424815   158A      4.443416
     159A      4.515579   160A      4.518123   161A      4.578006
     162A      4.578531   163A      4.617558   164A      4.709448
     165A      4.773903   166A      4.775285   167A      4.836906
     168A      4.962867   169A      5.002079   170A      5.003799
     171A      5.228015   172A      5.244743   173A      5.248866
     174A      5.354300   175A      5.356779   176A      5.479377

    Beta Occupied:

       1A    -10.167812     2A    -10.167781     3A    -10.167730
       4A    -10.166519     5A     -0.781091     6A     -0.684024
       7A     -0.683957     8A     -0.511749     9A     -0.431152
      10A     -0.430936    11A     -0.421819    12A     -0.376848
      13A     -0.376518    14A     -0.362595    15A     -0.333211
      16A     -0.333032

    Beta Virtual:

      17A     -0.025743    18A      0.077080    19A      0.134887
      20A      0.135203    21A      0.144429    22A      0.144565
      23A      0.163337    24A      0.182294    25A      0.182608
      26A      0.215032    27A      0.218930    28A      0.282238
      29A      0.282429    30A      0.400238    31A      0.400557
      32A      0.419790    33A      0.426810    34A      0.427008
      35A      0.468500    36A      0.497496    37A      0.497803
      38A      0.513896    39A      0.556325    40A      0.584186
      41A      0.584546    42A      0.597604    43A      0.598015
      44A      0.610003    45A      0.628137    46A      0.631920
      47A      0.639395    48A      0.639680    49A      0.666605
      50A      0.667363    51A      0.686274    52A      0.686705
      53A      0.757519    54A      0.830546    55A      0.830595
      56A      0.855275    57A      0.922795    58A      0.923197
      59A      0.945962    60A      0.953540    61A      0.966425
      62A      0.966776    63A      1.008692    64A      1.131990
      65A      1.132283    66A      1.155588    67A      1.168175
      68A      1.168522    69A      1.232297    70A      1.279871
      71A      1.280284    72A      1.285130    73A      1.329077
      74A      1.329614    75A      1.365363    76A      1.370987
      77A      1.371604    78A      1.393509    79A      1.407015
      80A      1.408038    81A      1.421547    82A      1.422792
      83A      1.428181    84A      1.492537    85A      1.509521
      86A      1.546789    87A      1.547696    88A      1.582145
      89A      1.582494    90A      1.674668    91A      1.744752
      92A      1.745572    93A      1.779133    94A      1.834412
      95A      1.836092    96A      1.972576    97A      2.024657
      98A      2.026229    99A      2.039681   100A      2.058401
     101A      2.060342   102A      2.746420   103A      2.747220
     104A      2.811837   105A      2.816061   106A      2.902369
     107A      2.902913   108A      2.924652   109A      2.931932
     110A      2.932023   111A      2.960061   112A      2.968564
     113A      2.969280   114A      3.041950   115A      3.080993
     116A      3.081348   117A      3.086220   118A      3.184162
     119A      3.184882   120A      3.188300   121A      3.289779
     122A      3.290449   123A      3.330683   124A      3.331247
     125A      3.383444   126A      3.492547   127A      3.493230
     128A      3.512382   129A      3.528369   130A      3.574990
     131A      3.581574   132A      3.581906   133A      3.670334
     134A      3.671945   135A      3.692942   136A      3.725549
     137A      3.725969   138A      3.781268   139A      3.781396
     140A      3.817667   141A      3.921888   142A      3.922197
     143A      4.045325   144A      4.117745   145A      4.118603
     146A      4.154783   147A      4.155837   148A      4.187281
     149A      4.208138   150A      4.209346   151A      4.211120
     152A      4.215392   153A      4.322460   154A      4.324385
     155A      4.362356   156A      4.432333   157A      4.433025
     158A      4.446299   159A      4.523372   160A      4.525911
     161A      4.588613   162A      4.589126   163A      4.624752
     164A      4.719792   165A      4.780869   166A      4.782225
     167A      4.839823   168A      4.967662   169A      5.006144
     170A      5.007814   171A      5.233728   172A      5.246540
     173A      5.250639   174A      5.360770   175A      5.363269
     176A      5.481698

    Final Occupation by Irrep:
              A
    DOCC [    16 ]
    SOCC [     1 ]

  @DF-UKS Final Energy:  -157.81306107019105

   => Energetics <=

    Nuclear Repulsion Energy =            125.3946337914640594
    One-Electron Energy =                -458.7489062737244012
    Two-Electron Energy =                 195.8483569762334753
    DFT Exchange-Correlation Energy =     -20.3071455641641805
    Empirical Dispersion Energy =           0.0000000000000000
    VV10 Nonlocal Energy =                  0.0000000000000000
    Total Energy =                       -157.8130610701910541

  UHF NO Occupations:
  HONO-2 :   15  A 1.9996008
  HONO-1 :   16  A 1.9989804
  HONO-0 :   17  A 1.0000000
  LUNO+0 :   18  A 0.0010196
  LUNO+1 :   19  A 0.0003992
  LUNO+2 :   20  A 0.0001977
  LUNO+3 :   21  A 0.0001974

Computation Completed

Properties will be evaluated at   0.000000,   0.000000,   0.000000 [a0]

Properties computed using the SCF density matrix

  Nuclear Dipole Moment: [e a0]
     X:     0.8272      Y:     0.0012      Z:     0.0017

  Electronic Dipole Moment: [e a0]
     X:    -0.7493      Y:    -0.0011      Z:    -0.0023

  Dipole Moment: [e a0]
     X:     0.0779      Y:     0.0001      Z:    -0.0007     Total:     0.0779

  Dipole Moment: [D]
     X:     0.1980      Y:     0.0003      Z:    -0.0017     Total:     0.1980

*** tstop() called on n082 at Fri Nov  5 12:30:53 2021
Module time:
	user time   =     494.38 seconds =       8.24 minutes
	system time =       4.58 seconds =       0.08 minutes
	total time  =        126 seconds =       2.10 minutes
Total time:
	user time   =     494.38 seconds =       8.24 minutes
	system time =       4.58 seconds =       0.08 minutes
	total time  =        126 seconds =       2.10 minutes
Grab this energy -157.81306107019105
    Psi4 stopped on: Friday, 05 November 2021 12:30PM
    Psi4 wall time for execution: 0:02:05.47

*** Psi4 exiting successfully. Buy a developer a beer!
