                               Psi4 1.4a2.dev629

  ==> Input File <==

--------------------------------------------------------------------------
import os
memory 14 GB

molecule {
 C   -0.3233404902    0.0019961653   -0.0000000000
 C    0.0612168143   -1.4002229934   -2.4272471861
 C    0.0608660631    2.8009137825   -0.0000000000
 C    0.0612168143   -1.4002229934    2.4272471861
 H    2.0868218285   -1.6421765842   -2.8512011483
 H   -0.7668469986   -0.3908708174   -4.0294486048
 H   -0.7646300710   -3.2904308051   -2.3441410797
 H    2.0870214347    3.2835152219   -0.0000000000
 H   -0.7651390152    3.6804764584    1.6757342427
 H   -0.7651390152    3.6804764584   -1.6757342427
 H    2.0868218285   -1.6421765842    2.8512011483
 H   -0.7646300710   -3.2904308051    2.3441410797
 H   -0.7668469986   -0.3908708174    4.0294486048
units bohr
0 2
}

basis {

assign 6-31g_2dfp_

[ 6-31g_2dfp_ ]

spherical

!----------------------------------------------------------------------
! Basis Set Exchange
! Version v0.8.13
! https://www.basissetexchange.org
!----------------------------------------------------------------------
!   Basis set: 6-31G(2df,p)
! Description: 6-31G(2df,p)
!        Role: orbital
!     Version: 0  (Data from the original Basis Set Exchange)
!----------------------------------------------------------------------

****
H     0
S    3   1.00
     18.7311370              0.03349460
      2.8253937              0.23472695
      0.6401217              0.81375733
S    1   1.00
      0.1612778              1.00000000
P    1   1.00
      1.5000000              1.0000000
P    1   1.00
      0.3750000              1.0000000
****
B     0
S    6   1.00
   2068.8823000              0.0018663
    310.6495700              0.0142515
     70.6830330              0.0695516
     19.8610800              0.2325729
      6.2993048              0.4670787
      2.1270270              0.3634314
SP   3   1.00
      4.7279710             -0.1303938              0.0745976
      1.1903377             -0.1307889              0.3078467
      0.3594117              1.1309444              0.7434568
SP   1   1.00
      0.1267512              1.0000000              1.0000000
D    1   1.00
      0.8020000              1.0000000
D    1   1.00
      0.2005000              1.0000000
F    1   1.00
      0.5000000              1.0000000
****
C     0
S    6   1.00
   3047.5249000              0.0018347
    457.3695100              0.0140373
    103.9486900              0.0688426
     29.2101550              0.2321844
      9.2866630              0.4679413
      3.1639270              0.3623120
SP   3   1.00
      7.8682724             -0.1193324              0.0689991
      1.8812885             -0.1608542              0.3164240
      0.5442493              1.1434564              0.7443083
SP   1   1.00
      0.1687144              1.0000000              1.0000000
D    1   1.00
      1.2520000              1.0000000
D    1   1.00
      0.3130000              1.0000000
F    1   1.00
      0.8000000              1.0000000
****
N     0
S    6   1.00
   4173.5110000              0.0018348
    627.4579000              0.0139950
    142.9021000              0.0685870
     40.2343300              0.2322410
     12.8202100              0.4690700
      4.3904370              0.3604550
SP   3   1.00
     11.6263580             -0.1149610              0.0675800
      2.7162800             -0.1691180              0.3239070
      0.7722180              1.1458520              0.7408950
SP   1   1.00
      0.2120313              1.0000000              1.0000000
D    1   1.00
      1.8260000              1.0000000
D    1   1.00
      0.4565000              1.0000000
F    1   1.00
      1.0000000              1.0000000
****
O     0
S    6   1.00
   5484.6717000              0.0018311
    825.2349500              0.0139501
    188.0469600              0.0684451
     52.9645000              0.2327143
     16.8975700              0.4701930
      5.7996353              0.3585209
SP   3   1.00
     15.5396160             -0.1107775              0.0708743
      3.5999336             -0.1480263              0.3397528
      1.0137618              1.1307670              0.7271586
SP   1   1.00
      0.2700058              1.0000000              1.0000000
D    1   1.00
      2.5840000              1.0000000
D    1   1.00
      0.6460000              1.0000000
F    1   1.00
      1.4000000              1.0000000
****
F     0
S    6   1.00
   7001.7130900              0.0018196169
   1051.3660900              0.0139160796
    239.2856900              0.0684053245
     67.3974453              0.233185760
     21.5199573              0.471267439
      7.40310130             0.356618546
SP   3   1.00
     20.8479528             -0.108506975            0.0716287243
      4.80830834            -0.146451658            0.3459121030
      1.34406986             1.128688580            0.7224699570
SP   1   1.00
      0.358151393            1.0000000              1.0000000
D    1   1.00
      3.5000000              1.0000000
D    1   1.00
      0.8750000              1.0000000
F    1   1.00
      1.8500000              1.0000000
****
Al     0
S    6   1.00
  13983.1000000              0.00194267
   2098.7500000              0.0148599
    477.7050000              0.0728494
    134.3600000              0.2468300
     42.8709000              0.4872580
     14.5189000              0.3234960
SP   6   1.00
    239.6680000             -0.00292619             0.00460285
     57.4419000             -0.0374080              0.0331990
     18.2859000             -0.1144870              0.1362820
      6.5991400              0.1156350              0.3304760
      2.4904900              0.6125950              0.4491460
      0.9445400              0.3937990              0.2657040
SP   3   1.00
      1.2779000             -0.2276060             -0.0175130
      0.3975900              0.00144583             0.2445330
      0.1600950              1.0927900              0.8049340
SP   1   1.00
      0.0556577              1.0000000              1.0000000
D    1   1.00
      0.6500000              1.0000000
D    1   1.00
      0.1625000              1.0000000
F    1   1.00
      0.2500000              1.0000000
****
Si     0
S    6   1.00
  16115.9000000              0.00195948
   2425.5800000              0.01492880
    553.8670000              0.07284780
    156.3400000              0.24613000
     50.0683000              0.48591400
     17.0178000              0.32500200
SP   6   1.00
    292.7180000             -0.00278094             0.00443826
     69.8731000             -0.03571460             0.03266790
     22.3363000             -0.11498500             0.13472100
      8.1503900              0.09356340             0.32867800
      3.1345800              0.60301700             0.44964000
      1.2254300              0.41895900             0.26137200
SP   3   1.00
      1.7273800             -0.24463000            -0.01779510
      0.5729220              0.00431572             0.25353900
      0.2221920              1.09818000             0.80066900
SP   1   1.00
      0.0778369              1.00000000             1.00000000
D    1   1.00
      0.9000000              1.0000000
D    1   1.00
      0.2250000              1.0000000
F    1   1.00
      0.3200000              1.0000000
****
P     0
S    6   1.00
  19413.3000000              0.0018516
   2909.4200000              0.0142062
    661.3640000              0.0699995
    185.7590000              0.2400790
     59.1943000              0.4847620
     20.0310000              0.3352000
SP   6   1.00
    339.4780000             -0.00278217             0.00456462
     81.0101000             -0.0360499              0.03369360
     25.8780000             -0.1166310              0.13975500
      9.4522100              0.0968328              0.33936200
      3.6656600              0.6144180              0.45092100
      1.4674600              0.4037980              0.23858600
SP   3   1.00
      2.1562300             -0.2529230             -0.01776530
      0.7489970              0.0328517              0.27405800
      0.2831450              1.0812500              0.78542100
SP   1   1.00
      0.0998317              1.0000000              1.00000000
D    1   1.00
      1.1000000              1.0000000
D    1   1.00
      0.2750000              1.0000000
F    1   1.00
      0.4500000              1.0000000
****
S     0
S    6   1.00
  21917.1000000              0.0018690
   3301.4900000              0.0142300
    754.1460000              0.0696960
    212.7110000              0.2384870
     67.9896000              0.4833070
     23.0515000              0.3380740
SP   6   1.00
    423.7350000             -0.0023767              0.0040610
    100.7100000             -0.0316930              0.0306810
     32.1599000             -0.1133170              0.1304520
     11.8079000              0.0560900              0.3272050
      4.6311000              0.5922550              0.4528510
      1.8702500              0.4550060              0.2560420
SP   3   1.00
      2.6158400             -0.2503740             -0.0145110
      0.9221670              0.0669570              0.3102630
      0.3412870              1.0545100              0.7544830
SP   1   1.00
      0.1171670              1.0000000              1.0000000
D    1   1.00
      1.3000000              1.0000000
D    1   1.00
      0.3250000              1.0000000
F    1   1.00
      0.5500000              1.0000000
****
Cl     0
S    6   1.00
  25180.1000000              0.0018330
   3780.3500000              0.0140340
    860.4740000              0.0690970
    242.1450000              0.2374520
     77.3349000              0.4830340
     26.2470000              0.3398560
SP   6   1.00
    491.7650000             -0.0022974              0.0039894
    116.9840000             -0.0307140              0.0303180
     37.4153000             -0.1125280              0.1298800
     13.7834000              0.0450160              0.3279510
      5.4521500              0.5893530              0.4535270
      2.2258800              0.4652060              0.2521540
SP   3   1.00
      3.1864900             -0.2518300             -0.0142990
      1.1442700              0.0615890              0.3235720
      0.4203770              1.0601800              0.7435070
SP   1   1.00
      0.1426570              1.0000000              1.0000000
D    1   1.00
      1.5000000              1.0000000
D    1   1.00
      0.3750000              1.0000000
F    1   1.00
      0.7000000              1.0000000
****
}

set {
reference uhf
freeze_core true
e_convergence 10
d_convergence 10
dft_spherical_points 1202
dft_radial_points 99
}

e = energy('b3lyp')

print_out('Grab this energy {0}'.format(e))
--------------------------------------------------------------------------

    Molecular point group: cs

    Geometry (in Bohr), charge = 0, multiplicity = 2:

       Center              X                  Y                   Z               Mass
    ------------   -----------------  -----------------  -----------------  -----------------
         C           -0.323340333489     0.001522018028     0.000000000000    12.000000000000
         C            0.061216971011    -1.400697140672    -2.427247186100    12.000000000000
         C            0.060866219811     2.800439635228     0.000000000000    12.000000000000
         C            0.061216971011    -1.400697140672     2.427247186100    12.000000000000
         H            2.086821985211    -1.642650731472    -2.851201148300     1.007825032230
         H           -0.766846841889    -0.391344964672    -4.029448604800     1.007825032230
         H           -0.764629914289    -3.290904952372    -2.344141079700     1.007825032230
         H            2.087021591411     3.283041074628     0.000000000000     1.007825032230
         H           -0.765138858489     3.680002311128     1.675734242700     1.007825032230
         H           -0.765138858489     3.680002311128    -1.675734242700     1.007825032230
         H            2.086821985211    -1.642650731472     2.851201148300     1.007825032230
         H           -0.764629914289    -3.290904952372     2.344141079700     1.007825032230
         H           -0.766846841889    -0.391344964672     4.029448604800     1.007825032230

  Charge       = 0
  Multiplicity = 2
  Basis Set: ANONYMOUSB1CA45D7
    Blend: 6-31G_2DFP_
  Basis Set: (ANONYMOUSB1CA45D7 AUX)
    Blend: DEF2-UNIVERSAL-JKFIT

    Orbital Energies [Eh]
    ---------------------

    Alpha Occupied:

       1Ap   -10.180342     1App  -10.167121     2Ap   -10.167092
       3Ap   -10.166831     4Ap    -0.797767     5Ap    -0.686308
       2App   -0.686065     6Ap    -0.530776     7Ap    -0.441129
       8Ap    -0.434737     3App   -0.434602     9Ap    -0.382634
       4App   -0.382564     5App   -0.363612    10Ap    -0.338065
       6App   -0.337932    11Ap    -0.168961

    Alpha Virtual:

      12Ap     0.076073     7App    0.134125    13Ap     0.134187
      14Ap     0.142564     8App    0.142689    15Ap     0.154879
      16Ap     0.178739     9App    0.178817    17Ap     0.203548
      10App    0.214804    11App    0.275716    18Ap     0.276254
      12App    0.399195    19Ap     0.399255    20Ap     0.403352
      21Ap     0.424044    13App    0.424152    22Ap     0.456593
      23Ap     0.495330    14App    0.495449    15App    0.512159
      24Ap     0.513979    16App    0.578533    25Ap     0.579101
      17App    0.591339    26Ap     0.591924    27Ap     0.602575
      28Ap     0.624759    18App    0.631777    19App    0.636208
      29Ap     0.636293    30Ap     0.663378    20App    0.663444
      21App    0.683825    31Ap     0.683880    32Ap     0.734994
      33Ap     0.825192    22App    0.825621    23App    0.853916
      24App    0.914885    34Ap     0.915154    25App    0.944123
      35Ap     0.944613    36Ap     0.960614    26App    0.961978
      37Ap     1.003463    38Ap     1.127881    27App    1.128325
      39Ap     1.142220    40Ap     1.163165    28App    1.163389
      41Ap     1.223326    29App    1.274335    42Ap     1.274645
      43Ap     1.279348    44Ap     1.324357    30App    1.324359
      45Ap     1.355996    31App    1.365886    46Ap     1.366220
      32App    1.392456    33App    1.403744    47Ap     1.404365
      34App    1.416710    48Ap     1.417508    35App    1.427909
      36App    1.491494    49Ap     1.499077    50Ap     1.542552
      37App    1.543104    51Ap     1.574436    38App    1.574452
      52Ap     1.669830    39App    1.739052    53Ap     1.739789
      54Ap     1.768310    40App    1.830902    55Ap     1.831894
      41App    1.971727    56Ap     2.018025    42App    2.019097
      57Ap     2.019269    43App    2.051833    58Ap     2.053441
      59Ap     2.738202    44App    2.738764    60Ap     2.790928
      45App    2.811416    46App    2.889705    61Ap     2.890169
      62Ap     2.894991    47App    2.929479    63Ap     2.929514
      48App    2.958994    64Ap     2.964214    49App    2.964533
      65Ap     3.034009    66Ap     3.071159    50App    3.071407
      51App    3.084350    52App    3.168587    67Ap     3.168983
      68Ap     3.180582    53App    3.285270    69Ap     3.285359
      54App    3.326834    70Ap     3.327481    71Ap     3.375620
      55App    3.489974    72Ap     3.490326    56App    3.514025
      73Ap     3.525308    57App    3.567984    74Ap     3.568728
      58App    3.575235    75Ap     3.666183    59App    3.666554
      76Ap     3.679629    60App    3.693705    77Ap     3.694583
      78Ap     3.775557    61App    3.778051    79Ap     3.789152
      62App    3.911966    80Ap     3.912495    81Ap     4.034452
      63App    4.110099    82Ap     4.112626    64App    4.147251
      83Ap     4.148963    84Ap     4.173284    85Ap     4.202629
      65App    4.203011    86Ap     4.203148    66App    4.210859
      67App    4.315139    87Ap     4.316741    68App    4.359027
      88Ap     4.424204    69App    4.424713    70App    4.443446
      71App    4.516417    89Ap     4.517242    72App    4.577932
      90Ap     4.578587    91Ap     4.617524    92Ap     4.709453
      93Ap     4.773553    73App    4.775624    74App    4.836949
      94Ap     4.962859    75App    5.002586    95Ap     5.003318
      96Ap     5.228036    97Ap     5.246351    76App    5.247270
      77App    5.354785    98Ap     5.356215    78App    5.479355

    Beta Occupied:

       1App  -10.167874     1Ap   -10.167857     2Ap   -10.167593
       3Ap   -10.166519     4Ap    -0.781092     5Ap    -0.684104
       2App   -0.683875     6Ap    -0.511747     7Ap    -0.431106
       3App   -0.430982     8Ap    -0.421818     9Ap    -0.376715
       4App   -0.376654     5App   -0.362595    10Ap    -0.333183
       6App   -0.333059

    Beta Virtual:

      11Ap    -0.025742    12Ap     0.077082     7App    0.135023
      13Ap     0.135069    14Ap     0.144434     8App    0.144561
      15Ap     0.163339    16Ap     0.182428     9App    0.182471
      10App    0.215034    17Ap     0.218930    11App    0.282074
      18Ap     0.282592    12App    0.400365    19Ap     0.400431
      20Ap     0.419789    21Ap     0.426856    13App    0.426964
      22Ap     0.468500    23Ap     0.497594    14App    0.497707
      15App    0.513895    24Ap     0.556324    16App    0.584081
      25Ap     0.584653    17App    0.597533    26Ap     0.598090
      27Ap     0.609998    28Ap     0.628135    18App    0.631932
      19App    0.639475    29Ap     0.639599    30Ap     0.666941
      20App    0.667009    21App    0.686439    31Ap     0.686536
      32Ap     0.757517    33Ap     0.830339    22App    0.830811
      23App    0.855269    24App    0.922889    34Ap     0.923091
      25App    0.945961    35Ap     0.953537    36Ap     0.965980
      26App    0.967229    37Ap     1.008703    38Ap     1.131836
      27App    1.132428    39Ap     1.155600    40Ap     1.168318
      28App    1.168379    41Ap     1.232298    29App    1.279934
      42Ap     1.280240    43Ap     1.285102    30App    1.329332
      44Ap     1.329362    45Ap     1.365413    31App    1.371158
      46Ap     1.371433    32App    1.393515    33App    1.407182
      47Ap     1.407856    34App    1.421766    48Ap     1.422554
      35App    1.428177    36App    1.492542    49Ap     1.509521
      50Ap     1.546957    37App    1.547514    51Ap     1.582312
      38App    1.582321    52Ap     1.674677    39App    1.744805
      53Ap     1.745560    54Ap     1.779090    40App    1.834760
      55Ap     1.835747    41App    1.972586    56Ap     2.025371
      42App    2.025513    57Ap     2.039689    43App    2.058520
      58Ap     2.060183    59Ap     2.746556    44App    2.747084
      45App    2.811829    60Ap     2.816062    46App    2.902450
      61Ap     2.902836    62Ap     2.924664    47App    2.931973
      63Ap     2.931980    48App    2.960056    64Ap     2.968777
      49App    2.969060    65Ap     3.041944    66Ap     3.081077
      50App    3.081309    51App    3.086166    52App    3.184307
      67Ap     3.184772    68Ap     3.188257    53App    3.290043
      69Ap     3.290182    54App    3.330655    70Ap     3.331269
      71Ap     3.383439    55App    3.492719    72Ap     3.493039
      56App    3.512392    73Ap     3.528361    57App    3.574904
      58App    3.581469    74Ap     3.582101    59App    3.671083
      75Ap     3.671181    76Ap     3.692922    60App    3.725645
      77Ap     3.725880    78Ap     3.780128    61App    3.782530
      79Ap     3.817699    62App    3.921800    80Ap     3.922293
      81Ap     4.045339    63App    4.117026    82Ap     4.119333
      64App    4.154434    83Ap     4.156203    84Ap     4.187337
      65App    4.208930    85Ap     4.209080    86Ap     4.210620
      66App    4.215334    67App    4.322550    87Ap     4.324204
      68App    4.362394    88Ap     4.432468    69App    4.432879
      70App    4.446331    71App    4.524217    89Ap     4.525021
      72App    4.588536    90Ap     4.589183    91Ap     4.624720
      92Ap     4.719798    93Ap     4.780550    73App    4.782533
      74App    4.839868    94Ap     4.967653    75App    5.006616
      95Ap     5.007367    96Ap     5.233752    97Ap     5.248127
      76App    5.249062    77App    5.361244    98Ap     5.362717
      78App    5.481677

    Final Occupation by Irrep:
             Ap   App
    DOCC [    10,    6 ]
    SOCC [     1,    0 ]

  @DF-UKS Final Energy:  -157.81306947463980

   => Energetics <=

    Nuclear Repulsion Energy =            125.3946060538743978
    One-Electron Energy =                -458.7488778110157455
    Two-Electron Energy =                 195.8483446637154657
    DFT Exchange-Correlation Energy =     -20.3071423812139003
    Empirical Dispersion Energy =           0.0000000000000000
    VV10 Nonlocal Energy =                  0.0000000000000000
    Total Energy =                       -157.8130694746398035

  UHF NO Occupations:
  HONO-2 :    9 Ap 1.9996009
  HONO-1 :   10 Ap 1.9989805
  HONO-0 :   11 Ap 1.0000000
  LUNO+0 :   12 Ap 0.0010195
  LUNO+1 :   13 Ap 0.0003991
  LUNO+2 :    7App 0.0001979
  LUNO+3 :   14 Ap 0.0001972

Computation Completed

Properties will be evaluated at   0.000000,   0.000000,   0.000000 [a0]

Properties computed using the SCF density matrix

  Nuclear Dipole Moment: [e a0]
     X:     0.8272      Y:    -0.0034      Z:    -0.0000

  Electronic Dipole Moment: [e a0]
     X:    -0.7493      Y:     0.0034      Z:     0.0000

  Dipole Moment: [e a0]
     X:     0.0779      Y:     0.0000      Z:    -0.0000     Total:     0.0779

  Dipole Moment: [D]
     X:     0.1980      Y:     0.0001      Z:    -0.0000     Total:     0.1980

*** tstop() called on n032 at Fri Nov  5 15:31:45 2021
Module time:
	user time   =     632.50 seconds =      10.54 minutes
	system time =      12.04 seconds =       0.20 minutes
	total time  =        162 seconds =       2.70 minutes
Total time:
	user time   =     632.50 seconds =      10.54 minutes
	system time =      12.04 seconds =       0.20 minutes
	total time  =        162 seconds =       2.70 minutes
Grab this energy -157.8130694746398
    Psi4 stopped on: Friday, 05 November 2021 03:31PM
    Psi4 wall time for execution: 0:02:42.06

*** Psi4 exiting successfully. Buy a developer a beer!
