                               Psi4 1.4a2.dev629

  ==> Input File <==

--------------------------------------------------------------------------
import os
memory 14 GB

molecule {
 C   -0.3233376294    0.0077740373    0.0000000000
 C    0.0616121089   -1.3994098600   -2.4279131053
 C    0.0600771567    2.8005668642    0.0000000000
 C    0.0616121089   -1.3994098600    2.4279131053
 H    2.0880971920   -1.6473041851   -2.8454497063
 H   -0.7616771341   -0.3883580070   -4.0295784974
 H   -0.7679333158   -3.2898192673   -2.3503475604
 H    2.0844662760    3.2883254143   -0.0000000000
 H   -0.7670056909    3.6765460047    1.6771299867
 H   -0.7670056909    3.6765460047   -1.6771299867
 H    2.0880971920   -1.6473041851    2.8454497063
 H   -0.7679333158   -3.2898192673    2.3503475604
 H   -0.7616771341   -0.3883580070    4.0295784974
units bohr
0 2
}

basis {

assign 6-31g_2dfp_

[ 6-31g_2dfp_ ]

spherical

!----------------------------------------------------------------------
! Basis Set Exchange
! Version v0.8.13
! https://www.basissetexchange.org
!----------------------------------------------------------------------
!   Basis set: 6-31G(2df,p)
! Description: 6-31G(2df,p)
!        Role: orbital
!     Version: 0  (Data from the original Basis Set Exchange)
!----------------------------------------------------------------------

****
H     0
S    3   1.00
     18.7311370              0.03349460
      2.8253937              0.23472695
      0.6401217              0.81375733
S    1   1.00
      0.1612778              1.00000000
P    1   1.00
      1.5000000              1.0000000
P    1   1.00
      0.3750000              1.0000000
****
B     0
S    6   1.00
   2068.8823000              0.0018663
    310.6495700              0.0142515
     70.6830330              0.0695516
     19.8610800              0.2325729
      6.2993048              0.4670787
      2.1270270              0.3634314
SP   3   1.00
      4.7279710             -0.1303938              0.0745976
      1.1903377             -0.1307889              0.3078467
      0.3594117              1.1309444              0.7434568
SP   1   1.00
      0.1267512              1.0000000              1.0000000
D    1   1.00
      0.8020000              1.0000000
D    1   1.00
      0.2005000              1.0000000
F    1   1.00
      0.5000000              1.0000000
****
C     0
S    6   1.00
   3047.5249000              0.0018347
    457.3695100              0.0140373
    103.9486900              0.0688426
     29.2101550              0.2321844
      9.2866630              0.4679413
      3.1639270              0.3623120
SP   3   1.00
      7.8682724             -0.1193324              0.0689991
      1.8812885             -0.1608542              0.3164240
      0.5442493              1.1434564              0.7443083
SP   1   1.00
      0.1687144              1.0000000              1.0000000
D    1   1.00
      1.2520000              1.0000000
D    1   1.00
      0.3130000              1.0000000
F    1   1.00
      0.8000000              1.0000000
****
N     0
S    6   1.00
   4173.5110000              0.0018348
    627.4579000              0.0139950
    142.9021000              0.0685870
     40.2343300              0.2322410
     12.8202100              0.4690700
      4.3904370              0.3604550
SP   3   1.00
     11.6263580             -0.1149610              0.0675800
      2.7162800             -0.1691180              0.3239070
      0.7722180              1.1458520              0.7408950
SP   1   1.00
      0.2120313              1.0000000              1.0000000
D    1   1.00
      1.8260000              1.0000000
D    1   1.00
      0.4565000              1.0000000
F    1   1.00
      1.0000000              1.0000000
****
O     0
S    6   1.00
   5484.6717000              0.0018311
    825.2349500              0.0139501
    188.0469600              0.0684451
     52.9645000              0.2327143
     16.8975700              0.4701930
      5.7996353              0.3585209
SP   3   1.00
     15.5396160             -0.1107775              0.0708743
      3.5999336             -0.1480263              0.3397528
      1.0137618              1.1307670              0.7271586
SP   1   1.00
      0.2700058              1.0000000              1.0000000
D    1   1.00
      2.5840000              1.0000000
D    1   1.00
      0.6460000              1.0000000
F    1   1.00
      1.4000000              1.0000000
****
F     0
S    6   1.00
   7001.7130900              0.0018196169
   1051.3660900              0.0139160796
    239.2856900              0.0684053245
     67.3974453              0.233185760
     21.5199573              0.471267439
      7.40310130             0.356618546
SP   3   1.00
     20.8479528             -0.108506975            0.0716287243
      4.80830834            -0.146451658            0.3459121030
      1.34406986             1.128688580            0.7224699570
SP   1   1.00
      0.358151393            1.0000000              1.0000000
D    1   1.00
      3.5000000              1.0000000
D    1   1.00
      0.8750000              1.0000000
F    1   1.00
      1.8500000              1.0000000
****
Al     0
S    6   1.00
  13983.1000000              0.00194267
   2098.7500000              0.0148599
    477.7050000              0.0728494
    134.3600000              0.2468300
     42.8709000              0.4872580
     14.5189000              0.3234960
SP   6   1.00
    239.6680000             -0.00292619             0.00460285
     57.4419000             -0.0374080              0.0331990
     18.2859000             -0.1144870              0.1362820
      6.5991400              0.1156350              0.3304760
      2.4904900              0.6125950              0.4491460
      0.9445400              0.3937990              0.2657040
SP   3   1.00
      1.2779000             -0.2276060             -0.0175130
      0.3975900              0.00144583             0.2445330
      0.1600950              1.0927900              0.8049340
SP   1   1.00
      0.0556577              1.0000000              1.0000000
D    1   1.00
      0.6500000              1.0000000
D    1   1.00
      0.1625000              1.0000000
F    1   1.00
      0.2500000              1.0000000
****
Si     0
S    6   1.00
  16115.9000000              0.00195948
   2425.5800000              0.01492880
    553.8670000              0.07284780
    156.3400000              0.24613000
     50.0683000              0.48591400
     17.0178000              0.32500200
SP   6   1.00
    292.7180000             -0.00278094             0.00443826
     69.8731000             -0.03571460             0.03266790
     22.3363000             -0.11498500             0.13472100
      8.1503900              0.09356340             0.32867800
      3.1345800              0.60301700             0.44964000
      1.2254300              0.41895900             0.26137200
SP   3   1.00
      1.7273800             -0.24463000            -0.01779510
      0.5729220              0.00431572             0.25353900
      0.2221920              1.09818000             0.80066900
SP   1   1.00
      0.0778369              1.00000000             1.00000000
D    1   1.00
      0.9000000              1.0000000
D    1   1.00
      0.2250000              1.0000000
F    1   1.00
      0.3200000              1.0000000
****
P     0
S    6   1.00
  19413.3000000              0.0018516
   2909.4200000              0.0142062
    661.3640000              0.0699995
    185.7590000              0.2400790
     59.1943000              0.4847620
     20.0310000              0.3352000
SP   6   1.00
    339.4780000             -0.00278217             0.00456462
     81.0101000             -0.0360499              0.03369360
     25.8780000             -0.1166310              0.13975500
      9.4522100              0.0968328              0.33936200
      3.6656600              0.6144180              0.45092100
      1.4674600              0.4037980              0.23858600
SP   3   1.00
      2.1562300             -0.2529230             -0.01776530
      0.7489970              0.0328517              0.27405800
      0.2831450              1.0812500              0.78542100
SP   1   1.00
      0.0998317              1.0000000              1.00000000
D    1   1.00
      1.1000000              1.0000000
D    1   1.00
      0.2750000              1.0000000
F    1   1.00
      0.4500000              1.0000000
****
S     0
S    6   1.00
  21917.1000000              0.0018690
   3301.4900000              0.0142300
    754.1460000              0.0696960
    212.7110000              0.2384870
     67.9896000              0.4833070
     23.0515000              0.3380740
SP   6   1.00
    423.7350000             -0.0023767              0.0040610
    100.7100000             -0.0316930              0.0306810
     32.1599000             -0.1133170              0.1304520
     11.8079000              0.0560900              0.3272050
      4.6311000              0.5922550              0.4528510
      1.8702500              0.4550060              0.2560420
SP   3   1.00
      2.6158400             -0.2503740             -0.0145110
      0.9221670              0.0669570              0.3102630
      0.3412870              1.0545100              0.7544830
SP   1   1.00
      0.1171670              1.0000000              1.0000000
D    1   1.00
      1.3000000              1.0000000
D    1   1.00
      0.3250000              1.0000000
F    1   1.00
      0.5500000              1.0000000
****
Cl     0
S    6   1.00
  25180.1000000              0.0018330
   3780.3500000              0.0140340
    860.4740000              0.0690970
    242.1450000              0.2374520
     77.3349000              0.4830340
     26.2470000              0.3398560
SP   6   1.00
    491.7650000             -0.0022974              0.0039894
    116.9840000             -0.0307140              0.0303180
     37.4153000             -0.1125280              0.1298800
     13.7834000              0.0450160              0.3279510
      5.4521500              0.5893530              0.4535270
      2.2258800              0.4652060              0.2521540
SP   3   1.00
      3.1864900             -0.2518300             -0.0142990
      1.1442700              0.0615890              0.3235720
      0.4203770              1.0601800              0.7435070
SP   1   1.00
      0.1426570              1.0000000              1.0000000
D    1   1.00
      1.5000000              1.0000000
D    1   1.00
      0.3750000              1.0000000
F    1   1.00
      0.7000000              1.0000000
****
}

set {
reference uhf
freeze_core true
e_convergence 10
d_convergence 10
dft_spherical_points 1202
dft_radial_points 99
}

e = energy('b3lyp')

print_out('Grab this energy {0}'.format(e))
--------------------------------------------------------------------------

    Molecular point group: cs

    Geometry (in Bohr), charge = 0, multiplicity = 2:

       Center              X                  Y                   Z               Mass
    ------------   -----------------  -----------------  -----------------  -----------------
         C           -0.323338347818     0.005940618527     0.000000000000    12.000000000000
         C            0.061611390482    -1.401243278773    -2.427913105300    12.000000000000
         C            0.060076438282     2.798733445427     0.000000000000    12.000000000000
         C            0.061611390482    -1.401243278773     2.427913105300    12.000000000000
         H            2.088096473582    -1.649137603873    -2.845449706300     1.007825032230
         H           -0.761677852518    -0.390191425773    -4.029578497400     1.007825032230
         H           -0.767934034218    -3.291652686073    -2.350347560400     1.007825032230
         H            2.084465557582     3.286491995527     0.000000000000     1.007825032230
         H           -0.767006409318     3.674712585927     1.677129986700     1.007825032230
         H           -0.767006409318     3.674712585927    -1.677129986700     1.007825032230
         H            2.088096473582    -1.649137603873     2.845449706300     1.007825032230
         H           -0.767934034218    -3.291652686073     2.350347560400     1.007825032230
         H           -0.761677852518    -0.390191425773     4.029578497400     1.007825032230

  Charge       = 0
  Multiplicity = 2
  Basis Set: ANONYMOUS0C04783B
    Blend: 6-31G_2DFP_
  Basis Set: (ANONYMOUS0C04783B AUX)
    Blend: DEF2-UNIVERSAL-JKFIT

    Orbital Energies [Eh]
    ---------------------

    Alpha Occupied:

       1Ap   -10.180340     1App  -10.167155     2Ap   -10.167126
       3Ap   -10.166763     4Ap    -0.797775     5Ap    -0.686516
       2App   -0.685856     6Ap    -0.530775     7Ap    -0.441132
       3App   -0.434961     8Ap    -0.434382     9Ap    -0.382760
       4App   -0.382438     5App   -0.363610    10Ap    -0.338666
       6App   -0.337329    11Ap    -0.168959

    Alpha Virtual:

      12Ap     0.076072     7App    0.134107    13Ap     0.134204
       8App    0.142464    14Ap     0.142788    15Ap     0.154879
       9App    0.178775    16Ap     0.178780    17Ap     0.203539
      10App    0.214801    11App    0.275359    18Ap     0.276611
      12App    0.399099    19Ap     0.399341    20Ap     0.403361
      13App    0.424064    21Ap     0.424133    22Ap     0.456593
      23Ap     0.495385    14App    0.495392    15App    0.512160
      24Ap     0.513975    16App    0.578424    25Ap     0.579185
      17App    0.591430    26Ap     0.591876    27Ap     0.602584
      28Ap     0.624759    18App    0.631765    19App    0.636018
      29Ap     0.636504    20App    0.663276    30Ap     0.663551
      31Ap     0.683780    21App    0.683922    32Ap     0.734995
      22App    0.825267    33Ap     0.825545    23App    0.853917
      24App    0.915005    34Ap     0.915042    25App    0.944125
      35Ap     0.944619    26App    0.961073    36Ap     0.961515
      37Ap     1.003457    27App    1.127906    38Ap     1.128209
      39Ap     1.142284    28App    1.163018    40Ap     1.163562
      41Ap     1.223322    42Ap     1.274213    29App    1.274778
      43Ap     1.279342    30App    1.324138    44Ap     1.324583
      45Ap     1.355989    31App    1.365465    46Ap     1.366633
      32App    1.392454    33App    1.403650    47Ap     1.404408
      48Ap     1.417064    34App    1.417158    35App    1.427944
      36App    1.491485    49Ap     1.499087    37App    1.542701
      50Ap     1.542976    51Ap     1.574204    38App    1.574696
      52Ap     1.669826    39App    1.738949    53Ap     1.739891
      54Ap     1.768305    40App    1.830717    55Ap     1.832071
      41App    1.971724    56Ap     2.017977    57Ap     2.018816
      42App    2.019572    43App    2.051166    58Ap     2.054186
      44App    2.738190    59Ap     2.738771    60Ap     2.790933
      45App    2.811413    46App    2.888973    61Ap     2.890842
      62Ap     2.895019    47App    2.929277    63Ap     2.929718
      48App    2.958993    64Ap     2.963950    49App    2.964804
      65Ap     3.033988    50App    3.070482    66Ap     3.072106
      51App    3.084350    67Ap     3.168601    52App    3.168810
      68Ap     3.180778    53App    3.284963    69Ap     3.285656
      54App    3.327104    70Ap     3.327205    71Ap     3.375593
      55App    3.489371    72Ap     3.490942    56App    3.514013
      73Ap     3.525329    57App    3.567779    74Ap     3.568986
      58App    3.575124    75Ap     3.665836    59App    3.666888
      76Ap     3.679687    60App    3.693818    77Ap     3.694390
      78Ap     3.776049    61App    3.777406    79Ap     3.789316
      62App    3.911277    80Ap     3.913193    81Ap     4.034403
      63App    4.110024    82Ap     4.112691    64App    4.146572
      83Ap     4.149657    84Ap     4.173287    65App    4.202096
      85Ap     4.202172    86Ap     4.204493    66App    4.210933
      67App    4.314914    87Ap     4.317053    68App    4.358970
      88Ap     4.424008    69App    4.424840    70App    4.443473
      71App    4.515969    89Ap     4.517724    72App    4.577769
      90Ap     4.578259    91Ap     4.617985    92Ap     4.709487
      73App    4.774638    93Ap     4.774713    74App    4.836910
      94Ap     4.962770    75App    5.002590    95Ap     5.003423
      96Ap     5.228025    97Ap     5.246721    76App    5.246907
      77App    5.353996    98Ap     5.357036    78App    5.479363

    Beta Occupied:

       1App  -10.167905     1Ap   -10.167887     2Ap   -10.167530
       3Ap   -10.166517     4Ap    -0.781100     5Ap    -0.684296
       2App   -0.683681     6Ap    -0.511746     3App   -0.431335
       7Ap    -0.430756     8Ap    -0.421821     9Ap    -0.376793
       4App   -0.376576     5App   -0.362594    10Ap    -0.333799
       6App   -0.332442

    Beta Virtual:

      11Ap    -0.025742    12Ap     0.077081     7App    0.134976
      13Ap     0.135114     8App    0.144355    14Ap     0.144638
      15Ap     0.163338     9App    0.182427    16Ap     0.182472
      10App    0.215030    17Ap     0.218922    11App    0.281752
      18Ap     0.282912    12App    0.400276    19Ap     0.400515
      20Ap     0.419794    13App    0.426850    21Ap     0.426969
      22Ap     0.468501    14App    0.497643    23Ap     0.497657
      15App    0.513895    24Ap     0.556313    16App    0.583941
      25Ap     0.584779    17App    0.597617    26Ap     0.598042
      27Ap     0.610006    28Ap     0.628132    18App    0.631925
      19App    0.639266    29Ap     0.639831    20App    0.666845
      30Ap     0.667111    31Ap     0.686427    21App    0.686547
      32Ap     0.757517    22App    0.830467    33Ap     0.830681
      23App    0.855270    34Ap     0.922990    24App    0.922999
      25App    0.945961    35Ap     0.953548    26App    0.966342
      36Ap     0.966859    37Ap     1.008696    27App    1.132012
      38Ap     1.132198    39Ap     1.155623    28App    1.168032
      40Ap     1.168694    41Ap     1.232293    42Ap     1.279865
      29App    1.280317    43Ap     1.285101    30App    1.329152
      44Ap     1.329548    45Ap     1.365404    31App    1.370796
      46Ap     1.371792    32App    1.393512    33App    1.407025
      47Ap     1.407955    48Ap     1.422114    34App    1.422204
      35App    1.428224    36App    1.492533    49Ap     1.509530
      37App    1.547134    50Ap     1.547359    51Ap     1.582149
      38App    1.582496    52Ap     1.674674    39App    1.744693
      53Ap     1.745669    54Ap     1.779085    40App    1.834551
      55Ap     1.835948    41App    1.972583    56Ap     2.024931
      42App    2.025912    57Ap     2.039677    43App    2.057931
      58Ap     2.060874    44App    2.746466    59Ap     2.747168
      45App    2.811827    60Ap     2.816065    46App    2.901805
      61Ap     2.903452    62Ap     2.924626    47App    2.931703
      63Ap     2.932292    48App    2.960055    64Ap     2.968512
      49App    2.969330    65Ap     3.041922    50App    3.080510
      66Ap     3.081897    51App    3.086165    67Ap     3.184186
      52App    3.184403    68Ap     3.188783    53App    3.289800
      69Ap     3.290417    54App    3.330917    70Ap     3.331000
      71Ap     3.383415    55App    3.492068    72Ap     3.493701
      56App    3.512382    73Ap     3.528376    57App    3.574983
      58App    3.581105    74Ap     3.582344    75Ap     3.670800
      59App    3.671434    76Ap     3.692954    60App    3.725728
      77Ap     3.725748    78Ap     3.780704    61App    3.781894
      79Ap     3.817756    62App    3.921140    80Ap     3.922978
      81Ap     4.045289    63App    4.116887    82Ap     4.119463
      64App    4.153875    83Ap     4.156778    84Ap     4.187340
      65App    4.208019    85Ap     4.209237    86Ap     4.211331
      66App    4.215423    67App    4.322257    87Ap     4.324590
      68App    4.362332    88Ap     4.432243    69App    4.433008
      70App    4.446388    71App    4.523723    89Ap     4.525548
      72App    4.588365    90Ap     4.588817    91Ap     4.625224
      92Ap     4.719835    73App    4.781514    93Ap     4.781746
      74App    4.839828    94Ap     4.967559    75App    5.006596
      95Ap     5.007501    96Ap     5.233739    97Ap     5.248488
      76App    5.248707    77App    5.360430    98Ap     5.363566
      78App    5.481685

    Final Occupation by Irrep:
             Ap   App
    DOCC [    10,    6 ]
    SOCC [     1,    0 ]

  @DF-UKS Final Energy:  -157.81305500095149

   => Energetics <=

    Nuclear Repulsion Energy =            125.3948291765673986
    One-Electron Energy =                -458.7492768511041277
    Two-Electron Energy =                 195.8485446224751172
    DFT Exchange-Correlation Energy =     -20.3071519488898566
    Empirical Dispersion Energy =           0.0000000000000000
    VV10 Nonlocal Energy =                  0.0000000000000000
    Total Energy =                       -157.8130550009514934

  UHF NO Occupations:
  HONO-2 :    9 Ap 1.9996008
  HONO-1 :   10 Ap 1.9989804
  HONO-0 :   11 Ap 1.0000000
  LUNO+0 :   12 Ap 0.0010196
  LUNO+1 :   13 Ap 0.0003992
  LUNO+2 :    7App 0.0001992
  LUNO+3 :   14 Ap 0.0001959

Computation Completed

Properties will be evaluated at   0.000000,   0.000000,   0.000000 [a0]

Properties computed using the SCF density matrix

  Nuclear Dipole Moment: [e a0]
     X:     0.8272      Y:    -0.0129      Z:    -0.0000

  Electronic Dipole Moment: [e a0]
     X:    -0.7493      Y:     0.0141      Z:     0.0000

  Dipole Moment: [e a0]
     X:     0.0779      Y:     0.0012      Z:    -0.0000     Total:     0.0779

  Dipole Moment: [D]
     X:     0.1980      Y:     0.0030      Z:    -0.0000     Total:     0.1981

*** tstop() called on n071 at Fri Nov  5 13:50:04 2021
Module time:
	user time   =     572.88 seconds =       9.55 minutes
	system time =      13.35 seconds =       0.22 minutes
	total time  =        147 seconds =       2.45 minutes
Total time:
	user time   =     572.88 seconds =       9.55 minutes
	system time =      13.35 seconds =       0.22 minutes
	total time  =        147 seconds =       2.45 minutes
Grab this energy -157.8130550009515
    Psi4 stopped on: Friday, 05 November 2021 01:50PM
    Psi4 wall time for execution: 0:02:27.70

*** Psi4 exiting successfully. Buy a developer a beer!
