                               Psi4 1.4a2.dev629

  ==> Input File <==

--------------------------------------------------------------------------
import os
memory 14 GB

molecule {
 C   -0.3243653962   -0.0000026224   -0.0019974362
 C    0.0599453494   -1.4000883156   -2.4261681421
 C    0.0599591266    2.8019129003   -0.0011546481
 C    0.0602139345   -1.4018213036    2.4268604379
 H    2.0904412890   -1.6405394915   -2.8453832426
 H   -0.7666056619   -0.3925495874   -4.0261525144
 H   -0.7653987377   -3.2882979790   -2.3478123751
 H    2.0901070883    3.2885241320   -0.0041019008
 H   -0.7652269251    3.6743838269    1.6749352770
 H   -0.7679704283    3.6856159872   -1.6733474627
 H    2.0900509720   -1.6480722342    2.8502264197
 H   -0.7676475558   -3.2913757658    2.3520778624
 H   -0.7661109315   -0.3877138607    4.0220177250
units bohr
0 2
}

basis {

assign 6-31g_2dfp_

[ 6-31g_2dfp_ ]

spherical

!----------------------------------------------------------------------
! Basis Set Exchange
! Version v0.8.13
! https://www.basissetexchange.org
!----------------------------------------------------------------------
!   Basis set: 6-31G(2df,p)
! Description: 6-31G(2df,p)
!        Role: orbital
!     Version: 0  (Data from the original Basis Set Exchange)
!----------------------------------------------------------------------

****
H     0
S    3   1.00
     18.7311370              0.03349460
      2.8253937              0.23472695
      0.6401217              0.81375733
S    1   1.00
      0.1612778              1.00000000
P    1   1.00
      1.5000000              1.0000000
P    1   1.00
      0.3750000              1.0000000
****
B     0
S    6   1.00
   2068.8823000              0.0018663
    310.6495700              0.0142515
     70.6830330              0.0695516
     19.8610800              0.2325729
      6.2993048              0.4670787
      2.1270270              0.3634314
SP   3   1.00
      4.7279710             -0.1303938              0.0745976
      1.1903377             -0.1307889              0.3078467
      0.3594117              1.1309444              0.7434568
SP   1   1.00
      0.1267512              1.0000000              1.0000000
D    1   1.00
      0.8020000              1.0000000
D    1   1.00
      0.2005000              1.0000000
F    1   1.00
      0.5000000              1.0000000
****
C     0
S    6   1.00
   3047.5249000              0.0018347
    457.3695100              0.0140373
    103.9486900              0.0688426
     29.2101550              0.2321844
      9.2866630              0.4679413
      3.1639270              0.3623120
SP   3   1.00
      7.8682724             -0.1193324              0.0689991
      1.8812885             -0.1608542              0.3164240
      0.5442493              1.1434564              0.7443083
SP   1   1.00
      0.1687144              1.0000000              1.0000000
D    1   1.00
      1.2520000              1.0000000
D    1   1.00
      0.3130000              1.0000000
F    1   1.00
      0.8000000              1.0000000
****
N     0
S    6   1.00
   4173.5110000              0.0018348
    627.4579000              0.0139950
    142.9021000              0.0685870
     40.2343300              0.2322410
     12.8202100              0.4690700
      4.3904370              0.3604550
SP   3   1.00
     11.6263580             -0.1149610              0.0675800
      2.7162800             -0.1691180              0.3239070
      0.7722180              1.1458520              0.7408950
SP   1   1.00
      0.2120313              1.0000000              1.0000000
D    1   1.00
      1.8260000              1.0000000
D    1   1.00
      0.4565000              1.0000000
F    1   1.00
      1.0000000              1.0000000
****
O     0
S    6   1.00
   5484.6717000              0.0018311
    825.2349500              0.0139501
    188.0469600              0.0684451
     52.9645000              0.2327143
     16.8975700              0.4701930
      5.7996353              0.3585209
SP   3   1.00
     15.5396160             -0.1107775              0.0708743
      3.5999336             -0.1480263              0.3397528
      1.0137618              1.1307670              0.7271586
SP   1   1.00
      0.2700058              1.0000000              1.0000000
D    1   1.00
      2.5840000              1.0000000
D    1   1.00
      0.6460000              1.0000000
F    1   1.00
      1.4000000              1.0000000
****
F     0
S    6   1.00
   7001.7130900              0.0018196169
   1051.3660900              0.0139160796
    239.2856900              0.0684053245
     67.3974453              0.233185760
     21.5199573              0.471267439
      7.40310130             0.356618546
SP   3   1.00
     20.8479528             -0.108506975            0.0716287243
      4.80830834            -0.146451658            0.3459121030
      1.34406986             1.128688580            0.7224699570
SP   1   1.00
      0.358151393            1.0000000              1.0000000
D    1   1.00
      3.5000000              1.0000000
D    1   1.00
      0.8750000              1.0000000
F    1   1.00
      1.8500000              1.0000000
****
Al     0
S    6   1.00
  13983.1000000              0.00194267
   2098.7500000              0.0148599
    477.7050000              0.0728494
    134.3600000              0.2468300
     42.8709000              0.4872580
     14.5189000              0.3234960
SP   6   1.00
    239.6680000             -0.00292619             0.00460285
     57.4419000             -0.0374080              0.0331990
     18.2859000             -0.1144870              0.1362820
      6.5991400              0.1156350              0.3304760
      2.4904900              0.6125950              0.4491460
      0.9445400              0.3937990              0.2657040
SP   3   1.00
      1.2779000             -0.2276060             -0.0175130
      0.3975900              0.00144583             0.2445330
      0.1600950              1.0927900              0.8049340
SP   1   1.00
      0.0556577              1.0000000              1.0000000
D    1   1.00
      0.6500000              1.0000000
D    1   1.00
      0.1625000              1.0000000
F    1   1.00
      0.2500000              1.0000000
****
Si     0
S    6   1.00
  16115.9000000              0.00195948
   2425.5800000              0.01492880
    553.8670000              0.07284780
    156.3400000              0.24613000
     50.0683000              0.48591400
     17.0178000              0.32500200
SP   6   1.00
    292.7180000             -0.00278094             0.00443826
     69.8731000             -0.03571460             0.03266790
     22.3363000             -0.11498500             0.13472100
      8.1503900              0.09356340             0.32867800
      3.1345800              0.60301700             0.44964000
      1.2254300              0.41895900             0.26137200
SP   3   1.00
      1.7273800             -0.24463000            -0.01779510
      0.5729220              0.00431572             0.25353900
      0.2221920              1.09818000             0.80066900
SP   1   1.00
      0.0778369              1.00000000             1.00000000
D    1   1.00
      0.9000000              1.0000000
D    1   1.00
      0.2250000              1.0000000
F    1   1.00
      0.3200000              1.0000000
****
P     0
S    6   1.00
  19413.3000000              0.0018516
   2909.4200000              0.0142062
    661.3640000              0.0699995
    185.7590000              0.2400790
     59.1943000              0.4847620
     20.0310000              0.3352000
SP   6   1.00
    339.4780000             -0.00278217             0.00456462
     81.0101000             -0.0360499              0.03369360
     25.8780000             -0.1166310              0.13975500
      9.4522100              0.0968328              0.33936200
      3.6656600              0.6144180              0.45092100
      1.4674600              0.4037980              0.23858600
SP   3   1.00
      2.1562300             -0.2529230             -0.01776530
      0.7489970              0.0328517              0.27405800
      0.2831450              1.0812500              0.78542100
SP   1   1.00
      0.0998317              1.0000000              1.00000000
D    1   1.00
      1.1000000              1.0000000
D    1   1.00
      0.2750000              1.0000000
F    1   1.00
      0.4500000              1.0000000
****
S     0
S    6   1.00
  21917.1000000              0.0018690
   3301.4900000              0.0142300
    754.1460000              0.0696960
    212.7110000              0.2384870
     67.9896000              0.4833070
     23.0515000              0.3380740
SP   6   1.00
    423.7350000             -0.0023767              0.0040610
    100.7100000             -0.0316930              0.0306810
     32.1599000             -0.1133170              0.1304520
     11.8079000              0.0560900              0.3272050
      4.6311000              0.5922550              0.4528510
      1.8702500              0.4550060              0.2560420
SP   3   1.00
      2.6158400             -0.2503740             -0.0145110
      0.9221670              0.0669570              0.3102630
      0.3412870              1.0545100              0.7544830
SP   1   1.00
      0.1171670              1.0000000              1.0000000
D    1   1.00
      1.3000000              1.0000000
D    1   1.00
      0.3250000              1.0000000
F    1   1.00
      0.5500000              1.0000000
****
Cl     0
S    6   1.00
  25180.1000000              0.0018330
   3780.3500000              0.0140340
    860.4740000              0.0690970
    242.1450000              0.2374520
     77.3349000              0.4830340
     26.2470000              0.3398560
SP   6   1.00
    491.7650000             -0.0022974              0.0039894
    116.9840000             -0.0307140              0.0303180
     37.4153000             -0.1125280              0.1298800
     13.7834000              0.0450160              0.3279510
      5.4521500              0.5893530              0.4535270
      2.2258800              0.4652060              0.2521540
SP   3   1.00
      3.1864900             -0.2518300             -0.0142990
      1.1442700              0.0615890              0.3235720
      0.4203770              1.0601800              0.7435070
SP   1   1.00
      0.1426570              1.0000000              1.0000000
D    1   1.00
      1.5000000              1.0000000
D    1   1.00
      0.3750000              1.0000000
F    1   1.00
      0.7000000              1.0000000
****
}

set {
reference uhf
freeze_core true
e_convergence 10
d_convergence 10
dft_spherical_points 1202
dft_radial_points 99
}

e = energy('b3lyp')

print_out('Grab this energy {0}'.format(e))
--------------------------------------------------------------------------

    Molecular point group: c1

    Geometry (in Bohr), charge = 0, multiplicity = 2:

       Center              X                  Y                   Z               Mass
    ------------   -----------------  -----------------  -----------------  -----------------
         C           -0.323555097534    -0.000002319905    -0.001523663218    12.000000000000
         C            0.060755648066    -1.400088013105    -2.425694369118    12.000000000000
         C            0.060769425266     2.801913202795    -0.000680875118    12.000000000000
         C            0.061024233166    -1.401821001105     2.427334210882    12.000000000000
         H            2.091251587666    -1.640539189005    -2.844909469618     1.007825032230
         H           -0.765795363234    -0.392549284905    -4.025678741418     1.007825032230
         H           -0.764588439034    -3.288297676505    -2.347338602118     1.007825032230
         H            2.090917386966     3.288524434495    -0.003628127818     1.007825032230
         H           -0.764416626434     3.674384129395     1.675409049982     1.007825032230
         H           -0.767160129634     3.685616289695    -1.672873689718     1.007825032230
         H            2.090861270666    -1.648071931705     2.850700192682     1.007825032230
         H           -0.766837257134    -3.291375463305     2.352551635382     1.007825032230
         H           -0.765300632834    -0.387713558205     4.022491497982     1.007825032230

  Charge       = 0
  Multiplicity = 2
  Basis Set: ANONYMOUSADCCDF7F
    Blend: 6-31G_2DFP_
  Basis Set: (ANONYMOUSADCCDF7F AUX)
    Blend: DEF2-UNIVERSAL-JKFIT

    Orbital Energies [Eh]
    ---------------------

    Alpha Occupied:

       1A    -10.180401     2A    -10.167178     3A    -10.167019
       4A    -10.166858     5A     -0.797730     6A     -0.686304
       7A     -0.686060     8A     -0.530769     9A     -0.441030
      10A     -0.434784    11A     -0.434645    12A     -0.382497
      13A     -0.382425    14A     -0.363790    15A     -0.338117
      16A     -0.337987    17A     -0.168998

    Alpha Virtual:

      18A      0.076157    19A      0.134114    20A      0.134181
      21A      0.142640    22A      0.142761    23A      0.154712
      24A      0.178562    25A      0.178646    26A      0.203506
      27A      0.215078    28A      0.275692    29A      0.276229
      30A      0.399068    31A      0.399141    32A      0.403264
      33A      0.424231    34A      0.424342    35A      0.456517
      36A      0.495511    37A      0.495628    38A      0.512041
      39A      0.513826    40A      0.578355    41A      0.578932
      42A      0.591073    43A      0.591661    44A      0.601823
      45A      0.625270    46A      0.632164    47A      0.636587
      48A      0.636660    49A      0.662894    50A      0.662957
      51A      0.684074    52A      0.684134    53A      0.735056
      54A      0.825160    55A      0.825585    56A      0.853637
      57A      0.914658    58A      0.914936    59A      0.944411
      60A      0.944752    61A      0.960508    62A      0.961891
      63A      1.003275    64A      1.128142    65A      1.128563
      66A      1.141501    67A      1.163433    68A      1.163654
      69A      1.223740    70A      1.274092    71A      1.274408
      72A      1.279186    73A      1.324133    74A      1.324149
      75A      1.356513    76A      1.365803    77A      1.366140
      78A      1.392400    79A      1.402715    80A      1.403336
      81A      1.417695    82A      1.418497    83A      1.427696
      84A      1.491483    85A      1.498152    86A      1.542191
      87A      1.542737    88A      1.574805    89A      1.574815
      90A      1.671094    91A      1.738209    92A      1.738947
      93A      1.766455    94A      1.832302    95A      1.833291
      96A      1.972744    97A      2.017963    98A      2.019011
      99A      2.019290   100A      2.050580   101A      2.052233
     102A      2.738525   103A      2.739079   104A      2.790539
     105A      2.811871   106A      2.889297   107A      2.889831
     108A      2.894646   109A      2.929683   110A      2.929728
     111A      2.958864   112A      2.963808   113A      2.964108
     114A      3.033320   115A      3.071117   116A      3.071389
     117A      3.085757   118A      3.168455   119A      3.168865
     120A      3.180539   121A      3.285175   122A      3.285265
     123A      3.327465   124A      3.328112   125A      3.375786
     126A      3.489768   127A      3.490081   128A      3.512812
     129A      3.526510   130A      3.567638   131A      3.568254
     132A      3.574422   133A      3.665845   134A      3.666132
     135A      3.680230   136A      3.693936   137A      3.694752
     138A      3.775986   139A      3.778463   140A      3.788368
     141A      3.912531   142A      3.913059   143A      4.034872
     144A      4.110047   145A      4.112570   146A      4.146610
     147A      4.148370   148A      4.171510   149A      4.202677
     150A      4.203863   151A      4.203964   152A      4.209670
     153A      4.314723   154A      4.316300   155A      4.360266
     156A      4.423481   157A      4.423980   158A      4.443699
     159A      4.515748   160A      4.516607   161A      4.578622
     162A      4.579288   163A      4.617389   164A      4.708939
     165A      4.773638   166A      4.775813   167A      4.838308
     168A      4.963168   169A      5.001297   170A      5.001995
     171A      5.225323   172A      5.249351   173A      5.250274
     174A      5.352837   175A      5.354266   176A      5.481316

    Beta Occupied:

       1A    -10.167937     2A    -10.167779     3A    -10.167622
       4A    -10.166584     5A     -0.781062     6A     -0.684112
       7A     -0.683883     8A     -0.511789     9A     -0.431173
      10A     -0.431054    11A     -0.421661    12A     -0.376553
      13A     -0.376490    14A     -0.362783    15A     -0.333232
      16A     -0.333110

    Beta Virtual:

      17A     -0.025872    18A      0.077183    19A      0.135084
      20A      0.135134    21A      0.144483    22A      0.144607
      23A      0.163192    24A      0.182223    25A      0.182271
      26A      0.215300    27A      0.218886    28A      0.282055
      29A      0.282572    30A      0.400244    31A      0.400316
      32A      0.419797    33A      0.427041    34A      0.427156
      35A      0.468326    36A      0.497783    37A      0.497896
      38A      0.513784    39A      0.556132    40A      0.583931
      41A      0.584512    42A      0.597259    43A      0.597818
      44A      0.609368    45A      0.628523    46A      0.632319
      47A      0.639816    48A      0.639927    49A      0.666487
      50A      0.666553    51A      0.686676    52A      0.686778
      53A      0.757575    54A      0.830328    55A      0.830797
      56A      0.854999    57A      0.922681    58A      0.922890
      59A      0.946240    60A      0.953725    61A      0.965837
      62A      0.967111    63A      1.008476    64A      1.132133
      65A      1.132702    66A      1.154960    67A      1.168563
      68A      1.168620    69A      1.232696    70A      1.279668
      71A      1.279982    72A      1.284884    73A      1.329168
      74A      1.329186    75A      1.365912    76A      1.371146
      77A      1.371425    78A      1.393476    79A      1.406098
      80A      1.406766    81A      1.422715    82A      1.423511
      83A      1.427971    84A      1.492505    85A      1.508603
      86A      1.546627    87A      1.547178    88A      1.582663
      89A      1.582668    90A      1.675991    91A      1.743957
      92A      1.744711    93A      1.777223    94A      1.836161
      95A      1.837146    96A      1.973590    97A      2.025195
      98A      2.025352    99A      2.039598   100A      2.057397
     101A      2.059098   102A      2.746887   103A      2.747409
     104A      2.812287   105A      2.815634   106A      2.902035
     107A      2.902450   108A      2.924121   109A      2.932178
     110A      2.932197   111A      2.959922   112A      2.968334
     113A      2.968599   114A      3.041470   115A      3.081023
     116A      3.081278   117A      3.087573   118A      3.184192
     119A      3.184667   120A      3.188198   121A      3.289980
     122A      3.290120   123A      3.331251   124A      3.331864
     125A      3.383579   126A      3.492475   127A      3.492753
     128A      3.511178   129A      3.529549   130A      3.574088
     131A      3.581196   132A      3.581895   133A      3.670594
     134A      3.670735   135A      3.693503   136A      3.725843
     137A      3.726060   138A      3.780494   139A      3.782880
     140A      3.816940   141A      3.922420   142A      3.922915
     143A      4.045821   144A      4.116980   145A      4.119277
     146A      4.153788   147A      4.155599   148A      4.185586
     149A      4.209896   150A      4.210024   151A      4.210602
     152A      4.214269   153A      4.322072   154A      4.323697
     155A      4.363589   156A      4.431740   157A      4.432147
     158A      4.446533   159A      4.523581   160A      4.524422
     161A      4.589182   162A      4.589844   163A      4.624493
     164A      4.719399   165A      4.780584   166A      4.782675
     167A      4.841215   168A      4.967975   169A      5.005354
     170A      5.006069   171A      5.231004   172A      5.251113
     173A      5.252052   174A      5.359267   175A      5.360740
     176A      5.483625

    Final Occupation by Irrep:
              A
    DOCC [    16 ]
    SOCC [     1 ]

  @DF-UKS Final Energy:  -157.81305599096723

   => Energetics <=

    Nuclear Repulsion Energy =            125.3893059129105865
    One-Electron Energy =                -458.7382089746023439
    Two-Electron Energy =                 195.8428842271257793
    DFT Exchange-Correlation Energy =     -20.3070371564012291
    Empirical Dispersion Energy =           0.0000000000000000
    VV10 Nonlocal Energy =                  0.0000000000000000
    Total Energy =                       -157.8130559909672286

  UHF NO Occupations:
  HONO-2 :   15  A 1.9995985
  HONO-1 :   16  A 1.9989796
  HONO-0 :   17  A 1.0000000
  LUNO+0 :   18  A 0.0010204
  LUNO+1 :   19  A 0.0004015
  LUNO+2 :   20  A 0.0001979
  LUNO+3 :   21  A 0.0001972

Computation Completed

Properties will be evaluated at   0.000000,   0.000000,   0.000000 [a0]

Properties computed using the SCF density matrix

  Nuclear Dipole Moment: [e a0]
     X:     0.8329      Y:    -0.0000      Z:     0.0033

  Electronic Dipole Moment: [e a0]
     X:    -0.7582      Y:     0.0000      Z:    -0.0034

  Dipole Moment: [e a0]
     X:     0.0747      Y:    -0.0000      Z:    -0.0000     Total:     0.0747

  Dipole Moment: [D]
     X:     0.1899      Y:    -0.0000      Z:    -0.0001     Total:     0.1899

*** tstop() called on n033 at Fri Nov  5 14:52:15 2021
Module time:
	user time   =     631.99 seconds =      10.53 minutes
	system time =      12.21 seconds =       0.20 minutes
	total time  =        162 seconds =       2.70 minutes
Total time:
	user time   =     631.99 seconds =      10.53 minutes
	system time =      12.21 seconds =       0.20 minutes
	total time  =        162 seconds =       2.70 minutes
Grab this energy -157.81305599096723
    Psi4 stopped on: Friday, 05 November 2021 02:52PM
    Psi4 wall time for execution: 0:02:41.96

*** Psi4 exiting successfully. Buy a developer a beer!
