                               Psi4 1.4a2.dev629

  ==> Input File <==

--------------------------------------------------------------------------
import os
memory 14 GB

molecule {
 C   -0.3230390205   -0.0002571203   -0.0000000000
 C    0.0599770329   -1.3975814499   -2.4220002850
 C    0.0629313539    2.7963072512    0.0000000000
 C    0.0599770329   -1.3975814499    2.4220002850
 H    2.0867471664   -1.6409782829   -2.8416231405
 H   -0.7650363394   -0.3856094099   -4.0201105008
 H   -0.7649658553   -3.2888638180   -2.3438286817
 H    2.0863045172    3.2815161937   -0.0000000000
 H   -0.7661243683    3.6742376416    1.6759046343
 H   -0.7661243683    3.6742376416   -1.6759046343
 H    2.0867471664   -1.6409782829    2.8416231405
 H   -0.7649658553   -3.2888638180    2.3438286817
 H   -0.7650363394   -0.3856094099    4.0201105008
units bohr
0 2
}

basis {

assign 6-31g_2dfp_

[ 6-31g_2dfp_ ]

spherical

!----------------------------------------------------------------------
! Basis Set Exchange
! Version v0.8.13
! https://www.basissetexchange.org
!----------------------------------------------------------------------
!   Basis set: 6-31G(2df,p)
! Description: 6-31G(2df,p)
!        Role: orbital
!     Version: 0  (Data from the original Basis Set Exchange)
!----------------------------------------------------------------------

****
H     0
S    3   1.00
     18.7311370              0.03349460
      2.8253937              0.23472695
      0.6401217              0.81375733
S    1   1.00
      0.1612778              1.00000000
P    1   1.00
      1.5000000              1.0000000
P    1   1.00
      0.3750000              1.0000000
****
B     0
S    6   1.00
   2068.8823000              0.0018663
    310.6495700              0.0142515
     70.6830330              0.0695516
     19.8610800              0.2325729
      6.2993048              0.4670787
      2.1270270              0.3634314
SP   3   1.00
      4.7279710             -0.1303938              0.0745976
      1.1903377             -0.1307889              0.3078467
      0.3594117              1.1309444              0.7434568
SP   1   1.00
      0.1267512              1.0000000              1.0000000
D    1   1.00
      0.8020000              1.0000000
D    1   1.00
      0.2005000              1.0000000
F    1   1.00
      0.5000000              1.0000000
****
C     0
S    6   1.00
   3047.5249000              0.0018347
    457.3695100              0.0140373
    103.9486900              0.0688426
     29.2101550              0.2321844
      9.2866630              0.4679413
      3.1639270              0.3623120
SP   3   1.00
      7.8682724             -0.1193324              0.0689991
      1.8812885             -0.1608542              0.3164240
      0.5442493              1.1434564              0.7443083
SP   1   1.00
      0.1687144              1.0000000              1.0000000
D    1   1.00
      1.2520000              1.0000000
D    1   1.00
      0.3130000              1.0000000
F    1   1.00
      0.8000000              1.0000000
****
N     0
S    6   1.00
   4173.5110000              0.0018348
    627.4579000              0.0139950
    142.9021000              0.0685870
     40.2343300              0.2322410
     12.8202100              0.4690700
      4.3904370              0.3604550
SP   3   1.00
     11.6263580             -0.1149610              0.0675800
      2.7162800             -0.1691180              0.3239070
      0.7722180              1.1458520              0.7408950
SP   1   1.00
      0.2120313              1.0000000              1.0000000
D    1   1.00
      1.8260000              1.0000000
D    1   1.00
      0.4565000              1.0000000
F    1   1.00
      1.0000000              1.0000000
****
O     0
S    6   1.00
   5484.6717000              0.0018311
    825.2349500              0.0139501
    188.0469600              0.0684451
     52.9645000              0.2327143
     16.8975700              0.4701930
      5.7996353              0.3585209
SP   3   1.00
     15.5396160             -0.1107775              0.0708743
      3.5999336             -0.1480263              0.3397528
      1.0137618              1.1307670              0.7271586
SP   1   1.00
      0.2700058              1.0000000              1.0000000
D    1   1.00
      2.5840000              1.0000000
D    1   1.00
      0.6460000              1.0000000
F    1   1.00
      1.4000000              1.0000000
****
F     0
S    6   1.00
   7001.7130900              0.0018196169
   1051.3660900              0.0139160796
    239.2856900              0.0684053245
     67.3974453              0.233185760
     21.5199573              0.471267439
      7.40310130             0.356618546
SP   3   1.00
     20.8479528             -0.108506975            0.0716287243
      4.80830834            -0.146451658            0.3459121030
      1.34406986             1.128688580            0.7224699570
SP   1   1.00
      0.358151393            1.0000000              1.0000000
D    1   1.00
      3.5000000              1.0000000
D    1   1.00
      0.8750000              1.0000000
F    1   1.00
      1.8500000              1.0000000
****
Al     0
S    6   1.00
  13983.1000000              0.00194267
   2098.7500000              0.0148599
    477.7050000              0.0728494
    134.3600000              0.2468300
     42.8709000              0.4872580
     14.5189000              0.3234960
SP   6   1.00
    239.6680000             -0.00292619             0.00460285
     57.4419000             -0.0374080              0.0331990
     18.2859000             -0.1144870              0.1362820
      6.5991400              0.1156350              0.3304760
      2.4904900              0.6125950              0.4491460
      0.9445400              0.3937990              0.2657040
SP   3   1.00
      1.2779000             -0.2276060             -0.0175130
      0.3975900              0.00144583             0.2445330
      0.1600950              1.0927900              0.8049340
SP   1   1.00
      0.0556577              1.0000000              1.0000000
D    1   1.00
      0.6500000              1.0000000
D    1   1.00
      0.1625000              1.0000000
F    1   1.00
      0.2500000              1.0000000
****
Si     0
S    6   1.00
  16115.9000000              0.00195948
   2425.5800000              0.01492880
    553.8670000              0.07284780
    156.3400000              0.24613000
     50.0683000              0.48591400
     17.0178000              0.32500200
SP   6   1.00
    292.7180000             -0.00278094             0.00443826
     69.8731000             -0.03571460             0.03266790
     22.3363000             -0.11498500             0.13472100
      8.1503900              0.09356340             0.32867800
      3.1345800              0.60301700             0.44964000
      1.2254300              0.41895900             0.26137200
SP   3   1.00
      1.7273800             -0.24463000            -0.01779510
      0.5729220              0.00431572             0.25353900
      0.2221920              1.09818000             0.80066900
SP   1   1.00
      0.0778369              1.00000000             1.00000000
D    1   1.00
      0.9000000              1.0000000
D    1   1.00
      0.2250000              1.0000000
F    1   1.00
      0.3200000              1.0000000
****
P     0
S    6   1.00
  19413.3000000              0.0018516
   2909.4200000              0.0142062
    661.3640000              0.0699995
    185.7590000              0.2400790
     59.1943000              0.4847620
     20.0310000              0.3352000
SP   6   1.00
    339.4780000             -0.00278217             0.00456462
     81.0101000             -0.0360499              0.03369360
     25.8780000             -0.1166310              0.13975500
      9.4522100              0.0968328              0.33936200
      3.6656600              0.6144180              0.45092100
      1.4674600              0.4037980              0.23858600
SP   3   1.00
      2.1562300             -0.2529230             -0.01776530
      0.7489970              0.0328517              0.27405800
      0.2831450              1.0812500              0.78542100
SP   1   1.00
      0.0998317              1.0000000              1.00000000
D    1   1.00
      1.1000000              1.0000000
D    1   1.00
      0.2750000              1.0000000
F    1   1.00
      0.4500000              1.0000000
****
S     0
S    6   1.00
  21917.1000000              0.0018690
   3301.4900000              0.0142300
    754.1460000              0.0696960
    212.7110000              0.2384870
     67.9896000              0.4833070
     23.0515000              0.3380740
SP   6   1.00
    423.7350000             -0.0023767              0.0040610
    100.7100000             -0.0316930              0.0306810
     32.1599000             -0.1133170              0.1304520
     11.8079000              0.0560900              0.3272050
      4.6311000              0.5922550              0.4528510
      1.8702500              0.4550060              0.2560420
SP   3   1.00
      2.6158400             -0.2503740             -0.0145110
      0.9221670              0.0669570              0.3102630
      0.3412870              1.0545100              0.7544830
SP   1   1.00
      0.1171670              1.0000000              1.0000000
D    1   1.00
      1.3000000              1.0000000
D    1   1.00
      0.3250000              1.0000000
F    1   1.00
      0.5500000              1.0000000
****
Cl     0
S    6   1.00
  25180.1000000              0.0018330
   3780.3500000              0.0140340
    860.4740000              0.0690970
    242.1450000              0.2374520
     77.3349000              0.4830340
     26.2470000              0.3398560
SP   6   1.00
    491.7650000             -0.0022974              0.0039894
    116.9840000             -0.0307140              0.0303180
     37.4153000             -0.1125280              0.1298800
     13.7834000              0.0450160              0.3279510
      5.4521500              0.5893530              0.4535270
      2.2258800              0.4652060              0.2521540
SP   3   1.00
      3.1864900             -0.2518300             -0.0142990
      1.1442700              0.0615890              0.3235720
      0.4203770              1.0601800              0.7435070
SP   1   1.00
      0.1426570              1.0000000              1.0000000
D    1   1.00
      1.5000000              1.0000000
D    1   1.00
      0.3750000              1.0000000
F    1   1.00
      0.7000000              1.0000000
****
}

set {
reference uhf
freeze_core true
e_convergence 10
d_convergence 10
dft_spherical_points 1202
dft_radial_points 99
}

e = energy('b3lyp')

print_out('Grab this energy {0}'.format(e))
--------------------------------------------------------------------------

    Molecular point group: cs

    Geometry (in Bohr), charge = 0, multiplicity = 2:

       Center              X                  Y                   Z               Mass
    ------------   -----------------  -----------------  -----------------  -----------------
         C           -0.323017137247    -0.000427578039     0.000000000000    12.000000000000
         C            0.059998916153    -1.397751907639    -2.422000285000    12.000000000000
         C            0.062953237153     2.796136793461     0.000000000000    12.000000000000
         C            0.059998916153    -1.397751907639     2.422000285000    12.000000000000
         H            2.086769049653    -1.641148740639    -2.841623140500     1.007825032230
         H           -0.765014456147    -0.385779867639    -4.020110500800     1.007825032230
         H           -0.764943972047    -3.289034275739    -2.343828681700     1.007825032230
         H            2.086326400453     3.281345735961     0.000000000000     1.007825032230
         H           -0.766102485047     3.674067183861     1.675904634300     1.007825032230
         H           -0.766102485047     3.674067183861    -1.675904634300     1.007825032230
         H            2.086769049653    -1.641148740639     2.841623140500     1.007825032230
         H           -0.764943972047    -3.289034275739     2.343828681700     1.007825032230
         H           -0.765014456147    -0.385779867639     4.020110500800     1.007825032230

  Charge       = 0
  Multiplicity = 2
  Basis Set: ANONYMOUSD81B51BC
    Blend: 6-31G_2DFP_
  Basis Set: (ANONYMOUSD81B51BC AUX)
    Blend: DEF2-UNIVERSAL-JKFIT

    Orbital Energies [Eh]
    ---------------------

    Alpha Occupied:

       1Ap   -10.179568     1App  -10.166685     2Ap   -10.166665
       3Ap   -10.166610     4Ap    -0.798816     2App   -0.686521
       5Ap    -0.686456     6Ap    -0.530774     7Ap    -0.441723
       8Ap    -0.435251     3App   -0.435052     9Ap    -0.382825
       4App   -0.382522     5App   -0.363493     6App   -0.338270
      10Ap    -0.338102    11Ap    -0.168636

    Alpha Virtual:

      12Ap     0.076043     7App    0.134161    13Ap     0.134228
       8App    0.142769    14Ap     0.142893    15Ap     0.154942
       9App    0.178841    16Ap     0.179068    17Ap     0.204641
      10App    0.215148    18Ap     0.276452    11App    0.276558
      19Ap     0.399037    12App    0.399365    20Ap     0.403139
      21Ap     0.423777    13App    0.423872    22Ap     0.457176
      23Ap     0.495589    14App    0.495646    15App    0.512497
      24Ap     0.514381    16App    0.579412    25Ap     0.579582
      17App    0.592060    26Ap     0.592298    27Ap     0.603035
      28Ap     0.625167    18App    0.632129    19App    0.636960
      29Ap     0.637174    20App    0.663719    30Ap     0.664055
      31Ap     0.684158    21App    0.684457    32Ap     0.734788
      33Ap     0.825239    22App    0.825264    23App    0.854917
      24App    0.915732    34Ap     0.915779    35Ap     0.944024
      25App    0.945467    26App    0.962168    36Ap     0.962340
      37Ap     1.004583    27App    1.128907    38Ap     1.129102
      39Ap     1.142569    28App    1.163948    40Ap     1.164124
      41Ap     1.224231    29App    1.275259    42Ap     1.275533
      43Ap     1.279872    30App    1.324436    44Ap     1.324946
      45Ap     1.356157    46Ap     1.367588    31App    1.368186
      32App    1.393960    33App    1.403639    47Ap     1.403886
      34App    1.417197    48Ap     1.417782    35App    1.429319
      36App    1.492715    49Ap     1.499660    37App    1.543520
      50Ap     1.543599    51Ap     1.575454    38App    1.575754
      52Ap     1.669767    39App    1.739644    53Ap     1.740440
      54Ap     1.769846    55Ap     1.832390    40App    1.832784
      41App    1.973118    42App    2.019551    56Ap     2.020443
      57Ap     2.020956    43App    2.056775    58Ap     2.057514
      44App    2.739038    59Ap     2.739120    60Ap     2.792078
      45App    2.814156    61Ap     2.890808    46App    2.891366
      62Ap     2.896456    63Ap     2.929648    47App    2.929720
      48App    2.959235    49App    2.963971    64Ap     2.964164
      65Ap     3.033967    66Ap     3.072132    50App    3.072359
      51App    3.085944    52App    3.169516    67Ap     3.169749
      68Ap     3.182485    53App    3.285769    69Ap     3.285854
      54App    3.327449    70Ap     3.327744    71Ap     3.374229
      72Ap     3.491648    55App    3.492232    56App    3.514790
      73Ap     3.527648    57App    3.568218    74Ap     3.568457
      58App    3.577280    59App    3.666059    75Ap     3.666640
      76Ap     3.681625    77Ap     3.695585    60App    3.695586
      61App    3.781252    78Ap     3.781326    79Ap     3.789796
      80Ap     3.914222    62App    3.914394    81Ap     4.036303
      82Ap     4.114123    63App    4.114271    83Ap     4.148822
      64App    4.148979    84Ap     4.174457    85Ap     4.204022
      65App    4.205244    86Ap     4.205669    66App    4.212422
      87Ap     4.317066    67App    4.317936    68App    4.361503
      88Ap     4.426403    69App    4.426652    70App    4.445856
      71App    4.518799    89Ap     4.520897    90Ap     4.581633
      72App    4.582056    91Ap     4.624890    92Ap     4.714233
      73App    4.780510    93Ap     4.781543    74App    4.840853
      94Ap     4.965929    75App    5.004101    95Ap     5.005019
      96Ap     5.229070    76App    5.248204    97Ap     5.248250
      98Ap     5.357850    77App    5.358407    78App    5.485114

    Beta Occupied:

       1App  -10.167440     1Ap   -10.167425     2Ap   -10.167376
       3Ap   -10.165773     4Ap    -0.782119     2App   -0.684304
       5Ap    -0.684238     6Ap    -0.511845     7Ap    -0.431611
       3App   -0.431398     8Ap    -0.422322     9Ap    -0.376881
       4App   -0.376562     5App   -0.362465     6App   -0.333399
      10Ap    -0.333228

    Beta Virtual:

      11Ap    -0.025711    12Ap     0.077063     7App    0.135054
      13Ap     0.135103     8App    0.144673    14Ap     0.144788
      15Ap     0.163446     9App    0.182537    16Ap     0.182767
      10App    0.215385    17Ap     0.219843    18Ap     0.282734
      11App    0.282834    19Ap     0.400241    12App    0.400568
      20Ap     0.419485    21Ap     0.426577    13App    0.426676
      22Ap     0.469439    23Ap     0.497867    14App    0.497917
      15App    0.514248    24Ap     0.556648    16App    0.584975
      25Ap     0.585135    17App    0.598172    26Ap     0.598420
      27Ap     0.610502    28Ap     0.628602    18App    0.632294
      19App    0.640318    29Ap     0.640535    20App    0.667256
      30Ap     0.667560    31Ap     0.686871    21App    0.687175
      32Ap     0.757133    33Ap     0.830428    22App    0.830448
      23App    0.856307    24App    0.923717    34Ap     0.923763
      25App    0.947306    35Ap     0.952861    26App    0.967493
      36Ap     0.967677    37Ap     1.009749    27App    1.132896
      38Ap     1.133169    39Ap     1.155962    28App    1.169071
      40Ap     1.169150    41Ap     1.233341    29App    1.280889
      42Ap     1.281173    43Ap     1.285558    30App    1.329413
      44Ap     1.329944    45Ap     1.365603    46Ap     1.372821
      31App    1.373419    32App    1.395026    33App    1.407068
      47Ap     1.407340    34App    1.422313    48Ap     1.422869
      35App    1.429621    36App    1.493762    49Ap     1.510168
      50Ap     1.547881    37App    1.547942    51Ap     1.583446
      38App    1.583639    52Ap     1.674620    39App    1.745417
      53Ap     1.746199    54Ap     1.780649    55Ap     1.836263
      40App    1.836656    41App    1.973981    42App    2.025948
      56Ap     2.027213    57Ap     2.042061    43App    2.063537
      58Ap     2.064229    44App    2.747283    59Ap     2.747355
      45App    2.814572    60Ap     2.817194    61Ap     2.903274
      46App    2.903811    62Ap     2.926228    63Ap     2.932304
      47App    2.932374    48App    2.960308    49App    2.968580
      64Ap     2.968764    65Ap     3.041990    66Ap     3.082133
      50App    3.082340    51App    3.087787    52App    3.185180
      67Ap     3.185366    68Ap     3.190114    53App    3.290754
      69Ap     3.290819    54App    3.331165    70Ap     3.331488
      71Ap     3.382032    72Ap     3.494372    55App    3.494956
      56App    3.513144    73Ap     3.530644    57App    3.577158
      58App    3.581625    74Ap     3.581737    59App    3.670759
      75Ap     3.671231    76Ap     3.694901    60App    3.726889
      77Ap     3.727193    61App    3.785826    78Ap     3.785879
      79Ap     3.818208    80Ap     3.924029    62App    3.924233
      81Ap     4.047125    82Ap     4.120710    63App    4.120749
      83Ap     4.156179    64App    4.156427    84Ap     4.188634
      65App    4.211180    85Ap     4.211427    86Ap     4.212230
      66App    4.216967    87Ap     4.324513    67App    4.325430
      68App    4.364847    88Ap     4.434736    69App    4.434961
      70App    4.448752    71App    4.526721    89Ap     4.528811
      90Ap     4.592268    72App    4.592663    91Ap     4.632063
      92Ap     4.724662    73App    4.787484    93Ap     4.788481
      74App    4.843768    94Ap     4.970747    75App    5.008197
      95Ap     5.009080    96Ap     5.234824    76App    5.250000
      97Ap     5.250046    98Ap     5.364386    77App    5.364941
      78App    5.487458

    Final Occupation by Irrep:
             Ap   App
    DOCC [    10,    6 ]
    SOCC [     1,    0 ]

  @DF-UKS Final Energy:  -157.81304125327554

   => Energetics <=

    Nuclear Repulsion Energy =            125.5761387002767151
    One-Electron Energy =                -459.1062455989117552
    Two-Electron Energy =                 196.0280164286046443
    DFT Exchange-Correlation Energy =     -20.3109507832451364
    Empirical Dispersion Energy =           0.0000000000000000
    VV10 Nonlocal Energy =                  0.0000000000000000
    Total Energy =                       -157.8130412532755429

  UHF NO Occupations:
  HONO-2 :    9 Ap 1.9995992
  HONO-1 :   10 Ap 1.9989874
  HONO-0 :   11 Ap 1.0000000
  LUNO+0 :   12 Ap 0.0010126
  LUNO+1 :   13 Ap 0.0004008
  LUNO+2 :   14 Ap 0.0001955
  LUNO+3 :    7App 0.0001953

Computation Completed

Properties will be evaluated at   0.000000,   0.000000,   0.000000 [a0]

Properties computed using the SCF density matrix

  Nuclear Dipole Moment: [e a0]
     X:     0.8273      Y:    -0.0012      Z:    -0.0000

  Electronic Dipole Moment: [e a0]
     X:    -0.7503      Y:     0.0011      Z:     0.0000

  Dipole Moment: [e a0]
     X:     0.0770      Y:    -0.0001      Z:    -0.0000     Total:     0.0770

  Dipole Moment: [D]
     X:     0.1958      Y:    -0.0003      Z:    -0.0000     Total:     0.1958

*** tstop() called on n065 at Fri Nov  5 12:39:37 2021
Module time:
	user time   =     543.98 seconds =       9.07 minutes
	system time =      12.29 seconds =       0.20 minutes
	total time  =        140 seconds =       2.33 minutes
Total time:
	user time   =     543.98 seconds =       9.07 minutes
	system time =      12.29 seconds =       0.20 minutes
	total time  =        140 seconds =       2.33 minutes
Grab this energy -157.81304125327554
    Psi4 stopped on: Friday, 05 November 2021 12:39PM
    Psi4 wall time for execution: 0:02:19.94

*** Psi4 exiting successfully. Buy a developer a beer!
