                               Psi4 1.4a2.dev629

  ==> Input File <==

--------------------------------------------------------------------------
import os
memory 14 GB

molecule {
 C   -0.3233395250   -0.0004950470   -0.0004327459
 C    0.0614571266   -1.4004739017   -2.4270017479
 C    0.0609249894    2.8009028556   -0.0013885235
 C    0.0609207230   -1.4017691493    2.4264673308
 H    2.0840580475   -1.6426923331   -2.8485481658
 H   -0.7623361295   -0.3898662378   -4.0240539359
 H   -0.7658610222   -3.2915429749   -2.3488295069
 H    2.0909817357    3.2876052513   -0.0034996943
 H   -0.7710318540    3.6816705978    1.6829334175
 H   -0.7646141430    3.6798704823   -1.6781517272
 H    2.0856364039   -1.6457096565    2.8467874396
 H   -0.7632601470   -3.2877736994    2.3502551979
 H   -0.7661440821   -0.3897505010    4.0254626618
units bohr
0 2
}

basis {

assign 6-31g_2dfp_

[ 6-31g_2dfp_ ]

spherical

!----------------------------------------------------------------------
! Basis Set Exchange
! Version v0.8.13
! https://www.basissetexchange.org
!----------------------------------------------------------------------
!   Basis set: 6-31G(2df,p)
! Description: 6-31G(2df,p)
!        Role: orbital
!     Version: 0  (Data from the original Basis Set Exchange)
!----------------------------------------------------------------------

****
H     0
S    3   1.00
     18.7311370              0.03349460
      2.8253937              0.23472695
      0.6401217              0.81375733
S    1   1.00
      0.1612778              1.00000000
P    1   1.00
      1.5000000              1.0000000
P    1   1.00
      0.3750000              1.0000000
****
B     0
S    6   1.00
   2068.8823000              0.0018663
    310.6495700              0.0142515
     70.6830330              0.0695516
     19.8610800              0.2325729
      6.2993048              0.4670787
      2.1270270              0.3634314
SP   3   1.00
      4.7279710             -0.1303938              0.0745976
      1.1903377             -0.1307889              0.3078467
      0.3594117              1.1309444              0.7434568
SP   1   1.00
      0.1267512              1.0000000              1.0000000
D    1   1.00
      0.8020000              1.0000000
D    1   1.00
      0.2005000              1.0000000
F    1   1.00
      0.5000000              1.0000000
****
C     0
S    6   1.00
   3047.5249000              0.0018347
    457.3695100              0.0140373
    103.9486900              0.0688426
     29.2101550              0.2321844
      9.2866630              0.4679413
      3.1639270              0.3623120
SP   3   1.00
      7.8682724             -0.1193324              0.0689991
      1.8812885             -0.1608542              0.3164240
      0.5442493              1.1434564              0.7443083
SP   1   1.00
      0.1687144              1.0000000              1.0000000
D    1   1.00
      1.2520000              1.0000000
D    1   1.00
      0.3130000              1.0000000
F    1   1.00
      0.8000000              1.0000000
****
N     0
S    6   1.00
   4173.5110000              0.0018348
    627.4579000              0.0139950
    142.9021000              0.0685870
     40.2343300              0.2322410
     12.8202100              0.4690700
      4.3904370              0.3604550
SP   3   1.00
     11.6263580             -0.1149610              0.0675800
      2.7162800             -0.1691180              0.3239070
      0.7722180              1.1458520              0.7408950
SP   1   1.00
      0.2120313              1.0000000              1.0000000
D    1   1.00
      1.8260000              1.0000000
D    1   1.00
      0.4565000              1.0000000
F    1   1.00
      1.0000000              1.0000000
****
O     0
S    6   1.00
   5484.6717000              0.0018311
    825.2349500              0.0139501
    188.0469600              0.0684451
     52.9645000              0.2327143
     16.8975700              0.4701930
      5.7996353              0.3585209
SP   3   1.00
     15.5396160             -0.1107775              0.0708743
      3.5999336             -0.1480263              0.3397528
      1.0137618              1.1307670              0.7271586
SP   1   1.00
      0.2700058              1.0000000              1.0000000
D    1   1.00
      2.5840000              1.0000000
D    1   1.00
      0.6460000              1.0000000
F    1   1.00
      1.4000000              1.0000000
****
F     0
S    6   1.00
   7001.7130900              0.0018196169
   1051.3660900              0.0139160796
    239.2856900              0.0684053245
     67.3974453              0.233185760
     21.5199573              0.471267439
      7.40310130             0.356618546
SP   3   1.00
     20.8479528             -0.108506975            0.0716287243
      4.80830834            -0.146451658            0.3459121030
      1.34406986             1.128688580            0.7224699570
SP   1   1.00
      0.358151393            1.0000000              1.0000000
D    1   1.00
      3.5000000              1.0000000
D    1   1.00
      0.8750000              1.0000000
F    1   1.00
      1.8500000              1.0000000
****
Al     0
S    6   1.00
  13983.1000000              0.00194267
   2098.7500000              0.0148599
    477.7050000              0.0728494
    134.3600000              0.2468300
     42.8709000              0.4872580
     14.5189000              0.3234960
SP   6   1.00
    239.6680000             -0.00292619             0.00460285
     57.4419000             -0.0374080              0.0331990
     18.2859000             -0.1144870              0.1362820
      6.5991400              0.1156350              0.3304760
      2.4904900              0.6125950              0.4491460
      0.9445400              0.3937990              0.2657040
SP   3   1.00
      1.2779000             -0.2276060             -0.0175130
      0.3975900              0.00144583             0.2445330
      0.1600950              1.0927900              0.8049340
SP   1   1.00
      0.0556577              1.0000000              1.0000000
D    1   1.00
      0.6500000              1.0000000
D    1   1.00
      0.1625000              1.0000000
F    1   1.00
      0.2500000              1.0000000
****
Si     0
S    6   1.00
  16115.9000000              0.00195948
   2425.5800000              0.01492880
    553.8670000              0.07284780
    156.3400000              0.24613000
     50.0683000              0.48591400
     17.0178000              0.32500200
SP   6   1.00
    292.7180000             -0.00278094             0.00443826
     69.8731000             -0.03571460             0.03266790
     22.3363000             -0.11498500             0.13472100
      8.1503900              0.09356340             0.32867800
      3.1345800              0.60301700             0.44964000
      1.2254300              0.41895900             0.26137200
SP   3   1.00
      1.7273800             -0.24463000            -0.01779510
      0.5729220              0.00431572             0.25353900
      0.2221920              1.09818000             0.80066900
SP   1   1.00
      0.0778369              1.00000000             1.00000000
D    1   1.00
      0.9000000              1.0000000
D    1   1.00
      0.2250000              1.0000000
F    1   1.00
      0.3200000              1.0000000
****
P     0
S    6   1.00
  19413.3000000              0.0018516
   2909.4200000              0.0142062
    661.3640000              0.0699995
    185.7590000              0.2400790
     59.1943000              0.4847620
     20.0310000              0.3352000
SP   6   1.00
    339.4780000             -0.00278217             0.00456462
     81.0101000             -0.0360499              0.03369360
     25.8780000             -0.1166310              0.13975500
      9.4522100              0.0968328              0.33936200
      3.6656600              0.6144180              0.45092100
      1.4674600              0.4037980              0.23858600
SP   3   1.00
      2.1562300             -0.2529230             -0.01776530
      0.7489970              0.0328517              0.27405800
      0.2831450              1.0812500              0.78542100
SP   1   1.00
      0.0998317              1.0000000              1.00000000
D    1   1.00
      1.1000000              1.0000000
D    1   1.00
      0.2750000              1.0000000
F    1   1.00
      0.4500000              1.0000000
****
S     0
S    6   1.00
  21917.1000000              0.0018690
   3301.4900000              0.0142300
    754.1460000              0.0696960
    212.7110000              0.2384870
     67.9896000              0.4833070
     23.0515000              0.3380740
SP   6   1.00
    423.7350000             -0.0023767              0.0040610
    100.7100000             -0.0316930              0.0306810
     32.1599000             -0.1133170              0.1304520
     11.8079000              0.0560900              0.3272050
      4.6311000              0.5922550              0.4528510
      1.8702500              0.4550060              0.2560420
SP   3   1.00
      2.6158400             -0.2503740             -0.0145110
      0.9221670              0.0669570              0.3102630
      0.3412870              1.0545100              0.7544830
SP   1   1.00
      0.1171670              1.0000000              1.0000000
D    1   1.00
      1.3000000              1.0000000
D    1   1.00
      0.3250000              1.0000000
F    1   1.00
      0.5500000              1.0000000
****
Cl     0
S    6   1.00
  25180.1000000              0.0018330
   3780.3500000              0.0140340
    860.4740000              0.0690970
    242.1450000              0.2374520
     77.3349000              0.4830340
     26.2470000              0.3398560
SP   6   1.00
    491.7650000             -0.0022974              0.0039894
    116.9840000             -0.0307140              0.0303180
     37.4153000             -0.1125280              0.1298800
     13.7834000              0.0450160              0.3279510
      5.4521500              0.5893530              0.4535270
      2.2258800              0.4652060              0.2521540
SP   3   1.00
      3.1864900             -0.2518300             -0.0142990
      1.1442700              0.0615890              0.3235720
      0.4203770              1.0601800              0.7435070
SP   1   1.00
      0.1426570              1.0000000              1.0000000
D    1   1.00
      1.5000000              1.0000000
D    1   1.00
      0.3750000              1.0000000
F    1   1.00
      0.7000000              1.0000000
****
}

set {
reference uhf
freeze_core true
e_convergence 10
d_convergence 10
dft_spherical_points 1202
dft_radial_points 99
}

e = energy('b3lyp')

print_out('Grab this energy {0}'.format(e))
--------------------------------------------------------------------------

    Molecular point group: c1

    Geometry (in Bohr), charge = 0, multiplicity = 2:

       Center              X                  Y                   Z               Mass
    ------------   -----------------  -----------------  -----------------  -----------------
         C           -0.323340160381    -0.000141136732     0.000020976283    12.000000000000
         C            0.061456491219    -1.400119991432    -2.426548025717    12.000000000000
         C            0.060924354019     2.801256765868    -0.000934801317    12.000000000000
         C            0.060920087619    -1.401415239032     2.426921052983    12.000000000000
         H            2.084057412119    -1.642338422832    -2.848094443617     1.007825032230
         H           -0.762336764881    -0.389512327532    -4.023600213717     1.007825032230
         H           -0.765861657581    -3.291189064632    -2.348375784717     1.007825032230
         H            2.090981100319     3.287959161568    -0.003045972117     1.007825032230
         H           -0.771032489381     3.682024508068     1.683387139683     1.007825032230
         H           -0.764614778381     3.680224392568    -1.677698005017     1.007825032230
         H            2.085635768519    -1.645355746232     2.847241161783     1.007825032230
         H           -0.763260782381    -3.287419789132     2.350708920083     1.007825032230
         H           -0.766144717481    -0.389396590732     4.025916383983     1.007825032230

  Charge       = 0
  Multiplicity = 2
  Basis Set: ANONYMOUS1FC08771
    Blend: 6-31G_2DFP_
  Basis Set: (ANONYMOUS1FC08771 AUX)
    Blend: DEF2-UNIVERSAL-JKFIT

    Orbital Energies [Eh]
    ---------------------

    Alpha Occupied:

       1A    -10.180342     2A    -10.167685     3A    -10.166696
       4A    -10.166663     5A     -0.797767     6A     -0.686515
       7A     -0.685863     8A     -0.530777     9A     -0.441127
      10A     -0.434876    11A     -0.434464    12A     -0.382822
      13A     -0.382376    14A     -0.363613    15A     -0.338165
      16A     -0.337830    17A     -0.168961

    Alpha Virtual:

      18A      0.076068    19A      0.134031    20A      0.134260
      21A      0.142404    22A      0.142862    23A      0.154878
      24A      0.178445    25A      0.179115    26A      0.203547
      27A      0.214806    28A      0.275867    29A      0.276105
      30A      0.398969    31A      0.399484    32A      0.403346
      33A      0.423909    34A      0.424285    35A      0.456592
      36A      0.495303    37A      0.495477    38A      0.512162
      39A      0.513978    40A      0.578672    41A      0.578957
      42A      0.591284    43A      0.591961    44A      0.602590
      45A      0.624719    46A      0.631680    47A      0.635914
      48A      0.636726    49A      0.663135    50A      0.663694
      51A      0.683503    52A      0.684234    53A      0.734994
      54A      0.824926    55A      0.825878    56A      0.853916
      57A      0.914812    58A      0.915241    59A      0.944128
      60A      0.944606    61A      0.961029    62A      0.961567
      63A      1.003457    64A      1.127672    65A      1.128551
      66A      1.142222    67A      1.163166    68A      1.163370
      69A      1.223322    70A      1.274186    71A      1.274787
      72A      1.279355    73A      1.323930    74A      1.324765
      75A      1.355977    76A      1.365652    77A      1.366455
      78A      1.392447    79A      1.403650    80A      1.404437
      81A      1.416340    82A      1.417876    83A      1.427906
      84A      1.491496    85A      1.499077    86A      1.542778
      87A      1.542901    88A      1.574100    89A      1.574805
      90A      1.669805    91A      1.738679    92A      1.740120
      93A      1.768332    94A      1.829659    95A      1.833187
      96A      1.971727    97A      2.017378    98A      2.019293
      99A      2.019697   100A      2.052128   101A      2.053221
     102A      2.738002   103A      2.738968   104A      2.790924
     105A      2.811429   106A      2.889593   107A      2.890267
     108A      2.894977   109A      2.929391   110A      2.929602
     111A      2.958970   112A      2.963883   113A      2.964927
     114A      3.034021   115A      3.070626   116A      3.071880
     117A      3.084459   118A      3.168351   119A      3.169209
     120A      3.180597   121A      3.285139   122A      3.285489
     123A      3.326780   124A      3.327547   125A      3.375620
     126A      3.489279   127A      3.491049   128A      3.514019
     129A      3.525342   130A      3.567935   131A      3.568799
     132A      3.575172   133A      3.665464   134A      3.667255
     135A      3.679638   136A      3.693676   137A      3.694639
     138A      3.776201   139A      3.777407   140A      3.789130
     141A      3.911474   142A      3.912957   143A      4.034427
     144A      4.110326   145A      4.112213   146A      4.145921
     147A      4.150180   148A      4.173397   149A      4.200409
     150A      4.203365   151A      4.204915   152A      4.211244
     153A      4.315010   154A      4.316913   155A      4.358947
     156A      4.423786   157A      4.425041   158A      4.443565
     159A      4.515764   160A      4.517883   161A      4.577849
     162A      4.578729   163A      4.617548   164A      4.709463
     165A      4.773620   166A      4.775599   167A      4.836880
     168A      4.962867   169A      5.002322   170A      5.003639
     171A      5.227250   172A      5.243645   173A      5.250490
     174A      5.352397   175A      5.358836   176A      5.479494

    Beta Occupied:

       1A    -10.168447     2A    -10.167448     3A    -10.167430
       4A    -10.166517     5A     -0.781093     6A     -0.684318
       7A     -0.683665     8A     -0.511749     9A     -0.431254
      10A     -0.430831    11A     -0.421822    12A     -0.376916
      13A     -0.376452    14A     -0.362596    15A     -0.333282
      16A     -0.332959

    Beta Virtual:

      17A     -0.025743    18A      0.077077    19A      0.134885
      20A      0.135188    21A      0.144265    22A      0.144742
      23A      0.163336    24A      0.182125    25A      0.182778
      26A      0.215036    27A      0.218930    28A      0.282214
      29A      0.282453    30A      0.400133    31A      0.400661
      32A      0.419790    33A      0.426718    34A      0.427098
      35A      0.468500    36A      0.497560    37A      0.497741
      38A      0.513897    39A      0.556323    40A      0.584216
      41A      0.584512    42A      0.597476    43A      0.598130
      44A      0.610010    45A      0.628098    46A      0.631881
      47A      0.639184    48A      0.639982    49A      0.666701
      50A      0.667256    51A      0.686178    52A      0.686828
      53A      0.757518    54A      0.830078    55A      0.831063
      56A      0.855270    57A      0.922802    58A      0.923192
      59A      0.945965    60A      0.953531    61A      0.966356
      62A      0.966855    63A      1.008697    64A      1.131693
      65A      1.132588    66A      1.155597    67A      1.168230
      68A      1.168453    69A      1.232295    70A      1.279768
      71A      1.280399    72A      1.285109    73A      1.328878
      74A      1.329794    75A      1.365385    76A      1.370955
      77A      1.371645    78A      1.393508    79A      1.407094
      80A      1.407923    81A      1.421414    82A      1.422902
      83A      1.428175    84A      1.492546    85A      1.509519
      86A      1.547134    87A      1.547361    88A      1.581976
      89A      1.582669    90A      1.674651    91A      1.744436
      92A      1.745894    93A      1.779106    94A      1.833538
      95A      1.837018    96A      1.972591    97A      2.024831
      98A      2.026003    99A      2.039690   100A      2.058821
     101A      2.059975   102A      2.746320   103A      2.747321
     104A      2.811841   105A      2.816060   106A      2.902348
     107A      2.902913   108A      2.924656   109A      2.931922
     110A      2.932035   111A      2.960049   112A      2.968374
     113A      2.969510   114A      3.041955   115A      3.080378
     116A      3.081813   117A      3.086412   118A      3.184124
     119A      3.184901   120A      3.188314   121A      3.289917
     122A      3.290310   123A      3.330552   124A      3.331383
     125A      3.383438   126A      3.492044   127A      3.493746
     128A      3.512383   129A      3.528387   130A      3.574930
     131A      3.581243   132A      3.582271   133A      3.670235
     134A      3.671990   135A      3.692969   136A      3.725313
     137A      3.726215   138A      3.780752   139A      3.781917
     140A      3.817670   141A      3.921244   142A      3.922820
     143A      4.045309   144A      4.117134   145A      4.119018
     146A      4.153313   147A      4.157250   148A      4.187430
     149A      4.206947   150A      4.209687   151A      4.211885
     152A      4.215739   153A      4.322568   154A      4.324235
     155A      4.362313   156A      4.431994   157A      4.433213
     158A      4.446497   159A      4.523559   160A      4.525668
     161A      4.588495   162A      4.589283   163A      4.624740
     164A      4.719806   165A      4.780595   166A      4.782531
     167A      4.839797   168A      4.967663   169A      5.006376
     170A      5.007663   171A      5.232791   172A      5.245605
     173A      5.252283   174A      5.358889   175A      5.365296
     176A      5.481816

    Final Occupation by Irrep:
              A
    DOCC [    16 ]
    SOCC [     1 ]

  @DF-UKS Final Energy:  -157.81304548646281

   => Energetics <=

    Nuclear Repulsion Energy =            125.3946923432123697
    One-Electron Energy =                -458.7489796076455377
    Two-Electron Energy =                 195.8483928435072414
    DFT Exchange-Correlation Energy =     -20.3071510655368677
    Empirical Dispersion Energy =           0.0000000000000000
    VV10 Nonlocal Energy =                  0.0000000000000000
    Total Energy =                       -157.8130454864628121

  UHF NO Occupations:
  HONO-2 :   15  A 1.9996009
  HONO-1 :   16  A 1.9989805
  HONO-0 :   17  A 1.0000000
  LUNO+0 :   18  A 0.0010195
  LUNO+1 :   19  A 0.0003991
  LUNO+2 :   20  A 0.0001976
  LUNO+3 :   21  A 0.0001975

Computation Completed

Properties will be evaluated at   0.000000,   0.000000,   0.000000 [a0]

Properties computed using the SCF density matrix

  Nuclear Dipole Moment: [e a0]
     X:     0.8272      Y:     0.0025      Z:     0.0032

  Electronic Dipole Moment: [e a0]
     X:    -0.7493      Y:    -0.0049      Z:    -0.0049

  Dipole Moment: [e a0]
     X:     0.0779      Y:    -0.0025      Z:    -0.0017     Total:     0.0780

  Dipole Moment: [D]
     X:     0.1980      Y:    -0.0062      Z:    -0.0044     Total:     0.1982

*** tstop() called on n061 at Fri Nov  5 14:33:53 2021
Module time:
	user time   =     546.70 seconds =       9.11 minutes
	system time =      12.03 seconds =       0.20 minutes
	total time  =        141 seconds =       2.35 minutes
Total time:
	user time   =     546.70 seconds =       9.11 minutes
	system time =      12.03 seconds =       0.20 minutes
	total time  =        141 seconds =       2.35 minutes
Grab this energy -157.8130454864628
    Psi4 stopped on: Friday, 05 November 2021 02:33PM
    Psi4 wall time for execution: 0:02:20.50

*** Psi4 exiting successfully. Buy a developer a beer!
