                               Psi4 1.4a2.dev629

  ==> Input File <==

--------------------------------------------------------------------------
import os
memory 14 GB

molecule {
 C   -0.3233393645   -0.0019989278   -0.0010218300
 C    0.0617086646   -1.4021421141   -2.4247686214
 C    0.0611742026    2.8026055797    0.0018021139
 C    0.0604163454   -1.4009198179    2.4262596507
 H    2.0869768896   -1.6457606269   -2.8439286773
 H   -0.7640747447   -0.3855427092   -4.0215604411
 H   -0.7667562837   -3.2934173601   -2.3540466589
 H    2.0865682909    3.2926894091   -0.0006972457
 H   -0.7663006324    3.6801204582    1.6769853305
 H   -0.7660034351    3.6799403215   -1.6775494107
 H    2.0871165890   -1.6462888092    2.8434344530
 H   -0.7662448916   -3.2936899209    2.3536304142
 H   -0.7638495067   -0.3856197960    4.0214609226
units bohr
0 2
}

basis {

assign 6-31g_2dfp_

[ 6-31g_2dfp_ ]

spherical

!----------------------------------------------------------------------
! Basis Set Exchange
! Version v0.8.13
! https://www.basissetexchange.org
!----------------------------------------------------------------------
!   Basis set: 6-31G(2df,p)
! Description: 6-31G(2df,p)
!        Role: orbital
!     Version: 0  (Data from the original Basis Set Exchange)
!----------------------------------------------------------------------

****
H     0
S    3   1.00
     18.7311370              0.03349460
      2.8253937              0.23472695
      0.6401217              0.81375733
S    1   1.00
      0.1612778              1.00000000
P    1   1.00
      1.5000000              1.0000000
P    1   1.00
      0.3750000              1.0000000
****
B     0
S    6   1.00
   2068.8823000              0.0018663
    310.6495700              0.0142515
     70.6830330              0.0695516
     19.8610800              0.2325729
      6.2993048              0.4670787
      2.1270270              0.3634314
SP   3   1.00
      4.7279710             -0.1303938              0.0745976
      1.1903377             -0.1307889              0.3078467
      0.3594117              1.1309444              0.7434568
SP   1   1.00
      0.1267512              1.0000000              1.0000000
D    1   1.00
      0.8020000              1.0000000
D    1   1.00
      0.2005000              1.0000000
F    1   1.00
      0.5000000              1.0000000
****
C     0
S    6   1.00
   3047.5249000              0.0018347
    457.3695100              0.0140373
    103.9486900              0.0688426
     29.2101550              0.2321844
      9.2866630              0.4679413
      3.1639270              0.3623120
SP   3   1.00
      7.8682724             -0.1193324              0.0689991
      1.8812885             -0.1608542              0.3164240
      0.5442493              1.1434564              0.7443083
SP   1   1.00
      0.1687144              1.0000000              1.0000000
D    1   1.00
      1.2520000              1.0000000
D    1   1.00
      0.3130000              1.0000000
F    1   1.00
      0.8000000              1.0000000
****
N     0
S    6   1.00
   4173.5110000              0.0018348
    627.4579000              0.0139950
    142.9021000              0.0685870
     40.2343300              0.2322410
     12.8202100              0.4690700
      4.3904370              0.3604550
SP   3   1.00
     11.6263580             -0.1149610              0.0675800
      2.7162800             -0.1691180              0.3239070
      0.7722180              1.1458520              0.7408950
SP   1   1.00
      0.2120313              1.0000000              1.0000000
D    1   1.00
      1.8260000              1.0000000
D    1   1.00
      0.4565000              1.0000000
F    1   1.00
      1.0000000              1.0000000
****
O     0
S    6   1.00
   5484.6717000              0.0018311
    825.2349500              0.0139501
    188.0469600              0.0684451
     52.9645000              0.2327143
     16.8975700              0.4701930
      5.7996353              0.3585209
SP   3   1.00
     15.5396160             -0.1107775              0.0708743
      3.5999336             -0.1480263              0.3397528
      1.0137618              1.1307670              0.7271586
SP   1   1.00
      0.2700058              1.0000000              1.0000000
D    1   1.00
      2.5840000              1.0000000
D    1   1.00
      0.6460000              1.0000000
F    1   1.00
      1.4000000              1.0000000
****
F     0
S    6   1.00
   7001.7130900              0.0018196169
   1051.3660900              0.0139160796
    239.2856900              0.0684053245
     67.3974453              0.233185760
     21.5199573              0.471267439
      7.40310130             0.356618546
SP   3   1.00
     20.8479528             -0.108506975            0.0716287243
      4.80830834            -0.146451658            0.3459121030
      1.34406986             1.128688580            0.7224699570
SP   1   1.00
      0.358151393            1.0000000              1.0000000
D    1   1.00
      3.5000000              1.0000000
D    1   1.00
      0.8750000              1.0000000
F    1   1.00
      1.8500000              1.0000000
****
Al     0
S    6   1.00
  13983.1000000              0.00194267
   2098.7500000              0.0148599
    477.7050000              0.0728494
    134.3600000              0.2468300
     42.8709000              0.4872580
     14.5189000              0.3234960
SP   6   1.00
    239.6680000             -0.00292619             0.00460285
     57.4419000             -0.0374080              0.0331990
     18.2859000             -0.1144870              0.1362820
      6.5991400              0.1156350              0.3304760
      2.4904900              0.6125950              0.4491460
      0.9445400              0.3937990              0.2657040
SP   3   1.00
      1.2779000             -0.2276060             -0.0175130
      0.3975900              0.00144583             0.2445330
      0.1600950              1.0927900              0.8049340
SP   1   1.00
      0.0556577              1.0000000              1.0000000
D    1   1.00
      0.6500000              1.0000000
D    1   1.00
      0.1625000              1.0000000
F    1   1.00
      0.2500000              1.0000000
****
Si     0
S    6   1.00
  16115.9000000              0.00195948
   2425.5800000              0.01492880
    553.8670000              0.07284780
    156.3400000              0.24613000
     50.0683000              0.48591400
     17.0178000              0.32500200
SP   6   1.00
    292.7180000             -0.00278094             0.00443826
     69.8731000             -0.03571460             0.03266790
     22.3363000             -0.11498500             0.13472100
      8.1503900              0.09356340             0.32867800
      3.1345800              0.60301700             0.44964000
      1.2254300              0.41895900             0.26137200
SP   3   1.00
      1.7273800             -0.24463000            -0.01779510
      0.5729220              0.00431572             0.25353900
      0.2221920              1.09818000             0.80066900
SP   1   1.00
      0.0778369              1.00000000             1.00000000
D    1   1.00
      0.9000000              1.0000000
D    1   1.00
      0.2250000              1.0000000
F    1   1.00
      0.3200000              1.0000000
****
P     0
S    6   1.00
  19413.3000000              0.0018516
   2909.4200000              0.0142062
    661.3640000              0.0699995
    185.7590000              0.2400790
     59.1943000              0.4847620
     20.0310000              0.3352000
SP   6   1.00
    339.4780000             -0.00278217             0.00456462
     81.0101000             -0.0360499              0.03369360
     25.8780000             -0.1166310              0.13975500
      9.4522100              0.0968328              0.33936200
      3.6656600              0.6144180              0.45092100
      1.4674600              0.4037980              0.23858600
SP   3   1.00
      2.1562300             -0.2529230             -0.01776530
      0.7489970              0.0328517              0.27405800
      0.2831450              1.0812500              0.78542100
SP   1   1.00
      0.0998317              1.0000000              1.00000000
D    1   1.00
      1.1000000              1.0000000
D    1   1.00
      0.2750000              1.0000000
F    1   1.00
      0.4500000              1.0000000
****
S     0
S    6   1.00
  21917.1000000              0.0018690
   3301.4900000              0.0142300
    754.1460000              0.0696960
    212.7110000              0.2384870
     67.9896000              0.4833070
     23.0515000              0.3380740
SP   6   1.00
    423.7350000             -0.0023767              0.0040610
    100.7100000             -0.0316930              0.0306810
     32.1599000             -0.1133170              0.1304520
     11.8079000              0.0560900              0.3272050
      4.6311000              0.5922550              0.4528510
      1.8702500              0.4550060              0.2560420
SP   3   1.00
      2.6158400             -0.2503740             -0.0145110
      0.9221670              0.0669570              0.3102630
      0.3412870              1.0545100              0.7544830
SP   1   1.00
      0.1171670              1.0000000              1.0000000
D    1   1.00
      1.3000000              1.0000000
D    1   1.00
      0.3250000              1.0000000
F    1   1.00
      0.5500000              1.0000000
****
Cl     0
S    6   1.00
  25180.1000000              0.0018330
   3780.3500000              0.0140340
    860.4740000              0.0690970
    242.1450000              0.2374520
     77.3349000              0.4830340
     26.2470000              0.3398560
SP   6   1.00
    491.7650000             -0.0022974              0.0039894
    116.9840000             -0.0307140              0.0303180
     37.4153000             -0.1125280              0.1298800
     13.7834000              0.0450160              0.3279510
      5.4521500              0.5893530              0.4535270
      2.2258800              0.4652060              0.2521540
SP   3   1.00
      3.1864900             -0.2518300             -0.0142990
      1.1442700              0.0615890              0.3235720
      0.4203770              1.0601800              0.7435070
SP   1   1.00
      0.1426570              1.0000000              1.0000000
D    1   1.00
      1.5000000              1.0000000
D    1   1.00
      0.3750000              1.0000000
F    1   1.00
      0.7000000              1.0000000
****
}

set {
reference uhf
freeze_core true
e_convergence 10
d_convergence 10
dft_spherical_points 1202
dft_radial_points 99
}

e = energy('b3lyp')

print_out('Grab this energy {0}'.format(e))
--------------------------------------------------------------------------

    Molecular point group: c1

    Geometry (in Bohr), charge = 0, multiplicity = 2:

       Center              X                  Y                   Z               Mass
    ------------   -----------------  -----------------  -----------------  -----------------
         C           -0.323339332326    -0.001525593807    -0.001459301278    12.000000000000
         C            0.061708696774    -1.401668780107    -2.425206092678    12.000000000000
         C            0.061174234774     2.803078913693     0.001364642622    12.000000000000
         C            0.060416377574    -1.400446483907     2.425822179422    12.000000000000
         H            2.086976921774    -1.645287292907    -2.844366148578     1.007825032230
         H           -0.764074712526    -0.385069375207    -4.021997912378     1.007825032230
         H           -0.766756251526    -3.292944026107    -2.354484130178     1.007825032230
         H            2.086568323074     3.293162743093    -0.001134716978     1.007825032230
         H           -0.766300600226     3.680593792193     1.676547859222     1.007825032230
         H           -0.766003402926     3.680413655493    -1.677986881978     1.007825032230
         H            2.087116621174    -1.645815475207     2.842996981722     1.007825032230
         H           -0.766244859426    -3.293216586907     2.353192942922     1.007825032230
         H           -0.763849474526    -0.385146462007     4.021023451322     1.007825032230

  Charge       = 0
  Multiplicity = 2
  Basis Set: ANONYMOUS136D71ED
    Blend: 6-31G_2DFP_
  Basis Set: (ANONYMOUS136D71ED AUX)
    Blend: DEF2-UNIVERSAL-JKFIT

    Orbital Energies [Eh]
    ---------------------

    Alpha Occupied:

       1A    -10.180342     2A    -10.167199     3A    -10.166954
       4A    -10.166892     5A     -0.797767     6A     -0.686332
       7A     -0.686042     8A     -0.530776     9A     -0.441130
      10A     -0.434742    11A     -0.434597    12A     -0.382649
      13A     -0.382550    14A     -0.363610    15A     -0.338298
      16A     -0.337698    17A     -0.168960

    Alpha Virtual:

      18A      0.076073    19A      0.134106    20A      0.134206
      21A      0.142538    22A      0.142714    23A      0.154880
      24A      0.178715    25A      0.178841    26A      0.203548
      27A      0.214804    28A      0.275690    29A      0.276281
      30A      0.399108    31A      0.399342    32A      0.403351
      33A      0.424043    34A      0.424155    35A      0.456593
      36A      0.495321    37A      0.495458    38A      0.512159
      39A      0.513979    40A      0.578521    41A      0.579112
      42A      0.591337    43A      0.591926    44A      0.602576
      45A      0.624756    46A      0.631770    47A      0.636222
      48A      0.636290    49A      0.663316    50A      0.663506
      51A      0.683820    52A      0.683887    53A      0.734994
      54A      0.825189    55A      0.825623    56A      0.853916
      57A      0.914843    58A      0.915196    59A      0.944123
      60A      0.944612    61A      0.960597    62A      0.961994
      63A      1.003463    64A      1.127894    65A      1.128312
      66A      1.142211    67A      1.163184    68A      1.163376
      69A      1.223326    70A      1.274249    71A      1.274726
      72A      1.279350    73A      1.324303    74A      1.324414
      75A      1.355995    76A      1.365764    77A      1.366340
      78A      1.392435    79A      1.403673    80A      1.404447
      81A      1.416644    82A      1.417584    83A      1.427917
      84A      1.491494    85A      1.499079    86A      1.542510
      87A      1.543148    88A      1.574129    89A      1.574766
      90A      1.669822    91A      1.739028    92A      1.739802
      93A      1.768331    94A      1.830907    95A      1.831897
      96A      1.971724    97A      2.017825    98A      2.019056
      99A      2.019515   100A      2.051635   101A      2.053647
     102A      2.738205   103A      2.738761   104A      2.790929
     105A      2.811417   106A      2.889212   107A      2.890664
     108A      2.894985   109A      2.929329   110A      2.929668
     111A      2.958992   112A      2.964051   113A      2.964705
     114A      3.034010   115A      3.071090   116A      3.071477
     117A      3.084350   118A      3.168543   119A      3.169005
     120A      3.180605   121A      3.285091   122A      3.285537
     123A      3.326823   124A      3.327491   125A      3.375622
     126A      3.489996   127A      3.490294   128A      3.514025
     129A      3.525307   130A      3.568094   131A      3.568604
     132A      3.575250   133A      3.666068   134A      3.666635
     135A      3.679654   136A      3.693725   137A      3.694576
     138A      3.775574   139A      3.778040   140A      3.789151
     141A      3.911785   142A      3.912672   143A      4.034454
     144A      4.110084   145A      4.112639   146A      4.147183
     147A      4.149033   148A      4.173287   149A      4.202559
     150A      4.203067   151A      4.203163   152A      4.210859
     153A      4.314840   154A      4.317035   155A      4.359025
     156A      4.423816   157A      4.425060   158A      4.443478
     159A      4.516375   160A      4.517286   161A      4.577828
     162A      4.578690   163A      4.617524   164A      4.709461
     165A      4.773485   166A      4.775700   167A      4.836958
     168A      4.962858   169A      5.002511   170A      5.003391
     171A      5.228028   172A      5.246288   173A      5.247353
     174A      5.354778   175A      5.356226   176A      5.479359

    Beta Occupied:

       1A    -10.167958     2A    -10.167712     3A    -10.167655
       4A    -10.166519     5A     -0.781092     6A     -0.684127
       7A     -0.683852     8A     -0.511747     9A     -0.431105
      10A     -0.430985    11A     -0.421817    12A     -0.376737
      13A     -0.376633    14A     -0.362593    15A     -0.333420
      16A     -0.332822

    Beta Virtual:

      17A     -0.025742    18A      0.077081    19A      0.134989
      20A      0.135101    21A      0.144420    22A      0.144574
      23A      0.163339    24A      0.182406    25A      0.182492
      26A      0.215034    27A      0.218930    28A      0.282053
      29A      0.282614    30A      0.400282    31A      0.400513
      32A      0.419787    33A      0.426854    34A      0.426970
      35A      0.468500    36A      0.497585    37A      0.497716
      38A      0.513894    39A      0.556324    40A      0.584070
      41A      0.584663    42A      0.597530    43A      0.598093
      44A      0.609997    45A      0.628134    46A      0.631929
      47A      0.639486    48A      0.639594    49A      0.666876
      50A      0.667074    51A      0.686434    52A      0.686543
      53A      0.757517    54A      0.830336    55A      0.830813
      56A      0.855269    57A      0.922840    58A      0.923140
      59A      0.945961    60A      0.953536    61A      0.965959
      62A      0.967249    63A      1.008704    64A      1.131850
      65A      1.132415    66A      1.155583    67A      1.168324
      68A      1.168388    69A      1.232298    70A      1.279826
      71A      1.280342    72A      1.285106    73A      1.329280
      74A      1.329414    75A      1.365412    76A      1.370999
      77A      1.371590    78A      1.393497    79A      1.407108
      80A      1.407939    81A      1.421708    82A      1.422618
      83A      1.428188    84A      1.492543    85A      1.509523
      86A      1.546911    87A      1.547562    88A      1.582009
      89A      1.582629    90A      1.674669    91A      1.744783
      92A      1.745573    93A      1.779108    94A      1.834766
      95A      1.835749    96A      1.972584    97A      2.025021
      98A      2.025861    99A      2.039693   100A      2.058316
     101A      2.060395   102A      2.746557   103A      2.747082
     104A      2.811830   105A      2.816062   106A      2.901953
     107A      2.903329   108A      2.924659   109A      2.931780
     110A      2.932182   111A      2.960056   112A      2.968613
     113A      2.969230   114A      3.041944   115A      3.081001
     116A      3.081386   117A      3.086166   118A      3.184253
     119A      3.184767   120A      3.188316   121A      3.289912
     122A      3.290312   123A      3.330643   124A      3.331280
     125A      3.383441   126A      3.492736   127A      3.493012
     128A      3.512393   129A      3.528360   130A      3.574906
     131A      3.581401   132A      3.582168   133A      3.670807
     134A      3.671439   135A      3.692945   136A      3.725551
     137A      3.725972   138A      3.780145   139A      3.782523
     140A      3.817697   141A      3.921594   142A      3.922497
     143A      4.045341   144A      4.117011   145A      4.119345
     146A      4.154381   147A      4.156258   148A      4.187340
     149A      4.208931   150A      4.209058   151A      4.210643
     152A      4.215334   153A      4.322239   154A      4.324509
     155A      4.362393   156A      4.432038   157A      4.433256
     158A      4.446376   159A      4.524179   160A      4.525060
     161A      4.588443   162A      4.589275   163A      4.624720
     164A      4.719806   165A      4.780482   166A      4.782609
     167A      4.839877   168A      4.967652   169A      5.006543
     170A      5.007438   171A      5.233742   172A      5.248070
     173A      5.249140   174A      5.361236   175A      5.362728
     176A      5.481680

    Final Occupation by Irrep:
              A
    DOCC [    16 ]
    SOCC [     1 ]

  @DF-UKS Final Energy:  -157.81306678346556

   => Energetics <=

    Nuclear Repulsion Energy =            125.3946355305091345
    One-Electron Energy =                -458.7489283391093977
    Two-Electron Energy =                 195.8483692870021287
    DFT Exchange-Correlation Energy =     -20.3071432618674450
    Empirical Dispersion Energy =           0.0000000000000000
    VV10 Nonlocal Energy =                  0.0000000000000000
    Total Energy =                       -157.8130667834655583

  UHF NO Occupations:
  HONO-2 :   15  A 1.9996009
  HONO-1 :   16  A 1.9989804
  HONO-0 :   17  A 1.0000000
  LUNO+0 :   18  A 0.0010196
  LUNO+1 :   19  A 0.0003991
  LUNO+2 :   20  A 0.0001981
  LUNO+3 :   21  A 0.0001970

Computation Completed

Properties will be evaluated at   0.000000,   0.000000,   0.000000 [a0]

Properties computed using the SCF density matrix

  Nuclear Dipole Moment: [e a0]
     X:     0.8272      Y:     0.0033      Z:    -0.0031

  Electronic Dipole Moment: [e a0]
     X:    -0.7493      Y:    -0.0033      Z:     0.0030

  Dipole Moment: [e a0]
     X:     0.0779      Y:    -0.0000      Z:    -0.0001     Total:     0.0779

  Dipole Moment: [D]
     X:     0.1980      Y:    -0.0001      Z:    -0.0001     Total:     0.1980

*** tstop() called on n091 at Fri Nov  5 12:08:23 2021
Module time:
	user time   =     499.02 seconds =       8.32 minutes
	system time =       4.50 seconds =       0.07 minutes
	total time  =        126 seconds =       2.10 minutes
Total time:
	user time   =     499.02 seconds =       8.32 minutes
	system time =       4.50 seconds =       0.07 minutes
	total time  =        126 seconds =       2.10 minutes
Grab this energy -157.81306678346556
    Psi4 stopped on: Friday, 05 November 2021 12:08PM
    Psi4 wall time for execution: 0:02:06.60

*** Psi4 exiting successfully. Buy a developer a beer!
