                               Psi4 1.4a2.dev629

  ==> Input File <==

--------------------------------------------------------------------------
import os
memory 14 GB

molecule {
 C   -0.3233623887   -0.0000013597   -0.0004326886
 C    0.0613150731   -1.3999003463   -2.4260774861
 C    0.0609283922    2.8011013875   -0.0013884218
 C    0.0607789925   -1.4011951876    2.4255432112
 H    2.0893019356   -1.6424075663   -2.8480110599
 H   -0.7650252415   -0.3859628218   -4.0263458687
 H   -0.7683974051   -3.2963977854   -2.3470482120
 H    2.0899525914    3.2877429759   -0.0034985637
 H   -0.7703816696    3.6813517205    1.6816798148
 H   -0.7639661419    3.6795495046   -1.6768977187
 H    2.0908808200   -1.6454284792    2.8462455881
 H   -0.7657944355   -3.2926297248    2.3484803466
 H   -0.7688383993   -0.3858466311    4.0277510588
units bohr
0 2
}

basis {

assign 6-31g_2dfp_

[ 6-31g_2dfp_ ]

spherical

!----------------------------------------------------------------------
! Basis Set Exchange
! Version v0.8.13
! https://www.basissetexchange.org
!----------------------------------------------------------------------
!   Basis set: 6-31G(2df,p)
! Description: 6-31G(2df,p)
!        Role: orbital
!     Version: 0  (Data from the original Basis Set Exchange)
!----------------------------------------------------------------------

****
H     0
S    3   1.00
     18.7311370              0.03349460
      2.8253937              0.23472695
      0.6401217              0.81375733
S    1   1.00
      0.1612778              1.00000000
P    1   1.00
      1.5000000              1.0000000
P    1   1.00
      0.3750000              1.0000000
****
B     0
S    6   1.00
   2068.8823000              0.0018663
    310.6495700              0.0142515
     70.6830330              0.0695516
     19.8610800              0.2325729
      6.2993048              0.4670787
      2.1270270              0.3634314
SP   3   1.00
      4.7279710             -0.1303938              0.0745976
      1.1903377             -0.1307889              0.3078467
      0.3594117              1.1309444              0.7434568
SP   1   1.00
      0.1267512              1.0000000              1.0000000
D    1   1.00
      0.8020000              1.0000000
D    1   1.00
      0.2005000              1.0000000
F    1   1.00
      0.5000000              1.0000000
****
C     0
S    6   1.00
   3047.5249000              0.0018347
    457.3695100              0.0140373
    103.9486900              0.0688426
     29.2101550              0.2321844
      9.2866630              0.4679413
      3.1639270              0.3623120
SP   3   1.00
      7.8682724             -0.1193324              0.0689991
      1.8812885             -0.1608542              0.3164240
      0.5442493              1.1434564              0.7443083
SP   1   1.00
      0.1687144              1.0000000              1.0000000
D    1   1.00
      1.2520000              1.0000000
D    1   1.00
      0.3130000              1.0000000
F    1   1.00
      0.8000000              1.0000000
****
N     0
S    6   1.00
   4173.5110000              0.0018348
    627.4579000              0.0139950
    142.9021000              0.0685870
     40.2343300              0.2322410
     12.8202100              0.4690700
      4.3904370              0.3604550
SP   3   1.00
     11.6263580             -0.1149610              0.0675800
      2.7162800             -0.1691180              0.3239070
      0.7722180              1.1458520              0.7408950
SP   1   1.00
      0.2120313              1.0000000              1.0000000
D    1   1.00
      1.8260000              1.0000000
D    1   1.00
      0.4565000              1.0000000
F    1   1.00
      1.0000000              1.0000000
****
O     0
S    6   1.00
   5484.6717000              0.0018311
    825.2349500              0.0139501
    188.0469600              0.0684451
     52.9645000              0.2327143
     16.8975700              0.4701930
      5.7996353              0.3585209
SP   3   1.00
     15.5396160             -0.1107775              0.0708743
      3.5999336             -0.1480263              0.3397528
      1.0137618              1.1307670              0.7271586
SP   1   1.00
      0.2700058              1.0000000              1.0000000
D    1   1.00
      2.5840000              1.0000000
D    1   1.00
      0.6460000              1.0000000
F    1   1.00
      1.4000000              1.0000000
****
F     0
S    6   1.00
   7001.7130900              0.0018196169
   1051.3660900              0.0139160796
    239.2856900              0.0684053245
     67.3974453              0.233185760
     21.5199573              0.471267439
      7.40310130             0.356618546
SP   3   1.00
     20.8479528             -0.108506975            0.0716287243
      4.80830834            -0.146451658            0.3459121030
      1.34406986             1.128688580            0.7224699570
SP   1   1.00
      0.358151393            1.0000000              1.0000000
D    1   1.00
      3.5000000              1.0000000
D    1   1.00
      0.8750000              1.0000000
F    1   1.00
      1.8500000              1.0000000
****
Al     0
S    6   1.00
  13983.1000000              0.00194267
   2098.7500000              0.0148599
    477.7050000              0.0728494
    134.3600000              0.2468300
     42.8709000              0.4872580
     14.5189000              0.3234960
SP   6   1.00
    239.6680000             -0.00292619             0.00460285
     57.4419000             -0.0374080              0.0331990
     18.2859000             -0.1144870              0.1362820
      6.5991400              0.1156350              0.3304760
      2.4904900              0.6125950              0.4491460
      0.9445400              0.3937990              0.2657040
SP   3   1.00
      1.2779000             -0.2276060             -0.0175130
      0.3975900              0.00144583             0.2445330
      0.1600950              1.0927900              0.8049340
SP   1   1.00
      0.0556577              1.0000000              1.0000000
D    1   1.00
      0.6500000              1.0000000
D    1   1.00
      0.1625000              1.0000000
F    1   1.00
      0.2500000              1.0000000
****
Si     0
S    6   1.00
  16115.9000000              0.00195948
   2425.5800000              0.01492880
    553.8670000              0.07284780
    156.3400000              0.24613000
     50.0683000              0.48591400
     17.0178000              0.32500200
SP   6   1.00
    292.7180000             -0.00278094             0.00443826
     69.8731000             -0.03571460             0.03266790
     22.3363000             -0.11498500             0.13472100
      8.1503900              0.09356340             0.32867800
      3.1345800              0.60301700             0.44964000
      1.2254300              0.41895900             0.26137200
SP   3   1.00
      1.7273800             -0.24463000            -0.01779510
      0.5729220              0.00431572             0.25353900
      0.2221920              1.09818000             0.80066900
SP   1   1.00
      0.0778369              1.00000000             1.00000000
D    1   1.00
      0.9000000              1.0000000
D    1   1.00
      0.2250000              1.0000000
F    1   1.00
      0.3200000              1.0000000
****
P     0
S    6   1.00
  19413.3000000              0.0018516
   2909.4200000              0.0142062
    661.3640000              0.0699995
    185.7590000              0.2400790
     59.1943000              0.4847620
     20.0310000              0.3352000
SP   6   1.00
    339.4780000             -0.00278217             0.00456462
     81.0101000             -0.0360499              0.03369360
     25.8780000             -0.1166310              0.13975500
      9.4522100              0.0968328              0.33936200
      3.6656600              0.6144180              0.45092100
      1.4674600              0.4037980              0.23858600
SP   3   1.00
      2.1562300             -0.2529230             -0.01776530
      0.7489970              0.0328517              0.27405800
      0.2831450              1.0812500              0.78542100
SP   1   1.00
      0.0998317              1.0000000              1.00000000
D    1   1.00
      1.1000000              1.0000000
D    1   1.00
      0.2750000              1.0000000
F    1   1.00
      0.4500000              1.0000000
****
S     0
S    6   1.00
  21917.1000000              0.0018690
   3301.4900000              0.0142300
    754.1460000              0.0696960
    212.7110000              0.2384870
     67.9896000              0.4833070
     23.0515000              0.3380740
SP   6   1.00
    423.7350000             -0.0023767              0.0040610
    100.7100000             -0.0316930              0.0306810
     32.1599000             -0.1133170              0.1304520
     11.8079000              0.0560900              0.3272050
      4.6311000              0.5922550              0.4528510
      1.8702500              0.4550060              0.2560420
SP   3   1.00
      2.6158400             -0.2503740             -0.0145110
      0.9221670              0.0669570              0.3102630
      0.3412870              1.0545100              0.7544830
SP   1   1.00
      0.1171670              1.0000000              1.0000000
D    1   1.00
      1.3000000              1.0000000
D    1   1.00
      0.3250000              1.0000000
F    1   1.00
      0.5500000              1.0000000
****
Cl     0
S    6   1.00
  25180.1000000              0.0018330
   3780.3500000              0.0140340
    860.4740000              0.0690970
    242.1450000              0.2374520
     77.3349000              0.4830340
     26.2470000              0.3398560
SP   6   1.00
    491.7650000             -0.0022974              0.0039894
    116.9840000             -0.0307140              0.0303180
     37.4153000             -0.1125280              0.1298800
     13.7834000              0.0450160              0.3279510
      5.4521500              0.5893530              0.4535270
      2.2258800              0.4652060              0.2521540
SP   3   1.00
      3.1864900             -0.2518300             -0.0142990
      1.1442700              0.0615890              0.3235720
      0.4203770              1.0601800              0.7435070
SP   1   1.00
      0.1426570              1.0000000              1.0000000
D    1   1.00
      1.5000000              1.0000000
D    1   1.00
      0.3750000              1.0000000
F    1   1.00
      0.7000000              1.0000000
****
}

set {
reference uhf
freeze_core true
e_convergence 10
d_convergence 10
dft_spherical_points 1202
dft_radial_points 99
}

e = energy('b3lyp')

print_out('Grab this energy {0}'.format(e))
--------------------------------------------------------------------------

    Molecular point group: c1

    Geometry (in Bohr), charge = 0, multiplicity = 2:

       Center              X                  Y                   Z               Mass
    ------------   -----------------  -----------------  -----------------  -----------------
         C           -0.323304616928    -0.000001795894     0.000020975574    12.000000000000
         C            0.061372844872    -1.399900782494    -2.425623821926    12.000000000000
         C            0.060986163972     2.801100951306    -0.000934757626    12.000000000000
         C            0.060836764272    -1.401195623794     2.425996875374    12.000000000000
         H            2.089359707372    -1.642408002494    -2.847557395726     1.007825032230
         H           -0.764967469728    -0.385963257994    -4.025892204526     1.007825032230
         H           -0.768339633328    -3.296398221594    -2.346594547826     1.007825032230
         H            2.090010363172     3.287742539706    -0.003044899526     1.007825032230
         H           -0.770323897828     3.681351284306     1.682133478974     1.007825032230
         H           -0.763908370128     3.679549068406    -1.676444054526     1.007825032230
         H            2.090938591772    -1.645428915394     2.846699252274     1.007825032230
         H           -0.765736663728    -3.292630160994     2.348934010774     1.007825032230
         H           -0.768780627528    -0.385847067294     4.028204722974     1.007825032230

  Charge       = 0
  Multiplicity = 2
  Basis Set: ANONYMOUS3939EE27
    Blend: 6-31G_2DFP_
  Basis Set: (ANONYMOUS3939EE27 AUX)
    Blend: DEF2-UNIVERSAL-JKFIT

    Orbital Energies [Eh]
    ---------------------

    Alpha Occupied:

       1A    -10.180410     2A    -10.167569     3A    -10.167562
       4A    -10.167519     5A     -0.797806     6A     -0.685889
       7A     -0.685769     8A     -0.530467     9A     -0.441025
      10A     -0.434718    11A     -0.434343    12A     -0.382363
      13A     -0.382318    14A     -0.363297    15A     -0.338155
      16A     -0.337831    17A     -0.169023

    Alpha Virtual:

      18A      0.075737    19A      0.133670    20A      0.133901
      21A      0.142010    22A      0.142425    23A      0.154584
      24A      0.178178    25A      0.178364    26A      0.203657
      27A      0.214348    28A      0.275853    29A      0.276072
      30A      0.399037    31A      0.399527    32A      0.403137
      33A      0.423662    34A      0.423984    35A      0.456459
      36A      0.495116    37A      0.495218    38A      0.511892
      39A      0.513846    40A      0.578422    41A      0.578540
      42A      0.590887    43A      0.591173    44A      0.601922
      45A      0.623747    46A      0.631070    47A      0.635433
      48A      0.635991    49A      0.662870    50A      0.663287
      51A      0.683119    52A      0.683510    53A      0.734684
      54A      0.824340    55A      0.824841    56A      0.853398
      57A      0.914101    58A      0.914527    59A      0.943502
      60A      0.943818    61A      0.960555    62A      0.960727
      63A      1.003356    64A      1.127413    65A      1.127973
      66A      1.141349    67A      1.162952    68A      1.163073
      69A      1.222879    70A      1.273710    71A      1.274196
      72A      1.279805    73A      1.323425    74A      1.323853
      75A      1.355136    76A      1.365251    77A      1.365852
      78A      1.391865    79A      1.402976    80A      1.403068
      81A      1.415473    82A      1.416873    83A      1.427147
      84A      1.490610    85A      1.497714    86A      1.542305
      87A      1.542335    88A      1.574088    89A      1.574479
      90A      1.667668    91A      1.737271    92A      1.738692
      93A      1.766809    94A      1.828138    95A      1.829691
      96A      1.970126    97A      2.016510    98A      2.017664
      99A      2.018727   100A      2.051043   101A      2.052094
     102A      2.737327   103A      2.737690   104A      2.790712
     105A      2.810915   106A      2.889233   107A      2.889544
     108A      2.894865   109A      2.929099   110A      2.929136
     111A      2.958344   112A      2.963699   113A      2.963801
     114A      3.033109   115A      3.069772   116A      3.070847
     117A      3.083514   118A      3.169033   119A      3.169864
     120A      3.180293   121A      3.285192   122A      3.285506
     123A      3.327296   124A      3.328052   125A      3.376322
     126A      3.490881   127A      3.491433   128A      3.514311
     129A      3.525955   130A      3.567765   131A      3.568640
     132A      3.576795   133A      3.665207   134A      3.666109
     135A      3.677814   136A      3.693111   137A      3.693527
     138A      3.776124   139A      3.776374   140A      3.788566
     141A      3.910693   142A      3.911870   143A      4.032092
     144A      4.108329   145A      4.109404   146A      4.144436
     147A      4.145105   148A      4.170389   149A      4.200833
     150A      4.201269   151A      4.202378   152A      4.207335
     153A      4.313093   154A      4.314374   155A      4.356566
     156A      4.421341   157A      4.422424   158A      4.441422
     159A      4.513370   160A      4.515455   161A      4.576776
     162A      4.576802   163A      4.616861   164A      4.707411
     165A      4.771856   166A      4.773817   167A      4.834556
     168A      4.962090   169A      5.001495   170A      5.002250
     171A      5.222293   172A      5.241466   173A      5.241974
     174A      5.349678   175A      5.352190   176A      5.476195

    Beta Occupied:

       1A    -10.168326     2A    -10.168319     3A    -10.168290
       4A    -10.166602     5A     -0.781104     6A     -0.683695
       7A     -0.683571     8A     -0.511496     9A     -0.431082
      10A     -0.430706    11A     -0.421685    12A     -0.376436
      13A     -0.376398    14A     -0.362277    15A     -0.333284
      16A     -0.332967

    Beta Virtual:

      17A     -0.025976    18A      0.076750    19A      0.134528
      20A      0.134808    21A      0.143881    22A      0.144350
      23A      0.163105    24A      0.181860    25A      0.182044
      26A      0.214580    27A      0.219020    28A      0.282193
      29A      0.282410    30A      0.400207    31A      0.400707
      32A      0.419568    33A      0.426471    34A      0.426793
      35A      0.468385    36A      0.497372    37A      0.497485
      38A      0.513633    39A      0.556133    40A      0.583957
      41A      0.584072    42A      0.597022    43A      0.597354
      44A      0.609359    45A      0.627137    46A      0.631233
      47A      0.638760    48A      0.639276    49A      0.666445
      50A      0.666830    51A      0.685813    52A      0.686157
      53A      0.757183    54A      0.829522    55A      0.829999
      56A      0.854775    57A      0.922107    58A      0.922493
      59A      0.945339    60A      0.952722    61A      0.965852
      62A      0.966059    63A      1.008584    64A      1.131459
      65A      1.132010    66A      1.154738    67A      1.168001
      68A      1.168113    69A      1.231869    70A      1.279301
      71A      1.279822    72A      1.285572    73A      1.328390
      74A      1.328814    75A      1.364528    76A      1.370559
      77A      1.371033    78A      1.392929    79A      1.406425
      80A      1.406555    81A      1.420574    82A      1.421873
      83A      1.427426    84A      1.491654    85A      1.508157
      86A      1.546816    87A      1.546906    88A      1.581847
      89A      1.582242    90A      1.672443    91A      1.743013
      92A      1.744463    93A      1.777643    94A      1.832018
      95A      1.833580    96A      1.970990    97A      2.023682
      98A      2.024811    99A      2.038629   100A      2.057753
     101A      2.058830   102A      2.745640   103A      2.746025
     104A      2.811324   105A      2.815823   106A      2.901831
     107A      2.902230   108A      2.924537   109A      2.931620
     110A      2.931675   111A      2.959414   112A      2.968190
     113A      2.968304   114A      3.041124   115A      3.079567
     116A      3.080635   117A      3.085449   118A      3.184858
     119A      3.185616   120A      3.187933   121A      3.290035
     122A      3.290371   123A      3.331058   124A      3.331883
     125A      3.384117   126A      3.493579   127A      3.494105
     128A      3.512669   129A      3.528985   130A      3.576661
     131A      3.581001   132A      3.582037   133A      3.669813
     134A      3.670482   135A      3.691057   136A      3.725053
     137A      3.725124   138A      3.780638   139A      3.780949
     140A      3.817077   141A      3.920457   142A      3.921767
     143A      4.042856   144A      4.114859   145A      4.116354
     146A      4.151468   147A      4.152584   148A      4.184569
     149A      4.206787   150A      4.208266   151A      4.209312
     152A      4.211872   153A      4.320657   154A      4.321856
     155A      4.359938   156A      4.429604   157A      4.430646
     158A      4.444324   159A      4.521164   160A      4.523263
     161A      4.587395   162A      4.587452   163A      4.624062
     164A      4.717759   165A      4.778840   166A      4.780747
     167A      4.837468   168A      4.966911   169A      5.005556
     170A      5.006307   171A      5.227928   172A      5.243264
     173A      5.243867   174A      5.356194   175A      5.358685
     176A      5.478529

    Final Occupation by Irrep:
              A
    DOCC [    16 ]
    SOCC [     1 ]

  @DF-UKS Final Energy:  -157.81308071645185

   => Energetics <=

    Nuclear Repulsion Energy =            125.3573147429293329
    One-Electron Energy =                -458.6781267692095980
    Two-Electron Energy =                 195.8108575520738555
    DFT Exchange-Correlation Energy =     -20.3031262422454830
    Empirical Dispersion Energy =           0.0000000000000000
    VV10 Nonlocal Energy =                  0.0000000000000000
    Total Energy =                       -157.8130807164518501

  UHF NO Occupations:
  HONO-2 :   15  A 1.9995983
  HONO-1 :   16  A 1.9989811
  HONO-0 :   17  A 1.0000000
  LUNO+0 :   18  A 0.0010189
  LUNO+1 :   19  A 0.0004017
  LUNO+2 :   20  A 0.0001972
  LUNO+3 :   21  A 0.0001972

Computation Completed

Properties will be evaluated at   0.000000,   0.000000,   0.000000 [a0]

Properties computed using the SCF density matrix

  Nuclear Dipole Moment: [e a0]
     X:     0.8276      Y:    -0.0000      Z:     0.0032

  Electronic Dipole Moment: [e a0]
     X:    -0.7503      Y:     0.0000      Z:    -0.0049

  Dipole Moment: [e a0]
     X:     0.0773      Y:    -0.0000      Z:    -0.0017     Total:     0.0773

  Dipole Moment: [D]
     X:     0.1964      Y:    -0.0000      Z:    -0.0044     Total:     0.1965

*** tstop() called on n089 at Fri Nov  5 14:32:35 2021
Module time:
	user time   =     483.31 seconds =       8.06 minutes
	system time =       4.50 seconds =       0.07 minutes
	total time  =        123 seconds =       2.05 minutes
Total time:
	user time   =     483.31 seconds =       8.06 minutes
	system time =       4.50 seconds =       0.07 minutes
	total time  =        123 seconds =       2.05 minutes
Grab this energy -157.81308071645185
    Psi4 stopped on: Friday, 05 November 2021 02:32PM
    Psi4 wall time for execution: 0:02:02.73

*** Psi4 exiting successfully. Buy a developer a beer!
