                               Psi4 1.4a2.dev629

  ==> Input File <==

--------------------------------------------------------------------------
import os
memory 14 GB

molecule {
 C   -0.3233373741   -0.0053452216    0.0000019032
 C    0.0610661537   -1.4025597408   -2.4254389111
 C    0.0611691418    2.8017039976   -0.0009662887
 C    0.0610674121   -1.4008865051    2.4264056758
 H    2.0870559825   -1.6454513186   -2.8463104518
 H   -0.7670173600   -0.3863935912   -4.0274953548
 H   -0.7639026453   -3.2892622837   -2.3486390584
 H    2.0865612891    3.2887071392   -0.0026018975
 H   -0.7680645450    3.6815926709    1.6778712024
 H   -0.7633397905    3.6805732762   -1.6743481115
 H    2.0870553556   -1.6409446762    2.8489110711
 H   -0.7686286678   -3.2928191299    2.3477579003
 H   -0.7622928288   -0.3889389304    4.0248523210
units bohr
0 2
}

basis {

assign 6-31g_2dfp_

[ 6-31g_2dfp_ ]

spherical

!----------------------------------------------------------------------
! Basis Set Exchange
! Version v0.8.13
! https://www.basissetexchange.org
!----------------------------------------------------------------------
!   Basis set: 6-31G(2df,p)
! Description: 6-31G(2df,p)
!        Role: orbital
!     Version: 0  (Data from the original Basis Set Exchange)
!----------------------------------------------------------------------

****
H     0
S    3   1.00
     18.7311370              0.03349460
      2.8253937              0.23472695
      0.6401217              0.81375733
S    1   1.00
      0.1612778              1.00000000
P    1   1.00
      1.5000000              1.0000000
P    1   1.00
      0.3750000              1.0000000
****
B     0
S    6   1.00
   2068.8823000              0.0018663
    310.6495700              0.0142515
     70.6830330              0.0695516
     19.8610800              0.2325729
      6.2993048              0.4670787
      2.1270270              0.3634314
SP   3   1.00
      4.7279710             -0.1303938              0.0745976
      1.1903377             -0.1307889              0.3078467
      0.3594117              1.1309444              0.7434568
SP   1   1.00
      0.1267512              1.0000000              1.0000000
D    1   1.00
      0.8020000              1.0000000
D    1   1.00
      0.2005000              1.0000000
F    1   1.00
      0.5000000              1.0000000
****
C     0
S    6   1.00
   3047.5249000              0.0018347
    457.3695100              0.0140373
    103.9486900              0.0688426
     29.2101550              0.2321844
      9.2866630              0.4679413
      3.1639270              0.3623120
SP   3   1.00
      7.8682724             -0.1193324              0.0689991
      1.8812885             -0.1608542              0.3164240
      0.5442493              1.1434564              0.7443083
SP   1   1.00
      0.1687144              1.0000000              1.0000000
D    1   1.00
      1.2520000              1.0000000
D    1   1.00
      0.3130000              1.0000000
F    1   1.00
      0.8000000              1.0000000
****
N     0
S    6   1.00
   4173.5110000              0.0018348
    627.4579000              0.0139950
    142.9021000              0.0685870
     40.2343300              0.2322410
     12.8202100              0.4690700
      4.3904370              0.3604550
SP   3   1.00
     11.6263580             -0.1149610              0.0675800
      2.7162800             -0.1691180              0.3239070
      0.7722180              1.1458520              0.7408950
SP   1   1.00
      0.2120313              1.0000000              1.0000000
D    1   1.00
      1.8260000              1.0000000
D    1   1.00
      0.4565000              1.0000000
F    1   1.00
      1.0000000              1.0000000
****
O     0
S    6   1.00
   5484.6717000              0.0018311
    825.2349500              0.0139501
    188.0469600              0.0684451
     52.9645000              0.2327143
     16.8975700              0.4701930
      5.7996353              0.3585209
SP   3   1.00
     15.5396160             -0.1107775              0.0708743
      3.5999336             -0.1480263              0.3397528
      1.0137618              1.1307670              0.7271586
SP   1   1.00
      0.2700058              1.0000000              1.0000000
D    1   1.00
      2.5840000              1.0000000
D    1   1.00
      0.6460000              1.0000000
F    1   1.00
      1.4000000              1.0000000
****
F     0
S    6   1.00
   7001.7130900              0.0018196169
   1051.3660900              0.0139160796
    239.2856900              0.0684053245
     67.3974453              0.233185760
     21.5199573              0.471267439
      7.40310130             0.356618546
SP   3   1.00
     20.8479528             -0.108506975            0.0716287243
      4.80830834            -0.146451658            0.3459121030
      1.34406986             1.128688580            0.7224699570
SP   1   1.00
      0.358151393            1.0000000              1.0000000
D    1   1.00
      3.5000000              1.0000000
D    1   1.00
      0.8750000              1.0000000
F    1   1.00
      1.8500000              1.0000000
****
Al     0
S    6   1.00
  13983.1000000              0.00194267
   2098.7500000              0.0148599
    477.7050000              0.0728494
    134.3600000              0.2468300
     42.8709000              0.4872580
     14.5189000              0.3234960
SP   6   1.00
    239.6680000             -0.00292619             0.00460285
     57.4419000             -0.0374080              0.0331990
     18.2859000             -0.1144870              0.1362820
      6.5991400              0.1156350              0.3304760
      2.4904900              0.6125950              0.4491460
      0.9445400              0.3937990              0.2657040
SP   3   1.00
      1.2779000             -0.2276060             -0.0175130
      0.3975900              0.00144583             0.2445330
      0.1600950              1.0927900              0.8049340
SP   1   1.00
      0.0556577              1.0000000              1.0000000
D    1   1.00
      0.6500000              1.0000000
D    1   1.00
      0.1625000              1.0000000
F    1   1.00
      0.2500000              1.0000000
****
Si     0
S    6   1.00
  16115.9000000              0.00195948
   2425.5800000              0.01492880
    553.8670000              0.07284780
    156.3400000              0.24613000
     50.0683000              0.48591400
     17.0178000              0.32500200
SP   6   1.00
    292.7180000             -0.00278094             0.00443826
     69.8731000             -0.03571460             0.03266790
     22.3363000             -0.11498500             0.13472100
      8.1503900              0.09356340             0.32867800
      3.1345800              0.60301700             0.44964000
      1.2254300              0.41895900             0.26137200
SP   3   1.00
      1.7273800             -0.24463000            -0.01779510
      0.5729220              0.00431572             0.25353900
      0.2221920              1.09818000             0.80066900
SP   1   1.00
      0.0778369              1.00000000             1.00000000
D    1   1.00
      0.9000000              1.0000000
D    1   1.00
      0.2250000              1.0000000
F    1   1.00
      0.3200000              1.0000000
****
P     0
S    6   1.00
  19413.3000000              0.0018516
   2909.4200000              0.0142062
    661.3640000              0.0699995
    185.7590000              0.2400790
     59.1943000              0.4847620
     20.0310000              0.3352000
SP   6   1.00
    339.4780000             -0.00278217             0.00456462
     81.0101000             -0.0360499              0.03369360
     25.8780000             -0.1166310              0.13975500
      9.4522100              0.0968328              0.33936200
      3.6656600              0.6144180              0.45092100
      1.4674600              0.4037980              0.23858600
SP   3   1.00
      2.1562300             -0.2529230             -0.01776530
      0.7489970              0.0328517              0.27405800
      0.2831450              1.0812500              0.78542100
SP   1   1.00
      0.0998317              1.0000000              1.00000000
D    1   1.00
      1.1000000              1.0000000
D    1   1.00
      0.2750000              1.0000000
F    1   1.00
      0.4500000              1.0000000
****
S     0
S    6   1.00
  21917.1000000              0.0018690
   3301.4900000              0.0142300
    754.1460000              0.0696960
    212.7110000              0.2384870
     67.9896000              0.4833070
     23.0515000              0.3380740
SP   6   1.00
    423.7350000             -0.0023767              0.0040610
    100.7100000             -0.0316930              0.0306810
     32.1599000             -0.1133170              0.1304520
     11.8079000              0.0560900              0.3272050
      4.6311000              0.5922550              0.4528510
      1.8702500              0.4550060              0.2560420
SP   3   1.00
      2.6158400             -0.2503740             -0.0145110
      0.9221670              0.0669570              0.3102630
      0.3412870              1.0545100              0.7544830
SP   1   1.00
      0.1171670              1.0000000              1.0000000
D    1   1.00
      1.3000000              1.0000000
D    1   1.00
      0.3250000              1.0000000
F    1   1.00
      0.5500000              1.0000000
****
Cl     0
S    6   1.00
  25180.1000000              0.0018330
   3780.3500000              0.0140340
    860.4740000              0.0690970
    242.1450000              0.2374520
     77.3349000              0.4830340
     26.2470000              0.3398560
SP   6   1.00
    491.7650000             -0.0022974              0.0039894
    116.9840000             -0.0307140              0.0303180
     37.4153000             -0.1125280              0.1298800
     13.7834000              0.0450160              0.3279510
      5.4521500              0.5893530              0.4535270
      2.2258800              0.4652060              0.2521540
SP   3   1.00
      3.1864900             -0.2518300             -0.0142990
      1.1442700              0.0615890              0.3235720
      0.4203770              1.0601800              0.7435070
SP   1   1.00
      0.1426570              1.0000000              1.0000000
D    1   1.00
      1.5000000              1.0000000
D    1   1.00
      0.3750000              1.0000000
F    1   1.00
      0.7000000              1.0000000
****
}

set {
reference uhf
freeze_core true
e_convergence 10
d_convergence 10
dft_spherical_points 1202
dft_radial_points 99
}

e = energy('b3lyp')

print_out('Grab this energy {0}'.format(e))
--------------------------------------------------------------------------

    Molecular point group: c1

    Geometry (in Bohr), charge = 0, multiplicity = 2:

       Center              X                  Y                   Z               Mass
    ------------   -----------------  -----------------  -----------------  -----------------
         C           -0.323338398451    -0.003979694487     0.000001444949    12.000000000000
         C            0.061065129349    -1.401194213687    -2.425439369351    12.000000000000
         C            0.061168117449     2.803069524713    -0.000966746951    12.000000000000
         C            0.061066387749    -1.399520977987     2.426405217549    12.000000000000
         H            2.087054958149    -1.644085791487    -2.846310910051     1.007825032230
         H           -0.767018384351    -0.385028064087    -4.027495813051     1.007825032230
         H           -0.763903669651    -3.287896756587    -2.348639516651     1.007825032230
         H            2.086560264749     3.290072666313    -0.002602355751     1.007825032230
         H           -0.768065569351     3.682958198013     1.677870744149     1.007825032230
         H           -0.763340814851     3.681938803313    -1.674348569751     1.007825032230
         H            2.087054331249    -1.639579149087     2.848910612849     1.007825032230
         H           -0.768629692151    -3.291453602787     2.347757442049     1.007825032230
         H           -0.762293853151    -0.387573403287     4.024851862749     1.007825032230

  Charge       = 0
  Multiplicity = 2
  Basis Set: ANONYMOUSF241C641
    Blend: 6-31G_2DFP_
  Basis Set: (ANONYMOUSF241C641 AUX)
    Blend: DEF2-UNIVERSAL-JKFIT

    Orbital Energies [Eh]
    ---------------------

    Alpha Occupied:

       1A    -10.180342     2A    -10.167055     3A    -10.167013
       4A    -10.166976     5A     -0.797769     6A     -0.686377
       7A     -0.685998     8A     -0.530777     9A     -0.441131
      10A     -0.434880    11A     -0.434459    12A     -0.382718
      13A     -0.382484    14A     -0.363607    15A     -0.338517
      16A     -0.337478    17A     -0.168960

    Alpha Virtual:

      18A      0.076071    19A      0.134130    20A      0.134159
      21A      0.142458    22A      0.142809    23A      0.154878
      24A      0.178774    25A      0.178788    26A      0.203542
      27A      0.214805    28A      0.275698    29A      0.276272
      30A      0.399103    31A      0.399355    32A      0.403344
      33A      0.424096    34A      0.424098    35A      0.456591
      36A      0.495341    37A      0.495439    38A      0.512159
      39A      0.513978    40A      0.578615    41A      0.579013
      42A      0.591636    43A      0.591647    44A      0.602572
      45A      0.624707    46A      0.631827    47A      0.636105
      48A      0.636392    49A      0.663346    50A      0.663480
      51A      0.683814    52A      0.683911    53A      0.734994
      54A      0.825299    55A      0.825513    56A      0.853915
      57A      0.914911    58A      0.915134    59A      0.944100
      60A      0.944645    61A      0.961122    62A      0.961457
      63A      1.003457    64A      1.127819    65A      1.128365
      66A      1.142259    67A      1.162872    68A      1.163662
      69A      1.223326    70A      1.274027    71A      1.274959
      72A      1.279347    73A      1.324247    74A      1.324438
      75A      1.355987    76A      1.365793    77A      1.366318
      78A      1.392455    79A      1.403997    80A      1.404096
      81A      1.416803    82A      1.417439    83A      1.427925
      84A      1.491454    85A      1.499103    86A      1.542822
      87A      1.542832    88A      1.574433    89A      1.574471
      90A      1.669833    91A      1.739211    92A      1.739614
      93A      1.768308    94A      1.831142    95A      1.831657
      96A      1.971703    97A      2.018337    98A      2.018478
      99A      2.019627   100A      2.052125   101A      2.053182
     102A      2.738246   103A      2.738722   104A      2.790924
     105A      2.811426   106A      2.889388   107A      2.890513
     108A      2.894935   109A      2.929101   110A      2.929889
     111A      2.958989   112A      2.964244   113A      2.964531
     114A      3.033988   115A      3.070801   116A      3.071792
     117A      3.084368   118A      3.168723   119A      3.168787
     120A      3.180661   121A      3.285006   122A      3.285601
     123A      3.326789   124A      3.327546   125A      3.375603
     126A      3.489643   127A      3.490663   128A      3.514014
     129A      3.525346   130A      3.568151   131A      3.568628
     132A      3.575139   133A      3.666077   134A      3.666680
     135A      3.679679   136A      3.694096   137A      3.694129
     138A      3.776029   139A      3.777559   140A      3.789166
     141A      3.911769   142A      3.912691   143A      4.034427
     144A      4.110980   145A      4.111622   146A      4.147197
     147A      4.149138   148A      4.173133   149A      4.202067
     150A      4.203238   151A      4.203484   152A      4.211038
     153A      4.315397   154A      4.316531   155A      4.358973
     156A      4.424396   157A      4.424511   158A      4.443452
     159A      4.516706   160A      4.516983   161A      4.578114
     162A      4.578133   163A      4.617838   164A      4.709467
     165A      4.774067   166A      4.775166   167A      4.836889
     168A      4.962838   169A      5.002708   170A      5.003260
     171A      5.228027   172A      5.246720   173A      5.246770
     174A      5.355026   175A      5.356154   176A      5.479380

    Beta Occupied:

       1A    -10.167807     2A    -10.167768     3A    -10.167749
       4A    -10.166519     5A     -0.781094     6A     -0.684168
       7A     -0.683813     8A     -0.511749     9A     -0.431257
      10A     -0.430833    11A     -0.421818    12A     -0.376762
      13A     -0.376610    14A     -0.362591    15A     -0.333651
      16A     -0.332591

    Beta Virtual:

      17A     -0.025743    18A      0.077080    19A      0.135029
      20A      0.135040    21A      0.144340    22A      0.144670
      23A      0.163338    24A      0.182433    25A      0.182470
      26A      0.215027    27A      0.218932    28A      0.282081
      29A      0.282585    30A      0.400275    31A      0.400521
      32A      0.419791    33A      0.426897    34A      0.426919
      35A      0.468498    36A      0.497599    37A      0.497701
      38A      0.513896    39A      0.556320    40A      0.584145
      41A      0.584586    42A      0.597813    43A      0.597827
      44A      0.609995    45A      0.628052    46A      0.632014
      47A      0.639379    48A      0.639692    49A      0.666917
      50A      0.667039    51A      0.686447    52A      0.686548
      53A      0.757517    54A      0.830472    55A      0.830678
      56A      0.855268    57A      0.922855    58A      0.923132
      59A      0.945959    60A      0.953551    61A      0.966422
      62A      0.966770    63A      1.008697    64A      1.131891
      65A      1.132368    66A      1.155621    67A      1.167951
      68A      1.168728    69A      1.232298    70A      1.279677
      71A      1.280505    72A      1.285099    73A      1.329247
      74A      1.329415    75A      1.365401    76A      1.371086
      77A      1.371515    78A      1.393515    79A      1.407410
      80A      1.407612    81A      1.421859    82A      1.422481
      83A      1.428197    84A      1.492515    85A      1.509533
      86A      1.547224    87A      1.547248    88A      1.582315
      89A      1.582329    90A      1.674679    91A      1.744969
      92A      1.745379    93A      1.779088    94A      1.834984
      95A      1.835527    96A      1.972576    97A      2.024891
      98A      2.026008    99A      2.039704   100A      2.058857
     101A      2.059884   102A      2.746552   103A      2.747088
     104A      2.811834   105A      2.816064   106A      2.902164
     107A      2.903111   108A      2.924642   109A      2.931529
     110A      2.932425   111A      2.960055   112A      2.968787
     113A      2.969074   114A      3.041919   115A      3.080787
     116A      3.081626   117A      3.086188   118A      3.184333
     119A      3.184566   120A      3.188453   121A      3.289845
     122A      3.290359   123A      3.330592   124A      3.331354
     125A      3.383422   126A      3.492364   127A      3.493397
     128A      3.512387   129A      3.528387   130A      3.574994
     131A      3.581546   132A      3.581925   133A      3.670900
     134A      3.671347   135A      3.692970   136A      3.725605
     137A      3.725889   138A      3.780585   139A      3.782075
     140A      3.817682   141A      3.921592   142A      3.922507
     143A      4.045314   144A      4.117838   145A      4.118386
     146A      4.154438   147A      4.156331   148A      4.187146
     149A      4.208459   150A      4.209395   151A      4.210742
     152A      4.215588   153A      4.322777   154A      4.324036
     155A      4.362337   156A      4.432617   157A      4.432714
     158A      4.446340   159A      4.524449   160A      4.524820
     161A      4.588688   162A      4.588738   163A      4.625053
     164A      4.719814   165A      4.780984   166A      4.782155
     167A      4.839805   168A      4.967631   169A      5.006762
     170A      5.007287   171A      5.233743   172A      5.248514
     173A      5.248553   174A      5.361476   175A      5.362656
     176A      5.481702

    Final Occupation by Irrep:
              A
    DOCC [    16 ]
    SOCC [     1 ]

  @DF-UKS Final Energy:  -157.81305286736085

   => Energetics <=

    Nuclear Repulsion Energy =            125.3947211959882964
    One-Electron Energy =                -458.7490573772504376
    Two-Electron Energy =                 195.8484325735133211
    DFT Exchange-Correlation Energy =     -20.3071492596120144
    Empirical Dispersion Energy =           0.0000000000000000
    VV10 Nonlocal Energy =                  0.0000000000000000
    Total Energy =                       -157.8130528673608524

  UHF NO Occupations:
  HONO-2 :   15  A 1.9996009
  HONO-1 :   16  A 1.9989805
  HONO-0 :   17  A 1.0000000
  LUNO+0 :   18  A 0.0010195
  LUNO+1 :   19  A 0.0003991
  LUNO+2 :   20  A 0.0001986
  LUNO+3 :   21  A 0.0001965

Computation Completed

Properties will be evaluated at   0.000000,   0.000000,   0.000000 [a0]

Properties computed using the SCF density matrix

  Nuclear Dipole Moment: [e a0]
     X:     0.8272      Y:     0.0096      Z:    -0.0000

  Electronic Dipole Moment: [e a0]
     X:    -0.7493      Y:    -0.0108      Z:     0.0000

  Dipole Moment: [e a0]
     X:     0.0779      Y:    -0.0012      Z:    -0.0000     Total:     0.0779

  Dipole Moment: [D]
     X:     0.1980      Y:    -0.0031      Z:    -0.0000     Total:     0.1981

*** tstop() called on n089 at Fri Nov  5 13:44:11 2021
Module time:
	user time   =     509.03 seconds =       8.48 minutes
	system time =       4.66 seconds =       0.08 minutes
	total time  =        129 seconds =       2.15 minutes
Total time:
	user time   =     509.03 seconds =       8.48 minutes
	system time =       4.66 seconds =       0.08 minutes
	total time  =        129 seconds =       2.15 minutes
Grab this energy -157.81305286736085
    Psi4 stopped on: Friday, 05 November 2021 01:44PM
    Psi4 wall time for execution: 0:02:09.23

*** Psi4 exiting successfully. Buy a developer a beer!
