                               Psi4 1.4a2.dev629

  ==> Input File <==

--------------------------------------------------------------------------
import os
memory 14 GB

molecule {
 C   -0.3236320133   -0.0050201470   -0.0000000000
 C    0.0609771647   -1.4009000775   -2.4372170478
 C    0.0617658560    2.7992725415    0.0000000000
 C    0.0609771647   -1.4009000775    2.4372170478
 H    2.0868372647   -1.6413119113   -2.8619372731
 H   -0.7684921789   -0.3824186815   -4.0327317368
 H   -0.7638758004   -3.2935819908   -2.3671555282
 H    2.0878715758    3.2855246887    0.0000000000
 H   -0.7647530977    3.6783119628    1.6766893455
 H   -0.7647530977    3.6783119628   -1.6766893455
 H    2.0868372647   -1.6413119113    2.8619372731
 H   -0.7638758004   -3.2935819908    2.3671555282
 H   -0.7684921789   -0.3824186815    4.0327317368
units bohr
0 2
}

basis {

assign 6-31g_2dfp_

[ 6-31g_2dfp_ ]

spherical

!----------------------------------------------------------------------
! Basis Set Exchange
! Version v0.8.13
! https://www.basissetexchange.org
!----------------------------------------------------------------------
!   Basis set: 6-31G(2df,p)
! Description: 6-31G(2df,p)
!        Role: orbital
!     Version: 0  (Data from the original Basis Set Exchange)
!----------------------------------------------------------------------

****
H     0
S    3   1.00
     18.7311370              0.03349460
      2.8253937              0.23472695
      0.6401217              0.81375733
S    1   1.00
      0.1612778              1.00000000
P    1   1.00
      1.5000000              1.0000000
P    1   1.00
      0.3750000              1.0000000
****
B     0
S    6   1.00
   2068.8823000              0.0018663
    310.6495700              0.0142515
     70.6830330              0.0695516
     19.8610800              0.2325729
      6.2993048              0.4670787
      2.1270270              0.3634314
SP   3   1.00
      4.7279710             -0.1303938              0.0745976
      1.1903377             -0.1307889              0.3078467
      0.3594117              1.1309444              0.7434568
SP   1   1.00
      0.1267512              1.0000000              1.0000000
D    1   1.00
      0.8020000              1.0000000
D    1   1.00
      0.2005000              1.0000000
F    1   1.00
      0.5000000              1.0000000
****
C     0
S    6   1.00
   3047.5249000              0.0018347
    457.3695100              0.0140373
    103.9486900              0.0688426
     29.2101550              0.2321844
      9.2866630              0.4679413
      3.1639270              0.3623120
SP   3   1.00
      7.8682724             -0.1193324              0.0689991
      1.8812885             -0.1608542              0.3164240
      0.5442493              1.1434564              0.7443083
SP   1   1.00
      0.1687144              1.0000000              1.0000000
D    1   1.00
      1.2520000              1.0000000
D    1   1.00
      0.3130000              1.0000000
F    1   1.00
      0.8000000              1.0000000
****
N     0
S    6   1.00
   4173.5110000              0.0018348
    627.4579000              0.0139950
    142.9021000              0.0685870
     40.2343300              0.2322410
     12.8202100              0.4690700
      4.3904370              0.3604550
SP   3   1.00
     11.6263580             -0.1149610              0.0675800
      2.7162800             -0.1691180              0.3239070
      0.7722180              1.1458520              0.7408950
SP   1   1.00
      0.2120313              1.0000000              1.0000000
D    1   1.00
      1.8260000              1.0000000
D    1   1.00
      0.4565000              1.0000000
F    1   1.00
      1.0000000              1.0000000
****
O     0
S    6   1.00
   5484.6717000              0.0018311
    825.2349500              0.0139501
    188.0469600              0.0684451
     52.9645000              0.2327143
     16.8975700              0.4701930
      5.7996353              0.3585209
SP   3   1.00
     15.5396160             -0.1107775              0.0708743
      3.5999336             -0.1480263              0.3397528
      1.0137618              1.1307670              0.7271586
SP   1   1.00
      0.2700058              1.0000000              1.0000000
D    1   1.00
      2.5840000              1.0000000
D    1   1.00
      0.6460000              1.0000000
F    1   1.00
      1.4000000              1.0000000
****
F     0
S    6   1.00
   7001.7130900              0.0018196169
   1051.3660900              0.0139160796
    239.2856900              0.0684053245
     67.3974453              0.233185760
     21.5199573              0.471267439
      7.40310130             0.356618546
SP   3   1.00
     20.8479528             -0.108506975            0.0716287243
      4.80830834            -0.146451658            0.3459121030
      1.34406986             1.128688580            0.7224699570
SP   1   1.00
      0.358151393            1.0000000              1.0000000
D    1   1.00
      3.5000000              1.0000000
D    1   1.00
      0.8750000              1.0000000
F    1   1.00
      1.8500000              1.0000000
****
Al     0
S    6   1.00
  13983.1000000              0.00194267
   2098.7500000              0.0148599
    477.7050000              0.0728494
    134.3600000              0.2468300
     42.8709000              0.4872580
     14.5189000              0.3234960
SP   6   1.00
    239.6680000             -0.00292619             0.00460285
     57.4419000             -0.0374080              0.0331990
     18.2859000             -0.1144870              0.1362820
      6.5991400              0.1156350              0.3304760
      2.4904900              0.6125950              0.4491460
      0.9445400              0.3937990              0.2657040
SP   3   1.00
      1.2779000             -0.2276060             -0.0175130
      0.3975900              0.00144583             0.2445330
      0.1600950              1.0927900              0.8049340
SP   1   1.00
      0.0556577              1.0000000              1.0000000
D    1   1.00
      0.6500000              1.0000000
D    1   1.00
      0.1625000              1.0000000
F    1   1.00
      0.2500000              1.0000000
****
Si     0
S    6   1.00
  16115.9000000              0.00195948
   2425.5800000              0.01492880
    553.8670000              0.07284780
    156.3400000              0.24613000
     50.0683000              0.48591400
     17.0178000              0.32500200
SP   6   1.00
    292.7180000             -0.00278094             0.00443826
     69.8731000             -0.03571460             0.03266790
     22.3363000             -0.11498500             0.13472100
      8.1503900              0.09356340             0.32867800
      3.1345800              0.60301700             0.44964000
      1.2254300              0.41895900             0.26137200
SP   3   1.00
      1.7273800             -0.24463000            -0.01779510
      0.5729220              0.00431572             0.25353900
      0.2221920              1.09818000             0.80066900
SP   1   1.00
      0.0778369              1.00000000             1.00000000
D    1   1.00
      0.9000000              1.0000000
D    1   1.00
      0.2250000              1.0000000
F    1   1.00
      0.3200000              1.0000000
****
P     0
S    6   1.00
  19413.3000000              0.0018516
   2909.4200000              0.0142062
    661.3640000              0.0699995
    185.7590000              0.2400790
     59.1943000              0.4847620
     20.0310000              0.3352000
SP   6   1.00
    339.4780000             -0.00278217             0.00456462
     81.0101000             -0.0360499              0.03369360
     25.8780000             -0.1166310              0.13975500
      9.4522100              0.0968328              0.33936200
      3.6656600              0.6144180              0.45092100
      1.4674600              0.4037980              0.23858600
SP   3   1.00
      2.1562300             -0.2529230             -0.01776530
      0.7489970              0.0328517              0.27405800
      0.2831450              1.0812500              0.78542100
SP   1   1.00
      0.0998317              1.0000000              1.00000000
D    1   1.00
      1.1000000              1.0000000
D    1   1.00
      0.2750000              1.0000000
F    1   1.00
      0.4500000              1.0000000
****
S     0
S    6   1.00
  21917.1000000              0.0018690
   3301.4900000              0.0142300
    754.1460000              0.0696960
    212.7110000              0.2384870
     67.9896000              0.4833070
     23.0515000              0.3380740
SP   6   1.00
    423.7350000             -0.0023767              0.0040610
    100.7100000             -0.0316930              0.0306810
     32.1599000             -0.1133170              0.1304520
     11.8079000              0.0560900              0.3272050
      4.6311000              0.5922550              0.4528510
      1.8702500              0.4550060              0.2560420
SP   3   1.00
      2.6158400             -0.2503740             -0.0145110
      0.9221670              0.0669570              0.3102630
      0.3412870              1.0545100              0.7544830
SP   1   1.00
      0.1171670              1.0000000              1.0000000
D    1   1.00
      1.3000000              1.0000000
D    1   1.00
      0.3250000              1.0000000
F    1   1.00
      0.5500000              1.0000000
****
Cl     0
S    6   1.00
  25180.1000000              0.0018330
   3780.3500000              0.0140340
    860.4740000              0.0690970
    242.1450000              0.2374520
     77.3349000              0.4830340
     26.2470000              0.3398560
SP   6   1.00
    491.7650000             -0.0022974              0.0039894
    116.9840000             -0.0307140              0.0303180
     37.4153000             -0.1125280              0.1298800
     13.7834000              0.0450160              0.3279510
      5.4521500              0.5893530              0.4535270
      2.2258800              0.4652060              0.2521540
SP   3   1.00
      3.1864900             -0.2518300             -0.0142990
      1.1442700              0.0615890              0.3235720
      0.4203770              1.0601800              0.7435070
SP   1   1.00
      0.1426570              1.0000000              1.0000000
D    1   1.00
      1.5000000              1.0000000
D    1   1.00
      0.3750000              1.0000000
F    1   1.00
      0.7000000              1.0000000
****
}

set {
reference uhf
freeze_core true
e_convergence 10
d_convergence 10
dft_spherical_points 1202
dft_radial_points 99
}

e = energy('b3lyp')

print_out('Grab this energy {0}'.format(e))
--------------------------------------------------------------------------

    Molecular point group: cs

    Geometry (in Bohr), charge = 0, multiplicity = 2:

       Center              X                  Y                   Z               Mass
    ------------   -----------------  -----------------  -----------------  -----------------
         C           -0.323656697251    -0.003565964606     0.000000000000    12.000000000000
         C            0.060952480749    -1.399445895106    -2.437217047800    12.000000000000
         C            0.061741172049     2.800726723894     0.000000000000    12.000000000000
         C            0.060952480749    -1.399445895106     2.437217047800    12.000000000000
         H            2.086812580749    -1.639857728906    -2.861937273100     1.007825032230
         H           -0.768516862851    -0.380964499106    -4.032731736800     1.007825032230
         H           -0.763900484351    -3.292127808406    -2.367155528200     1.007825032230
         H            2.087846891849     3.286978871094     0.000000000000     1.007825032230
         H           -0.764777781651     3.679766145194     1.676689345500     1.007825032230
         H           -0.764777781651     3.679766145194    -1.676689345500     1.007825032230
         H            2.086812580749    -1.639857728906     2.861937273100     1.007825032230
         H           -0.763900484351    -3.292127808406     2.367155528200     1.007825032230
         H           -0.768516862851    -0.380964499106     4.032731736800     1.007825032230

  Charge       = 0
  Multiplicity = 2
  Basis Set: ANONYMOUSD837E653
    Blend: 6-31G_2DFP_
  Basis Set: (ANONYMOUSD837E653 AUX)
    Blend: DEF2-UNIVERSAL-JKFIT

    Orbital Energies [Eh]
    ---------------------

    Alpha Occupied:

       1Ap   -10.181113     1App  -10.167547     2Ap   -10.167518
       3Ap   -10.167064     4Ap    -0.796724     2App   -0.686104
       5Ap    -0.685668     6Ap    -0.530778     7Ap    -0.440533
       3App   -0.434456     8Ap    -0.433928     4App   -0.382667
       9Ap    -0.382381     5App   -0.363728     6App   -0.338078
      10Ap    -0.337541    11Ap    -0.169286

    Alpha Virtual:

      12Ap     0.076101     7App    0.133877    13Ap     0.134352
       8App    0.142290    14Ap     0.142561    15Ap     0.154819
       9App    0.178381    16Ap     0.178826    17Ap     0.202434
      10App    0.214462    11App    0.275289    18Ap     0.275619
      12App    0.399116    19Ap     0.399317    20Ap     0.403618
      13App    0.424241    21Ap     0.424534    22Ap     0.456033
      14App    0.494764    23Ap     0.495555    15App    0.511838
      24Ap     0.513577    16App    0.577880    25Ap     0.578334
      17App    0.591061    26Ap     0.591128    27Ap     0.602126
      28Ap     0.624360    18App    0.631414    29Ap     0.635235
      19App    0.635674    20App    0.662716    30Ap     0.663151
      21App    0.683180    31Ap     0.683647    32Ap     0.735193
      22App    0.824732    33Ap     0.826377    23App    0.852910
      24App    0.914074    34Ap     0.914530    25App    0.942733
      35Ap     0.945074    36Ap     0.960206    26App    0.960677
      37Ap     1.002350    27App    1.126080    38Ap     1.128376
      39Ap     1.141874    28App    1.162009    40Ap     1.162965
      41Ap     1.222443    29App    1.273067    42Ap     1.274112
      43Ap     1.278836    44Ap     1.323940    30App    1.324095
      45Ap     1.355821    31App    1.363452    46Ap     1.364958
      32App    1.390920    33App    1.403581    47Ap     1.405123
      34App    1.416245    48Ap     1.417288    35App    1.426499
      36App    1.490239    49Ap     1.498494    37App    1.541775
      50Ap     1.542419    38App    1.571491    51Ap     1.575177
      52Ap     1.669892    39App    1.737726    53Ap     1.739801
      54Ap     1.766841    40App    1.829700    55Ap     1.830704
      41App    1.970354    56Ap     2.015984    42App    2.016543
      57Ap     2.019313    43App    2.045703    58Ap     2.050770
      44App    2.737633    59Ap     2.738130    60Ap     2.789759
      45App    2.808717    61Ap     2.888659    46App    2.888905
      62Ap     2.893422    47App    2.929158    63Ap     2.929492
      48App    2.958751    49App    2.963811    64Ap     2.965573
      65Ap     3.034040    50App    3.069324    66Ap     3.071343
      51App    3.082813    52App    3.167203    67Ap     3.168703
      68Ap     3.178706    69Ap     3.284058    53App    3.285503
      54App    3.325805    70Ap     3.327694    71Ap     3.377021
      55App    3.487813    72Ap     3.488828    56App    3.513252
      73Ap     3.522959    57App    3.567124    74Ap     3.569643
      58App    3.573283    59App    3.666331    75Ap     3.666535
      76Ap     3.677735    77Ap     3.692237    60App    3.693124
      78Ap     3.771439    61App    3.773174    79Ap     3.788555
      62App    3.908721    80Ap     3.911560    81Ap     4.032639
      63App    4.107118    82Ap     4.109858    64App    4.145755
      83Ap     4.149056    84Ap     4.172019    65App    4.199043
      85Ap     4.201207    86Ap     4.202452    66App    4.209320
      87Ap     4.314390    67App    4.314437    68App    4.356507
      69App    4.422171    88Ap     4.422517    70App    4.441128
      71App    4.513098    89Ap     4.514657    72App    4.573626
      90Ap     4.575807    91Ap     4.610244    92Ap     4.704677
      73App    4.766848    93Ap     4.769499    74App    4.832983
      94Ap     4.959845    75App    5.000339    95Ap     5.002355
      96Ap     5.227011    97Ap     5.245255    76App    5.245567
      77App    5.352207    98Ap     5.353601    78App    5.473631

    Beta Occupied:

       1App  -10.168297     1Ap   -10.168283     2Ap   -10.167831
       3Ap   -10.167257     4Ap    -0.780072     2App   -0.683931
       5Ap    -0.683487     6Ap    -0.511649     3App   -0.430853
       7Ap    -0.430311     8Ap    -0.421326     4App   -0.376799
       9Ap    -0.376494     5App   -0.362723     6App   -0.333201
      10Ap    -0.332655

    Beta Virtual:

      11Ap    -0.025775    12Ap     0.077099     7App    0.134762
      13Ap     0.135260     8App    0.144138    14Ap     0.144398
      15Ap     0.163234     9App    0.182017    16Ap     0.182480
      10App    0.214685    17Ap     0.217996    11App    0.281694
      18Ap     0.282048    12App    0.400276    19Ap     0.400488
      20Ap     0.420100    13App    0.427045    21Ap     0.427370
      22Ap     0.467589    14App    0.497006    23Ap     0.497810
      15App    0.513558    24Ap     0.555990    16App    0.583450
      25Ap     0.583855    17App    0.597289    26Ap     0.597373
      27Ap     0.609510    28Ap     0.627682    18App    0.631563
      29Ap     0.638431    19App    0.638901    20App    0.666292
      30Ap     0.666780    21App    0.685688    31Ap     0.686255
      32Ap     0.757894    22App    0.829872    33Ap     0.831539
      23App    0.854227    24App    0.922020    34Ap     0.922499
      25App    0.944588    35Ap     0.954071    36Ap     0.965464
      26App    0.965988    37Ap     1.007666    27App    1.130116
      38Ap     1.132400    39Ap     1.155235    28App    1.167046
      40Ap     1.168072    41Ap     1.231272    29App    1.278621
      42Ap     1.279677    43Ap     1.284654    44Ap     1.328915
      30App    1.329105    45Ap     1.365209    31App    1.368598
      46Ap     1.370306    32App    1.391973    33App    1.407108
      47Ap     1.408604    34App    1.421234    48Ap     1.422276
      35App    1.426740    36App    1.491291    49Ap     1.508874
      37App    1.546139    50Ap     1.546980    38App    1.579436
      51Ap     1.582840    52Ap     1.674731    39App    1.743488
      53Ap     1.745558    54Ap     1.777596    40App    1.833520
      55Ap     1.834559    41App    1.971212    42App    2.022865
      56Ap     2.025773    57Ap     2.037286    43App    2.052482
      58Ap     2.057368    44App    2.746019    59Ap     2.746606
      45App    2.809124    60Ap     2.814913    61Ap     2.901596
      46App    2.901779    62Ap     2.923063    47App    2.931564
      63Ap     2.931735    48App    2.959806    49App    2.968324
      64Ap     2.970028    65Ap     3.041888    50App    3.078935
      66Ap     3.081274    51App    3.084726    52App    3.183167
      67Ap     3.184429    68Ap     3.186453    69Ap     3.288752
      53App    3.290060    54App    3.329678    70Ap     3.331582
      71Ap     3.384855    55App    3.490561    72Ap     3.491567
      56App    3.511636    73Ap     3.526063    57App    3.572666
      58App    3.580900    74Ap     3.582961    59App    3.671157
      75Ap     3.671409    76Ap     3.691047    77Ap     3.724087
      60App    3.724891    78Ap     3.775956    61App    3.777679
      79Ap     3.817182    62App    3.918531    80Ap     3.921370
      81Ap     4.043596    63App    4.114211    82Ap     4.116940
      64App    4.152838    83Ap     4.156027    84Ap     4.185966
      65App    4.204941    85Ap     4.208328    86Ap     4.209203
      66App    4.213735    87Ap     4.321778    67App    4.321867
      68App    4.359890    69App    4.430261    88Ap     4.430602
      70App    4.444044    71App    4.520853    89Ap     4.522221
      72App    4.584128    90Ap     4.586469    91Ap     4.617452
      92Ap     4.714941    73App    4.773759    93Ap     4.776487
      74App    4.835903    94Ap     4.964616    75App    5.004339
      95Ap     5.006355    96Ap     5.232686    97Ap     5.247026
      76App    5.247344    77App    5.358615    98Ap     5.360045
      78App    5.475930

    Final Occupation by Irrep:
             Ap   App
    DOCC [    10,    6 ]
    SOCC [     1,    0 ]

  @DF-UKS Final Energy:  -157.81306516569992

   => Energetics <=

    Nuclear Repulsion Energy =            125.2138934746051575
    One-Electron Energy =                -458.3930454383167898
    Two-Electron Energy =                 195.6694402801277022
    DFT Exchange-Correlation Energy =     -20.3033534821159769
    Empirical Dispersion Energy =           0.0000000000000000
    VV10 Nonlocal Energy =                  0.0000000000000000
    Total Energy =                       -157.8130651656999248

  UHF NO Occupations:
  HONO-2 :    9 Ap 1.9996026
  HONO-1 :   10 Ap 1.9989734
  HONO-0 :   11 Ap 1.0000000
  LUNO+0 :   12 Ap 0.0010266
  LUNO+1 :   13 Ap 0.0003974
  LUNO+2 :   14 Ap 0.0002001
  LUNO+3 :    7App 0.0001994

Computation Completed

Properties will be evaluated at   0.000000,   0.000000,   0.000000 [a0]

Properties computed using the SCF density matrix

  Nuclear Dipole Moment: [e a0]
     X:     0.8270      Y:     0.0102      Z:     0.0000

  Electronic Dipole Moment: [e a0]
     X:    -0.7482      Y:    -0.0110      Z:     0.0000

  Dipole Moment: [e a0]
     X:     0.0788      Y:    -0.0007      Z:     0.0000     Total:     0.0788

  Dipole Moment: [D]
     X:     0.2002      Y:    -0.0019      Z:     0.0000     Total:     0.2002

*** tstop() called on n061 at Fri Nov  5 15:50:36 2021
Module time:
	user time   =     540.20 seconds =       9.00 minutes
	system time =      11.81 seconds =       0.20 minutes
	total time  =        139 seconds =       2.32 minutes
Total time:
	user time   =     540.20 seconds =       9.00 minutes
	system time =      11.81 seconds =       0.20 minutes
	total time  =        139 seconds =       2.32 minutes
Grab this energy -157.81306516569992
    Psi4 stopped on: Friday, 05 November 2021 03:50PM
    Psi4 wall time for execution: 0:02:18.85

*** Psi4 exiting successfully. Buy a developer a beer!
