                               Psi4 1.4a2.dev629

  ==> Input File <==

--------------------------------------------------------------------------
import os
memory 14 GB

molecule {
 C   -0.3215604681   -0.0000015253   -0.0002484980
 C    0.0607357869   -1.4008660734   -2.4262150503
 C    0.0615787081    2.8015020850    0.0001463922
 C    0.0626629388   -1.4006304028    2.4260997923
 H    2.0838021780   -1.6452748865   -2.8476321103
 H   -0.7667564495   -0.3868755928   -4.0250439276
 H   -0.7678830974   -3.2925038043   -2.3491186992
 H    2.0864625930    3.2941358744    0.0018497086
 H   -0.7670189186    3.6784442773    1.6764855597
 H   -0.7650898268    3.6756084142   -1.6776328639
 H    2.0893907416   -1.6489555363    2.8577067580
 H   -0.7640649691   -3.2892328136    2.3427113668
 H   -0.7648670937   -0.3853743294    4.0208915717
units bohr
0 2
}

basis {

assign 6-31g_2dfp_

[ 6-31g_2dfp_ ]

spherical

!----------------------------------------------------------------------
! Basis Set Exchange
! Version v0.8.13
! https://www.basissetexchange.org
!----------------------------------------------------------------------
!   Basis set: 6-31G(2df,p)
! Description: 6-31G(2df,p)
!        Role: orbital
!     Version: 0  (Data from the original Basis Set Exchange)
!----------------------------------------------------------------------

****
H     0
S    3   1.00
     18.7311370              0.03349460
      2.8253937              0.23472695
      0.6401217              0.81375733
S    1   1.00
      0.1612778              1.00000000
P    1   1.00
      1.5000000              1.0000000
P    1   1.00
      0.3750000              1.0000000
****
B     0
S    6   1.00
   2068.8823000              0.0018663
    310.6495700              0.0142515
     70.6830330              0.0695516
     19.8610800              0.2325729
      6.2993048              0.4670787
      2.1270270              0.3634314
SP   3   1.00
      4.7279710             -0.1303938              0.0745976
      1.1903377             -0.1307889              0.3078467
      0.3594117              1.1309444              0.7434568
SP   1   1.00
      0.1267512              1.0000000              1.0000000
D    1   1.00
      0.8020000              1.0000000
D    1   1.00
      0.2005000              1.0000000
F    1   1.00
      0.5000000              1.0000000
****
C     0
S    6   1.00
   3047.5249000              0.0018347
    457.3695100              0.0140373
    103.9486900              0.0688426
     29.2101550              0.2321844
      9.2866630              0.4679413
      3.1639270              0.3623120
SP   3   1.00
      7.8682724             -0.1193324              0.0689991
      1.8812885             -0.1608542              0.3164240
      0.5442493              1.1434564              0.7443083
SP   1   1.00
      0.1687144              1.0000000              1.0000000
D    1   1.00
      1.2520000              1.0000000
D    1   1.00
      0.3130000              1.0000000
F    1   1.00
      0.8000000              1.0000000
****
N     0
S    6   1.00
   4173.5110000              0.0018348
    627.4579000              0.0139950
    142.9021000              0.0685870
     40.2343300              0.2322410
     12.8202100              0.4690700
      4.3904370              0.3604550
SP   3   1.00
     11.6263580             -0.1149610              0.0675800
      2.7162800             -0.1691180              0.3239070
      0.7722180              1.1458520              0.7408950
SP   1   1.00
      0.2120313              1.0000000              1.0000000
D    1   1.00
      1.8260000              1.0000000
D    1   1.00
      0.4565000              1.0000000
F    1   1.00
      1.0000000              1.0000000
****
O     0
S    6   1.00
   5484.6717000              0.0018311
    825.2349500              0.0139501
    188.0469600              0.0684451
     52.9645000              0.2327143
     16.8975700              0.4701930
      5.7996353              0.3585209
SP   3   1.00
     15.5396160             -0.1107775              0.0708743
      3.5999336             -0.1480263              0.3397528
      1.0137618              1.1307670              0.7271586
SP   1   1.00
      0.2700058              1.0000000              1.0000000
D    1   1.00
      2.5840000              1.0000000
D    1   1.00
      0.6460000              1.0000000
F    1   1.00
      1.4000000              1.0000000
****
F     0
S    6   1.00
   7001.7130900              0.0018196169
   1051.3660900              0.0139160796
    239.2856900              0.0684053245
     67.3974453              0.233185760
     21.5199573              0.471267439
      7.40310130             0.356618546
SP   3   1.00
     20.8479528             -0.108506975            0.0716287243
      4.80830834            -0.146451658            0.3459121030
      1.34406986             1.128688580            0.7224699570
SP   1   1.00
      0.358151393            1.0000000              1.0000000
D    1   1.00
      3.5000000              1.0000000
D    1   1.00
      0.8750000              1.0000000
F    1   1.00
      1.8500000              1.0000000
****
Al     0
S    6   1.00
  13983.1000000              0.00194267
   2098.7500000              0.0148599
    477.7050000              0.0728494
    134.3600000              0.2468300
     42.8709000              0.4872580
     14.5189000              0.3234960
SP   6   1.00
    239.6680000             -0.00292619             0.00460285
     57.4419000             -0.0374080              0.0331990
     18.2859000             -0.1144870              0.1362820
      6.5991400              0.1156350              0.3304760
      2.4904900              0.6125950              0.4491460
      0.9445400              0.3937990              0.2657040
SP   3   1.00
      1.2779000             -0.2276060             -0.0175130
      0.3975900              0.00144583             0.2445330
      0.1600950              1.0927900              0.8049340
SP   1   1.00
      0.0556577              1.0000000              1.0000000
D    1   1.00
      0.6500000              1.0000000
D    1   1.00
      0.1625000              1.0000000
F    1   1.00
      0.2500000              1.0000000
****
Si     0
S    6   1.00
  16115.9000000              0.00195948
   2425.5800000              0.01492880
    553.8670000              0.07284780
    156.3400000              0.24613000
     50.0683000              0.48591400
     17.0178000              0.32500200
SP   6   1.00
    292.7180000             -0.00278094             0.00443826
     69.8731000             -0.03571460             0.03266790
     22.3363000             -0.11498500             0.13472100
      8.1503900              0.09356340             0.32867800
      3.1345800              0.60301700             0.44964000
      1.2254300              0.41895900             0.26137200
SP   3   1.00
      1.7273800             -0.24463000            -0.01779510
      0.5729220              0.00431572             0.25353900
      0.2221920              1.09818000             0.80066900
SP   1   1.00
      0.0778369              1.00000000             1.00000000
D    1   1.00
      0.9000000              1.0000000
D    1   1.00
      0.2250000              1.0000000
F    1   1.00
      0.3200000              1.0000000
****
P     0
S    6   1.00
  19413.3000000              0.0018516
   2909.4200000              0.0142062
    661.3640000              0.0699995
    185.7590000              0.2400790
     59.1943000              0.4847620
     20.0310000              0.3352000
SP   6   1.00
    339.4780000             -0.00278217             0.00456462
     81.0101000             -0.0360499              0.03369360
     25.8780000             -0.1166310              0.13975500
      9.4522100              0.0968328              0.33936200
      3.6656600              0.6144180              0.45092100
      1.4674600              0.4037980              0.23858600
SP   3   1.00
      2.1562300             -0.2529230             -0.01776530
      0.7489970              0.0328517              0.27405800
      0.2831450              1.0812500              0.78542100
SP   1   1.00
      0.0998317              1.0000000              1.00000000
D    1   1.00
      1.1000000              1.0000000
D    1   1.00
      0.2750000              1.0000000
F    1   1.00
      0.4500000              1.0000000
****
S     0
S    6   1.00
  21917.1000000              0.0018690
   3301.4900000              0.0142300
    754.1460000              0.0696960
    212.7110000              0.2384870
     67.9896000              0.4833070
     23.0515000              0.3380740
SP   6   1.00
    423.7350000             -0.0023767              0.0040610
    100.7100000             -0.0316930              0.0306810
     32.1599000             -0.1133170              0.1304520
     11.8079000              0.0560900              0.3272050
      4.6311000              0.5922550              0.4528510
      1.8702500              0.4550060              0.2560420
SP   3   1.00
      2.6158400             -0.2503740             -0.0145110
      0.9221670              0.0669570              0.3102630
      0.3412870              1.0545100              0.7544830
SP   1   1.00
      0.1171670              1.0000000              1.0000000
D    1   1.00
      1.3000000              1.0000000
D    1   1.00
      0.3250000              1.0000000
F    1   1.00
      0.5500000              1.0000000
****
Cl     0
S    6   1.00
  25180.1000000              0.0018330
   3780.3500000              0.0140340
    860.4740000              0.0690970
    242.1450000              0.2374520
     77.3349000              0.4830340
     26.2470000              0.3398560
SP   6   1.00
    491.7650000             -0.0022974              0.0039894
    116.9840000             -0.0307140              0.0303180
     37.4153000             -0.1125280              0.1298800
     13.7834000              0.0450160              0.3279510
      5.4521500              0.5893530              0.4535270
      2.2258800              0.4652060              0.2521540
SP   3   1.00
      3.1864900             -0.2518300             -0.0142990
      1.1442700              0.0615890              0.3235720
      0.4203770              1.0601800              0.7435070
SP   1   1.00
      0.1426570              1.0000000              1.0000000
D    1   1.00
      1.5000000              1.0000000
D    1   1.00
      0.3750000              1.0000000
F    1   1.00
      0.7000000              1.0000000
****
}

set {
reference uhf
freeze_core true
e_convergence 10
d_convergence 10
dft_spherical_points 1202
dft_radial_points 99
}

e = energy('b3lyp')

print_out('Grab this energy {0}'.format(e))
--------------------------------------------------------------------------

    Molecular point group: c1

    Geometry (in Bohr), charge = 0, multiplicity = 2:

       Center              X                  Y                   Z               Mass
    ------------   -----------------  -----------------  -----------------  -----------------
         C           -0.322226301672    -0.000001882452    -0.000206632167    12.000000000000
         C            0.060069953328    -1.400866430552    -2.426173184467    12.000000000000
         C            0.060912874528     2.801501727848     0.000188258033    12.000000000000
         C            0.061997105228    -1.400630759952     2.426141658133    12.000000000000
         H            2.083136344428    -1.645275243652    -2.847590244467     1.007825032230
         H           -0.767422283072    -0.386875949952    -4.025002061767     1.007825032230
         H           -0.768548930972    -3.292504161452    -2.349076833367     1.007825032230
         H            2.085796759428     3.294135517248     0.001891574433     1.007825032230
         H           -0.767684752172     3.678443920148     1.676527425533     1.007825032230
         H           -0.765755660372     3.675608057048    -1.677590998067     1.007825032230
         H            2.088724908028    -1.648955893452     2.857748623833     1.007825032230
         H           -0.764730802672    -3.289233170752     2.342753232633     1.007825032230
         H           -0.765532927272    -0.385374686552     4.020933437533     1.007825032230

  Charge       = 0
  Multiplicity = 2
  Basis Set: ANONYMOUSB59E8FE0
    Blend: 6-31G_2DFP_
  Basis Set: (ANONYMOUSB59E8FE0 AUX)
    Blend: DEF2-UNIVERSAL-JKFIT

    Orbital Energies [Eh]
    ---------------------

    Alpha Occupied:

       1A    -10.180330     2A    -10.167005     3A    -10.166973
       4A    -10.166927     5A     -0.797831     6A     -0.686254
       7A     -0.686196     8A     -0.530787     9A     -0.440955
      10A     -0.434969    11A     -0.434797    12A     -0.382671
      13A     -0.382222    14A     -0.363749    15A     -0.338175
      16A     -0.337867    17A     -0.169050

    Alpha Virtual:

      18A      0.076108    19A      0.134057    20A      0.134155
      21A      0.142488    22A      0.142902    23A      0.155085
      24A      0.178606    25A      0.178875    26A      0.203683
      27A      0.215024    28A      0.276004    29A      0.276045
      30A      0.399329    31A      0.399580    32A      0.403269
      33A      0.423843    34A      0.424047    35A      0.456830
      36A      0.495354    37A      0.495376    38A      0.511973
      39A      0.514039    40A      0.578841    41A      0.579074
      42A      0.591199    43A      0.591687    44A      0.602370
      45A      0.624826    46A      0.631999    47A      0.636134
      48A      0.636571    49A      0.663649    50A      0.663731
      51A      0.683653    52A      0.683882    53A      0.735076
      54A      0.825246    55A      0.825364    56A      0.854261
      57A      0.914855    58A      0.915490    59A      0.943815
      60A      0.944333    61A      0.960940    62A      0.961102
      63A      1.004176    64A      1.128162    65A      1.128972
      66A      1.141599    67A      1.163666    68A      1.163981
      69A      1.223256    70A      1.274351    71A      1.274566
      72A      1.279597    73A      1.324546    74A      1.324702
      75A      1.355561    76A      1.366382    77A      1.366398
      78A      1.392256    79A      1.403257    80A      1.404263
      81A      1.416628    82A      1.417298    83A      1.428539
      84A      1.492100    85A      1.498745    86A      1.542883
      87A      1.542916    88A      1.573356    89A      1.574325
      90A      1.669898    91A      1.739187    92A      1.739368
      93A      1.768185    94A      1.831246    95A      1.832109
      96A      1.971826    97A      2.018087    98A      2.019823
      99A      2.019980   100A      2.052651   101A      2.053573
     102A      2.738066   103A      2.738082   104A      2.791154
     105A      2.811945   106A      2.889938   107A      2.890259
     108A      2.895225   109A      2.929641   110A      2.930258
     111A      2.959051   112A      2.964254   113A      2.964618
     114A      3.034471   115A      3.070161   116A      3.071450
     117A      3.084002   118A      3.168490   119A      3.168945
     120A      3.180742   121A      3.284795   122A      3.285035
     123A      3.327390   124A      3.329148   125A      3.375324
     126A      3.488600   127A      3.490742   128A      3.514223
     129A      3.525499   130A      3.568747   131A      3.568968
     132A      3.576153   133A      3.665873   134A      3.666780
     135A      3.680743   136A      3.692948   137A      3.694242
     138A      3.777889   139A      3.778018   140A      3.787862
     141A      3.912205   142A      3.912478   143A      4.033342
     144A      4.111342   145A      4.111617   146A      4.147856
     147A      4.147925   148A      4.173179   149A      4.202094
     150A      4.203608   151A      4.204304   152A      4.211334
     153A      4.316092   154A      4.316487   155A      4.360119
     156A      4.423874   157A      4.424047   158A      4.444423
     159A      4.517007   160A      4.518281   161A      4.579226
     162A      4.579301   163A      4.618056   164A      4.709721
     165A      4.774374   166A      4.775547   167A      4.835904
     168A      4.963384   169A      5.002300   170A      5.003383
     171A      5.228432   172A      5.246201   173A      5.247296
     174A      5.356032   175A      5.356137   176A      5.479604

    Beta Occupied:

       1A    -10.167758     2A    -10.167731     3A    -10.167699
       4A    -10.166512     5A     -0.781160     6A     -0.684050
       7A     -0.684001     8A     -0.511755     9A     -0.431343
      10A     -0.431148    11A     -0.421659    12A     -0.376751
      13A     -0.376290    14A     -0.362727    15A     -0.333290
      16A     -0.333005

    Beta Virtual:

      17A     -0.025909    18A      0.077114    19A      0.134970
      20A      0.135052    21A      0.144391    22A      0.144761
      23A      0.163594    24A      0.182267    25A      0.182545
      26A      0.215255    27A      0.219025    28A      0.282336
      29A      0.282387    30A      0.400507    31A      0.400751
      32A      0.419738    33A      0.426647    34A      0.426854
      35A      0.468817    36A      0.497629    37A      0.497653
      38A      0.513713    39A      0.556298    40A      0.584407
      41A      0.584655    42A      0.597344    43A      0.597847
      44A      0.609807    45A      0.628207    46A      0.632171
      47A      0.639411    48A      0.639842    49A      0.667227
      50A      0.667327    51A      0.686285    52A      0.686482
      53A      0.757563    54A      0.830433    55A      0.830546
      56A      0.855617    57A      0.922898    58A      0.923482
      59A      0.946171    60A      0.952822    61A      0.966232
      62A      0.966368    63A      1.009446    64A      1.132237
      65A      1.132957    66A      1.154758    67A      1.168701
      68A      1.169082    69A      1.232326    70A      1.279981
      71A      1.280169    72A      1.285418    73A      1.329571
      74A      1.329735    75A      1.364906    76A      1.371606
      77A      1.371659    78A      1.393330    79A      1.406729
      80A      1.407749    81A      1.421624    82A      1.422285
      83A      1.428822    84A      1.493138    85A      1.509163
      86A      1.547191    87A      1.547421    88A      1.581143
      89A      1.582297    90A      1.674747    91A      1.744954
      92A      1.745129    93A      1.778979    94A      1.835104
      95A      1.835958    96A      1.972694    97A      2.026276
      98A      2.026393    99A      2.039474   100A      2.059339
     101A      2.060286   102A      2.746400   103A      2.746440
     104A      2.812361   105A      2.816294   106A      2.902547
     107A      2.902916   108A      2.924893   109A      2.932149
     110A      2.932743   111A      2.960122   112A      2.968834
     113A      2.969197   114A      3.042397   115A      3.080015
     116A      3.081390   117A      3.085820   118A      3.184233
     119A      3.184692   120A      3.188434   121A      3.289532
     122A      3.289848   123A      3.331181   124A      3.332917
     125A      3.383116   126A      3.491419   127A      3.493517
     128A      3.512597   129A      3.528508   130A      3.575737
     131A      3.582128   132A      3.582406   133A      3.670551
     134A      3.671424   135A      3.693975   136A      3.724989
     137A      3.725794   138A      3.782511   139A      3.782590
     140A      3.816413   141A      3.921967   142A      3.922253
     143A      4.044283   144A      4.118279   145A      4.118497
     146A      4.154901   147A      4.155135   148A      4.187204
     149A      4.209225   150A      4.209872   151A      4.210724
     152A      4.215839   153A      4.323578   154A      4.323916
     155A      4.363501   156A      4.432083   157A      4.432279
     158A      4.447282   159A      4.524793   160A      4.526051
     161A      4.589833   162A      4.589940   163A      4.625172
     164A      4.720170   165A      4.781285   166A      4.782518
     167A      4.838825   168A      4.968175   169A      5.006372
     170A      5.007423   171A      5.234133   172A      5.247990
     173A      5.249082   174A      5.362521   175A      5.362612
     176A      5.481931

    Final Occupation by Irrep:
              A
    DOCC [    16 ]
    SOCC [     1 ]

  @DF-UKS Final Energy:  -157.81307254941049

   => Energetics <=

    Nuclear Repulsion Energy =            125.4062270778484560
    One-Electron Energy =                -458.7715571341672671
    Two-Electron Energy =                 195.8597444154691232
    DFT Exchange-Correlation Energy =     -20.3074869085607652
    Empirical Dispersion Energy =           0.0000000000000000
    VV10 Nonlocal Energy =                  0.0000000000000000
    Total Energy =                       -157.8130725494104922

  UHF NO Occupations:
  HONO-2 :   15  A 1.9995995
  HONO-1 :   16  A 1.9989824
  HONO-0 :   17  A 1.0000000
  LUNO+0 :   18  A 0.0010176
  LUNO+1 :   19  A 0.0004005
  LUNO+2 :   20  A 0.0001974
  LUNO+3 :   21  A 0.0001971

Computation Completed

Properties will be evaluated at   0.000000,   0.000000,   0.000000 [a0]

Properties computed using the SCF density matrix

  Nuclear Dipole Moment: [e a0]
     X:     0.8225      Y:    -0.0000      Z:     0.0003

  Electronic Dipole Moment: [e a0]
     X:    -0.7450      Y:     0.0000      Z:    -0.0011

  Dipole Moment: [e a0]
     X:     0.0775      Y:     0.0000      Z:    -0.0008     Total:     0.0775

  Dipole Moment: [D]
     X:     0.1970      Y:     0.0000      Z:    -0.0020     Total:     0.1970

*** tstop() called on n054 at Fri Nov  5 15:17:29 2021
Module time:
	user time   =     512.25 seconds =       8.54 minutes
	system time =      11.57 seconds =       0.19 minutes
	total time  =        132 seconds =       2.20 minutes
Total time:
	user time   =     512.25 seconds =       8.54 minutes
	system time =      11.57 seconds =       0.19 minutes
	total time  =        132 seconds =       2.20 minutes
Grab this energy -157.8130725494105
    Psi4 stopped on: Friday, 05 November 2021 03:17PM
    Psi4 wall time for execution: 0:02:11.86

*** Psi4 exiting successfully. Buy a developer a beer!
