                               Psi4 1.4a2.dev629

  ==> Input File <==

--------------------------------------------------------------------------
import os
memory 14 GB

molecule {
 C   -0.3233407832   -0.0024291017   -0.0000000000
 C    0.0607415263   -1.4015023700   -2.4252956282
 C    0.0618162320    2.8030142022   -0.0000000000
 C    0.0607415263   -1.4015023700    2.4252956282
 H    2.0856482953   -1.6417907369   -2.8492455179
 H   -0.7698833922   -0.3886531615   -4.0206736489
 H   -0.7625024166   -3.2951372688   -2.3484066721
 H    2.0893683335    3.2872822970    0.0000000000
 H   -0.7642298422    3.6831376815    1.6762598049
 H   -0.7642298422    3.6831376815   -1.6762598049
 H    2.0856482953   -1.6417907369    2.8492455179
 H   -0.7625024166   -3.2951372688    2.3484066721
 H   -0.7698833922   -0.3886531615    4.0206736489
units bohr
0 2
}

basis {

assign 6-31g_2dfp_

[ 6-31g_2dfp_ ]

spherical

!----------------------------------------------------------------------
! Basis Set Exchange
! Version v0.8.13
! https://www.basissetexchange.org
!----------------------------------------------------------------------
!   Basis set: 6-31G(2df,p)
! Description: 6-31G(2df,p)
!        Role: orbital
!     Version: 0  (Data from the original Basis Set Exchange)
!----------------------------------------------------------------------

****
H     0
S    3   1.00
     18.7311370              0.03349460
      2.8253937              0.23472695
      0.6401217              0.81375733
S    1   1.00
      0.1612778              1.00000000
P    1   1.00
      1.5000000              1.0000000
P    1   1.00
      0.3750000              1.0000000
****
B     0
S    6   1.00
   2068.8823000              0.0018663
    310.6495700              0.0142515
     70.6830330              0.0695516
     19.8610800              0.2325729
      6.2993048              0.4670787
      2.1270270              0.3634314
SP   3   1.00
      4.7279710             -0.1303938              0.0745976
      1.1903377             -0.1307889              0.3078467
      0.3594117              1.1309444              0.7434568
SP   1   1.00
      0.1267512              1.0000000              1.0000000
D    1   1.00
      0.8020000              1.0000000
D    1   1.00
      0.2005000              1.0000000
F    1   1.00
      0.5000000              1.0000000
****
C     0
S    6   1.00
   3047.5249000              0.0018347
    457.3695100              0.0140373
    103.9486900              0.0688426
     29.2101550              0.2321844
      9.2866630              0.4679413
      3.1639270              0.3623120
SP   3   1.00
      7.8682724             -0.1193324              0.0689991
      1.8812885             -0.1608542              0.3164240
      0.5442493              1.1434564              0.7443083
SP   1   1.00
      0.1687144              1.0000000              1.0000000
D    1   1.00
      1.2520000              1.0000000
D    1   1.00
      0.3130000              1.0000000
F    1   1.00
      0.8000000              1.0000000
****
N     0
S    6   1.00
   4173.5110000              0.0018348
    627.4579000              0.0139950
    142.9021000              0.0685870
     40.2343300              0.2322410
     12.8202100              0.4690700
      4.3904370              0.3604550
SP   3   1.00
     11.6263580             -0.1149610              0.0675800
      2.7162800             -0.1691180              0.3239070
      0.7722180              1.1458520              0.7408950
SP   1   1.00
      0.2120313              1.0000000              1.0000000
D    1   1.00
      1.8260000              1.0000000
D    1   1.00
      0.4565000              1.0000000
F    1   1.00
      1.0000000              1.0000000
****
O     0
S    6   1.00
   5484.6717000              0.0018311
    825.2349500              0.0139501
    188.0469600              0.0684451
     52.9645000              0.2327143
     16.8975700              0.4701930
      5.7996353              0.3585209
SP   3   1.00
     15.5396160             -0.1107775              0.0708743
      3.5999336             -0.1480263              0.3397528
      1.0137618              1.1307670              0.7271586
SP   1   1.00
      0.2700058              1.0000000              1.0000000
D    1   1.00
      2.5840000              1.0000000
D    1   1.00
      0.6460000              1.0000000
F    1   1.00
      1.4000000              1.0000000
****
F     0
S    6   1.00
   7001.7130900              0.0018196169
   1051.3660900              0.0139160796
    239.2856900              0.0684053245
     67.3974453              0.233185760
     21.5199573              0.471267439
      7.40310130             0.356618546
SP   3   1.00
     20.8479528             -0.108506975            0.0716287243
      4.80830834            -0.146451658            0.3459121030
      1.34406986             1.128688580            0.7224699570
SP   1   1.00
      0.358151393            1.0000000              1.0000000
D    1   1.00
      3.5000000              1.0000000
D    1   1.00
      0.8750000              1.0000000
F    1   1.00
      1.8500000              1.0000000
****
Al     0
S    6   1.00
  13983.1000000              0.00194267
   2098.7500000              0.0148599
    477.7050000              0.0728494
    134.3600000              0.2468300
     42.8709000              0.4872580
     14.5189000              0.3234960
SP   6   1.00
    239.6680000             -0.00292619             0.00460285
     57.4419000             -0.0374080              0.0331990
     18.2859000             -0.1144870              0.1362820
      6.5991400              0.1156350              0.3304760
      2.4904900              0.6125950              0.4491460
      0.9445400              0.3937990              0.2657040
SP   3   1.00
      1.2779000             -0.2276060             -0.0175130
      0.3975900              0.00144583             0.2445330
      0.1600950              1.0927900              0.8049340
SP   1   1.00
      0.0556577              1.0000000              1.0000000
D    1   1.00
      0.6500000              1.0000000
D    1   1.00
      0.1625000              1.0000000
F    1   1.00
      0.2500000              1.0000000
****
Si     0
S    6   1.00
  16115.9000000              0.00195948
   2425.5800000              0.01492880
    553.8670000              0.07284780
    156.3400000              0.24613000
     50.0683000              0.48591400
     17.0178000              0.32500200
SP   6   1.00
    292.7180000             -0.00278094             0.00443826
     69.8731000             -0.03571460             0.03266790
     22.3363000             -0.11498500             0.13472100
      8.1503900              0.09356340             0.32867800
      3.1345800              0.60301700             0.44964000
      1.2254300              0.41895900             0.26137200
SP   3   1.00
      1.7273800             -0.24463000            -0.01779510
      0.5729220              0.00431572             0.25353900
      0.2221920              1.09818000             0.80066900
SP   1   1.00
      0.0778369              1.00000000             1.00000000
D    1   1.00
      0.9000000              1.0000000
D    1   1.00
      0.2250000              1.0000000
F    1   1.00
      0.3200000              1.0000000
****
P     0
S    6   1.00
  19413.3000000              0.0018516
   2909.4200000              0.0142062
    661.3640000              0.0699995
    185.7590000              0.2400790
     59.1943000              0.4847620
     20.0310000              0.3352000
SP   6   1.00
    339.4780000             -0.00278217             0.00456462
     81.0101000             -0.0360499              0.03369360
     25.8780000             -0.1166310              0.13975500
      9.4522100              0.0968328              0.33936200
      3.6656600              0.6144180              0.45092100
      1.4674600              0.4037980              0.23858600
SP   3   1.00
      2.1562300             -0.2529230             -0.01776530
      0.7489970              0.0328517              0.27405800
      0.2831450              1.0812500              0.78542100
SP   1   1.00
      0.0998317              1.0000000              1.00000000
D    1   1.00
      1.1000000              1.0000000
D    1   1.00
      0.2750000              1.0000000
F    1   1.00
      0.4500000              1.0000000
****
S     0
S    6   1.00
  21917.1000000              0.0018690
   3301.4900000              0.0142300
    754.1460000              0.0696960
    212.7110000              0.2384870
     67.9896000              0.4833070
     23.0515000              0.3380740
SP   6   1.00
    423.7350000             -0.0023767              0.0040610
    100.7100000             -0.0316930              0.0306810
     32.1599000             -0.1133170              0.1304520
     11.8079000              0.0560900              0.3272050
      4.6311000              0.5922550              0.4528510
      1.8702500              0.4550060              0.2560420
SP   3   1.00
      2.6158400             -0.2503740             -0.0145110
      0.9221670              0.0669570              0.3102630
      0.3412870              1.0545100              0.7544830
SP   1   1.00
      0.1171670              1.0000000              1.0000000
D    1   1.00
      1.3000000              1.0000000
D    1   1.00
      0.3250000              1.0000000
F    1   1.00
      0.5500000              1.0000000
****
Cl     0
S    6   1.00
  25180.1000000              0.0018330
   3780.3500000              0.0140340
    860.4740000              0.0690970
    242.1450000              0.2374520
     77.3349000              0.4830340
     26.2470000              0.3398560
SP   6   1.00
    491.7650000             -0.0022974              0.0039894
    116.9840000             -0.0307140              0.0303180
     37.4153000             -0.1125280              0.1298800
     13.7834000              0.0450160              0.3279510
      5.4521500              0.5893530              0.4535270
      2.2258800              0.4652060              0.2521540
SP   3   1.00
      3.1864900             -0.2518300             -0.0142990
      1.1442700              0.0615890              0.3235720
      0.4203770              1.0601800              0.7435070
SP   1   1.00
      0.1426570              1.0000000              1.0000000
D    1   1.00
      1.5000000              1.0000000
D    1   1.00
      0.3750000              1.0000000
F    1   1.00
      0.7000000              1.0000000
****
}

set {
reference uhf
freeze_core true
e_convergence 10
d_convergence 10
dft_spherical_points 1202
dft_radial_points 99
}

e = energy('b3lyp')

print_out('Grab this energy {0}'.format(e))
--------------------------------------------------------------------------

    Molecular point group: cs

    Geometry (in Bohr), charge = 0, multiplicity = 2:

       Center              X                  Y                   Z               Mass
    ------------   -----------------  -----------------  -----------------  -----------------
         C           -0.323340491643    -0.001962632338     0.000000000000    12.000000000000
         C            0.060741817857    -1.401035900638    -2.425295628200    12.000000000000
         C            0.061816523557     2.803480671562     0.000000000000    12.000000000000
         C            0.060741817857    -1.401035900638     2.425295628200    12.000000000000
         H            2.085648586857    -1.641324267538    -2.849245517900     1.007825032230
         H           -0.769883100643    -0.388186692138    -4.020673648900     1.007825032230
         H           -0.762502125043    -3.294670799438    -2.348406672100     1.007825032230
         H            2.089368625057     3.287748766362     0.000000000000     1.007825032230
         H           -0.764229550643     3.683604150862     1.676259804900     1.007825032230
         H           -0.764229550643     3.683604150862    -1.676259804900     1.007825032230
         H            2.085648586857    -1.641324267538     2.849245517900     1.007825032230
         H           -0.762502125043    -3.294670799438     2.348406672100     1.007825032230
         H           -0.769883100643    -0.388186692138     4.020673648900     1.007825032230

  Charge       = 0
  Multiplicity = 2
  Basis Set: ANONYMOUSB2FCD275
    Blend: 6-31G_2DFP_
  Basis Set: (ANONYMOUSB2FCD275 AUX)
    Blend: DEF2-UNIVERSAL-JKFIT

    Orbital Energies [Eh]
    ---------------------

    Alpha Occupied:

       1Ap   -10.180341     2Ap   -10.167233     1App  -10.166922
       3Ap   -10.166890     4Ap    -0.797767     2App   -0.686329
       5Ap    -0.686043     6Ap    -0.530776     7Ap    -0.441124
       8Ap    -0.434743     3App   -0.434600     4App   -0.382644
       9Ap    -0.382554     5App   -0.363610     6App   -0.338147
      10Ap    -0.337850    11Ap    -0.168960

    Alpha Virtual:

      12Ap     0.076073    13Ap     0.134093     7App    0.134220
       8App    0.142616    14Ap     0.142639    15Ap     0.154879
       9App    0.178774    16Ap     0.178780    17Ap     0.203547
      10App    0.214802    18Ap     0.275650    11App    0.276321
      19Ap     0.399209    12App    0.399237    20Ap     0.403356
      21Ap     0.424064    13App    0.424131    22Ap     0.456594
      14App    0.495340    23Ap     0.495439    15App    0.512160
      24Ap     0.513979    25Ap     0.578624    16App    0.579005
      26Ap     0.591408    17App    0.591863    27Ap     0.602573
      28Ap     0.624762    18App    0.631771    29Ap     0.636160
      19App    0.636340    30Ap     0.663208    20App    0.663617
      21App    0.683833    31Ap     0.683871    32Ap     0.734995
      33Ap     0.825379    22App    0.825436    23App    0.853916
      34Ap     0.914895    24App    0.915158    25App    0.944124
      35Ap     0.944614    36Ap     0.961260    26App    0.961326
      37Ap     1.003455    27App    1.128069    38Ap     1.128132
      39Ap     1.142208    28App    1.163166    40Ap     1.163399
      41Ap     1.223326    42Ap     1.274305    29App    1.274674
      43Ap     1.279360    44Ap     1.324236    30App    1.324479
      45Ap     1.355997    46Ap     1.365763    31App    1.366338
      32App    1.392448    47Ap     1.403731    33App    1.404374
      48Ap     1.416843    34App    1.417374    35App    1.427917
      36App    1.491494    49Ap     1.499081    50Ap     1.542690
      37App    1.542967    38App    1.574222    51Ap     1.574667
      52Ap     1.669830    53Ap     1.739147    39App    1.739692
      54Ap     1.768312    55Ap     1.830982    40App    1.831803
      41App    1.971727    56Ap     2.018186    42App    2.019076
      57Ap     2.019114    58Ap     2.051678    43App    2.053614
      59Ap     2.738428    44App    2.738537    60Ap     2.790928
      45App    2.811421    61Ap     2.889479    46App    2.890381
      62Ap     2.894991    47App    2.929327    63Ap     2.929667
      48App    2.958993    49App    2.964120    64Ap     2.964631
      65Ap     3.034008    66Ap     3.070998    50App    3.071572
      51App    3.084348    67Ap     3.168701    52App    3.168839
      68Ap     3.180612    69Ap     3.285272    53App    3.285358
      70Ap     3.326709    54App    3.327609    71Ap     3.375619
      72Ap     3.489938    55App    3.490387    56App    3.514004
      73Ap     3.525316    74Ap     3.567575    57App    3.569220
      58App    3.575144    59App    3.666189    75Ap     3.666554
      76Ap     3.679672    77Ap     3.693785    60App    3.694460
      61App    3.775474    78Ap     3.778088    79Ap     3.789169
      80Ap     3.911735    62App    3.912720    81Ap     4.034452
      82Ap     4.110346    63App    4.112397    83Ap     4.147568
      64App    4.148677    84Ap     4.173245    85Ap     4.202281
      86Ap     4.202992    65App    4.203508    66App    4.210874
      87Ap     4.315443    67App    4.316478    68App    4.358979
      69App    4.423950    88Ap     4.424957    70App    4.443437
      89Ap     4.516071    71App    4.517598    90Ap     4.577581
      72App    4.578941    91Ap     4.617528    92Ap     4.709449
      73App    4.773976    93Ap     4.775245    74App    4.836911
      94Ap     4.962849    95Ap     5.002347    75App    5.003568
      96Ap     5.228027    76App    5.246685    97Ap     5.246938
      98Ap     5.354554    77App    5.356463    78App    5.479350

    Beta Occupied:

       1Ap   -10.167989     1App  -10.167675     2Ap   -10.167659
       3Ap   -10.166518     4Ap    -0.781092     2App   -0.684120
       5Ap    -0.683857     6Ap    -0.511747     7Ap    -0.431121
       3App   -0.430964     8Ap    -0.421822     4App   -0.376717
       9Ap    -0.376651     5App   -0.362595     6App   -0.333271
      10Ap    -0.332972

    Beta Virtual:

      11Ap    -0.025742    12Ap     0.077082    13Ap     0.134979
       7App    0.135114     8App    0.144476    14Ap     0.144520
      15Ap     0.163338    16Ap     0.182444     9App    0.182454
      10App    0.215031    17Ap     0.218929    18Ap     0.282009
      11App    0.282658    19Ap     0.400392    12App    0.400401
      20Ap     0.419793    21Ap     0.426863    13App    0.426955
      22Ap     0.468502    14App    0.497607    23Ap     0.497693
      15App    0.513895    24Ap     0.556323    25Ap     0.584164
      16App    0.584567    26Ap     0.597608    17App    0.598021
      27Ap     0.609996    28Ap     0.628138    18App    0.631929
      29Ap     0.639426    19App    0.639646    30Ap     0.666783
      20App    0.667169    21App    0.686481    31Ap     0.686494
      32Ap     0.757517    33Ap     0.830575    22App    0.830577
      23App    0.855269    34Ap     0.922864    24App    0.923132
      25App    0.945960    35Ap     0.953542    36Ap     0.966537
      26App    0.966662    37Ap     1.008694    27App    1.132044
      38Ap     1.132216    39Ap     1.155583    28App    1.168302
      40Ap     1.168411    41Ap     1.232299    42Ap     1.279893
      29App    1.280277    43Ap     1.285117    44Ap     1.329238
      30App    1.329456    45Ap     1.365413    46Ap     1.371045
      31App    1.371542    32App    1.393505    47Ap     1.407169
      33App    1.407866    48Ap     1.421902    34App    1.422414
      35App    1.428188    36App    1.492542    49Ap     1.509525
      50Ap     1.547126    37App    1.547345    38App    1.582136
      51Ap     1.582498    52Ap     1.674677    53Ap     1.744894
      39App    1.745467    54Ap     1.779092    55Ap     1.834831
      40App    1.835665    41App    1.972587    56Ap     2.025354
      42App    2.025522    57Ap     2.039674    58Ap     2.058430
      43App    2.060296    59Ap     2.746738    44App    2.746899
      45App    2.811834    60Ap     2.816062    61Ap     2.902267
      46App    2.903011    62Ap     2.924640    47App    2.931809
      63Ap     2.932163    48App    2.960055    49App    2.968680
      64Ap     2.969161    65Ap     3.041943    66Ap     3.080948
      50App    3.081441    51App    3.086164    67Ap     3.184326
      52App    3.184663    68Ap     3.188345    69Ap     3.290067
      53App    3.290159    70Ap     3.330521    54App    3.331406
      71Ap     3.383438    72Ap     3.492647    55App    3.493138
      56App    3.512372    73Ap     3.528364    57App    3.574992
      74Ap     3.580944    58App    3.582535    59App    3.671065
      75Ap     3.671190    76Ap     3.692949    77Ap     3.725572
      60App    3.725939    61App    3.780043    78Ap     3.782596
      79Ap     3.817687    80Ap     3.921597    62App    3.922493
      81Ap     4.045339    82Ap     4.117166    63App    4.119207
      83Ap     4.154843    64App    4.155820    84Ap     4.187305
      85Ap     4.208488    65App    4.209449    86Ap     4.210685
      66App    4.215351    87Ap     4.322852    67App    4.323949
      68App    4.362342    69App    4.432181    88Ap     4.433152
      70App    4.446324    89Ap     4.523873    71App    4.525376
      90Ap     4.588175    72App    4.589547    91Ap     4.624724
      92Ap     4.719795    73App    4.780970    93Ap     4.782160
      74App    4.839827    94Ap     4.967643    95Ap     5.006368
      75App    5.007625    96Ap     5.233742    76App    5.248457
      97Ap     5.248734    98Ap     5.361014    77App    5.362965
      78App    5.481672

    Final Occupation by Irrep:
             Ap   App
    DOCC [    10,    6 ]
    SOCC [     1,    0 ]

  @DF-UKS Final Energy:  -157.81306936929460

   => Energetics <=

    Nuclear Repulsion Energy =            125.3946136743278430
    One-Electron Energy =                -458.7488940616936475
    Two-Electron Energy =                 195.8483543958721782
    DFT Exchange-Correlation Energy =     -20.3071433778009762
    Empirical Dispersion Energy =           0.0000000000000000
    VV10 Nonlocal Energy =                  0.0000000000000000
    Total Energy =                       -157.8130693692945954

  UHF NO Occupations:
  HONO-2 :    9 Ap 1.9996009
  HONO-1 :   10 Ap 1.9989805
  HONO-0 :   11 Ap 1.0000000
  LUNO+0 :   12 Ap 0.0010195
  LUNO+1 :   13 Ap 0.0003991
  LUNO+2 :   14 Ap 0.0001981
  LUNO+3 :    7App 0.0001970

Computation Completed

Properties will be evaluated at   0.000000,   0.000000,   0.000000 [a0]

Properties computed using the SCF density matrix

  Nuclear Dipole Moment: [e a0]
     X:     0.8272      Y:     0.0033      Z:    -0.0000

  Electronic Dipole Moment: [e a0]
     X:    -0.7493      Y:    -0.0032      Z:     0.0000

  Dipole Moment: [e a0]
     X:     0.0779      Y:     0.0000      Z:    -0.0000     Total:     0.0779

  Dipole Moment: [D]
     X:     0.1980      Y:     0.0001      Z:    -0.0000     Total:     0.1980

*** tstop() called on n054 at Fri Nov  5 15:45:21 2021
Module time:
	user time   =     539.24 seconds =       8.99 minutes
	system time =      12.09 seconds =       0.20 minutes
	total time  =        138 seconds =       2.30 minutes
Total time:
	user time   =     539.24 seconds =       8.99 minutes
	system time =      12.09 seconds =       0.20 minutes
	total time  =        138 seconds =       2.30 minutes
Grab this energy -157.8130693692946
    Psi4 stopped on: Friday, 05 November 2021 03:45PM
    Psi4 wall time for execution: 0:02:18.68

*** Psi4 exiting successfully. Buy a developer a beer!
