                               Psi4 1.4a2.dev629

  ==> Input File <==

--------------------------------------------------------------------------
import os
memory 14 GB

molecule {
 C   -0.3233235293   -0.0050013256   -0.0049851174
 C    0.0603210322   -1.4043067446   -2.4368681551
 C    0.0616259637    2.7938250134    0.0062402458
 C    0.0613599779   -1.3920420501    2.4281057722
 H    2.0858774225   -1.6468182074   -2.8603068718
 H   -0.7678600158   -0.3890217702   -4.0342932367
 H   -0.7659994072   -3.2960356375   -2.3623421629
 H    2.0875745816    3.2789180347    0.0111423461
 H   -0.7673427306    3.6647039465    1.6857455770
 H   -0.7618407640    3.6798937209   -1.6668251956
 H    2.0872146886   -1.6292197970    2.8521103846
 H   -0.7614259467   -3.2844415272    2.3619262359
 H   -0.7687891496   -0.3704779695    4.0203501779
units bohr
0 2
}

basis {

assign 6-31g_2dfp_

[ 6-31g_2dfp_ ]

spherical

!----------------------------------------------------------------------
! Basis Set Exchange
! Version v0.8.13
! https://www.basissetexchange.org
!----------------------------------------------------------------------
!   Basis set: 6-31G(2df,p)
! Description: 6-31G(2df,p)
!        Role: orbital
!     Version: 0  (Data from the original Basis Set Exchange)
!----------------------------------------------------------------------

****
H     0
S    3   1.00
     18.7311370              0.03349460
      2.8253937              0.23472695
      0.6401217              0.81375733
S    1   1.00
      0.1612778              1.00000000
P    1   1.00
      1.5000000              1.0000000
P    1   1.00
      0.3750000              1.0000000
****
B     0
S    6   1.00
   2068.8823000              0.0018663
    310.6495700              0.0142515
     70.6830330              0.0695516
     19.8610800              0.2325729
      6.2993048              0.4670787
      2.1270270              0.3634314
SP   3   1.00
      4.7279710             -0.1303938              0.0745976
      1.1903377             -0.1307889              0.3078467
      0.3594117              1.1309444              0.7434568
SP   1   1.00
      0.1267512              1.0000000              1.0000000
D    1   1.00
      0.8020000              1.0000000
D    1   1.00
      0.2005000              1.0000000
F    1   1.00
      0.5000000              1.0000000
****
C     0
S    6   1.00
   3047.5249000              0.0018347
    457.3695100              0.0140373
    103.9486900              0.0688426
     29.2101550              0.2321844
      9.2866630              0.4679413
      3.1639270              0.3623120
SP   3   1.00
      7.8682724             -0.1193324              0.0689991
      1.8812885             -0.1608542              0.3164240
      0.5442493              1.1434564              0.7443083
SP   1   1.00
      0.1687144              1.0000000              1.0000000
D    1   1.00
      1.2520000              1.0000000
D    1   1.00
      0.3130000              1.0000000
F    1   1.00
      0.8000000              1.0000000
****
N     0
S    6   1.00
   4173.5110000              0.0018348
    627.4579000              0.0139950
    142.9021000              0.0685870
     40.2343300              0.2322410
     12.8202100              0.4690700
      4.3904370              0.3604550
SP   3   1.00
     11.6263580             -0.1149610              0.0675800
      2.7162800             -0.1691180              0.3239070
      0.7722180              1.1458520              0.7408950
SP   1   1.00
      0.2120313              1.0000000              1.0000000
D    1   1.00
      1.8260000              1.0000000
D    1   1.00
      0.4565000              1.0000000
F    1   1.00
      1.0000000              1.0000000
****
O     0
S    6   1.00
   5484.6717000              0.0018311
    825.2349500              0.0139501
    188.0469600              0.0684451
     52.9645000              0.2327143
     16.8975700              0.4701930
      5.7996353              0.3585209
SP   3   1.00
     15.5396160             -0.1107775              0.0708743
      3.5999336             -0.1480263              0.3397528
      1.0137618              1.1307670              0.7271586
SP   1   1.00
      0.2700058              1.0000000              1.0000000
D    1   1.00
      2.5840000              1.0000000
D    1   1.00
      0.6460000              1.0000000
F    1   1.00
      1.4000000              1.0000000
****
F     0
S    6   1.00
   7001.7130900              0.0018196169
   1051.3660900              0.0139160796
    239.2856900              0.0684053245
     67.3974453              0.233185760
     21.5199573              0.471267439
      7.40310130             0.356618546
SP   3   1.00
     20.8479528             -0.108506975            0.0716287243
      4.80830834            -0.146451658            0.3459121030
      1.34406986             1.128688580            0.7224699570
SP   1   1.00
      0.358151393            1.0000000              1.0000000
D    1   1.00
      3.5000000              1.0000000
D    1   1.00
      0.8750000              1.0000000
F    1   1.00
      1.8500000              1.0000000
****
Al     0
S    6   1.00
  13983.1000000              0.00194267
   2098.7500000              0.0148599
    477.7050000              0.0728494
    134.3600000              0.2468300
     42.8709000              0.4872580
     14.5189000              0.3234960
SP   6   1.00
    239.6680000             -0.00292619             0.00460285
     57.4419000             -0.0374080              0.0331990
     18.2859000             -0.1144870              0.1362820
      6.5991400              0.1156350              0.3304760
      2.4904900              0.6125950              0.4491460
      0.9445400              0.3937990              0.2657040
SP   3   1.00
      1.2779000             -0.2276060             -0.0175130
      0.3975900              0.00144583             0.2445330
      0.1600950              1.0927900              0.8049340
SP   1   1.00
      0.0556577              1.0000000              1.0000000
D    1   1.00
      0.6500000              1.0000000
D    1   1.00
      0.1625000              1.0000000
F    1   1.00
      0.2500000              1.0000000
****
Si     0
S    6   1.00
  16115.9000000              0.00195948
   2425.5800000              0.01492880
    553.8670000              0.07284780
    156.3400000              0.24613000
     50.0683000              0.48591400
     17.0178000              0.32500200
SP   6   1.00
    292.7180000             -0.00278094             0.00443826
     69.8731000             -0.03571460             0.03266790
     22.3363000             -0.11498500             0.13472100
      8.1503900              0.09356340             0.32867800
      3.1345800              0.60301700             0.44964000
      1.2254300              0.41895900             0.26137200
SP   3   1.00
      1.7273800             -0.24463000            -0.01779510
      0.5729220              0.00431572             0.25353900
      0.2221920              1.09818000             0.80066900
SP   1   1.00
      0.0778369              1.00000000             1.00000000
D    1   1.00
      0.9000000              1.0000000
D    1   1.00
      0.2250000              1.0000000
F    1   1.00
      0.3200000              1.0000000
****
P     0
S    6   1.00
  19413.3000000              0.0018516
   2909.4200000              0.0142062
    661.3640000              0.0699995
    185.7590000              0.2400790
     59.1943000              0.4847620
     20.0310000              0.3352000
SP   6   1.00
    339.4780000             -0.00278217             0.00456462
     81.0101000             -0.0360499              0.03369360
     25.8780000             -0.1166310              0.13975500
      9.4522100              0.0968328              0.33936200
      3.6656600              0.6144180              0.45092100
      1.4674600              0.4037980              0.23858600
SP   3   1.00
      2.1562300             -0.2529230             -0.01776530
      0.7489970              0.0328517              0.27405800
      0.2831450              1.0812500              0.78542100
SP   1   1.00
      0.0998317              1.0000000              1.00000000
D    1   1.00
      1.1000000              1.0000000
D    1   1.00
      0.2750000              1.0000000
F    1   1.00
      0.4500000              1.0000000
****
S     0
S    6   1.00
  21917.1000000              0.0018690
   3301.4900000              0.0142300
    754.1460000              0.0696960
    212.7110000              0.2384870
     67.9896000              0.4833070
     23.0515000              0.3380740
SP   6   1.00
    423.7350000             -0.0023767              0.0040610
    100.7100000             -0.0316930              0.0306810
     32.1599000             -0.1133170              0.1304520
     11.8079000              0.0560900              0.3272050
      4.6311000              0.5922550              0.4528510
      1.8702500              0.4550060              0.2560420
SP   3   1.00
      2.6158400             -0.2503740             -0.0145110
      0.9221670              0.0669570              0.3102630
      0.3412870              1.0545100              0.7544830
SP   1   1.00
      0.1171670              1.0000000              1.0000000
D    1   1.00
      1.3000000              1.0000000
D    1   1.00
      0.3250000              1.0000000
F    1   1.00
      0.5500000              1.0000000
****
Cl     0
S    6   1.00
  25180.1000000              0.0018330
   3780.3500000              0.0140340
    860.4740000              0.0690970
    242.1450000              0.2374520
     77.3349000              0.4830340
     26.2470000              0.3398560
SP   6   1.00
    491.7650000             -0.0022974              0.0039894
    116.9840000             -0.0307140              0.0303180
     37.4153000             -0.1125280              0.1298800
     13.7834000              0.0450160              0.3279510
      5.4521500              0.5893530              0.4535270
      2.2258800              0.4652060              0.2521540
SP   3   1.00
      3.1864900             -0.2518300             -0.0142990
      1.1442700              0.0615890              0.3235720
      0.4203770              1.0601800              0.7435070
SP   1   1.00
      0.1426570              1.0000000              1.0000000
D    1   1.00
      1.5000000              1.0000000
D    1   1.00
      0.3750000              1.0000000
F    1   1.00
      0.7000000              1.0000000
****
}

set {
reference uhf
freeze_core true
e_convergence 10
d_convergence 10
dft_spherical_points 1202
dft_radial_points 99
}

e = energy('b3lyp')

print_out('Grab this energy {0}'.format(e))
--------------------------------------------------------------------------

    Molecular point group: c1

    Geometry (in Bohr), charge = 0, multiplicity = 2:

       Center              X                  Y                   Z               Mass
    ------------   -----------------  -----------------  -----------------  -----------------
         C           -0.323328041960    -0.003551506449    -0.003539166111    12.000000000000
         C            0.060316519540    -1.402856925449    -2.435422203811    12.000000000000
         C            0.061621451040     2.795274832551     0.007686197089    12.000000000000
         C            0.061355465240    -1.390592230949     2.429551723489    12.000000000000
         H            2.085872909840    -1.645368388249    -2.858860920511     1.007825032230
         H           -0.767864528460    -0.387571951049    -4.032847285411     1.007825032230
         H           -0.766003919860    -3.294585818349    -2.360896211611     1.007825032230
         H            2.087570068940     3.280367853851     0.012588297389     1.007825032230
         H           -0.767347243260     3.666153765651     1.687191528289     1.007825032230
         H           -0.761845276660     3.681343540051    -1.665379244311     1.007825032230
         H            2.087210175940    -1.627769977849     2.853556335889     1.007825032230
         H           -0.761430459360    -3.282991708049     2.363372187189     1.007825032230
         H           -0.768793662260    -0.369028150349     4.021796129189     1.007825032230

  Charge       = 0
  Multiplicity = 2
  Basis Set: ANONYMOUS5655D091
    Blend: 6-31G_2DFP_
  Basis Set: (ANONYMOUS5655D091 AUX)
    Blend: DEF2-UNIVERSAL-JKFIT

    Orbital Energies [Eh]
    ---------------------

    Alpha Occupied:

       1A    -10.180341     2A    -10.167443     3A    -10.166901
       4A    -10.166702     5A     -0.797773     6A     -0.686497
       7A     -0.685872     8A     -0.530777     9A     -0.441129
      10A     -0.435046    11A     -0.434296    12A     -0.382803
      13A     -0.382392    14A     -0.363610    15A     -0.338388
      16A     -0.337605    17A     -0.168962

    Alpha Virtual:

      18A      0.076071    19A      0.133816    20A      0.134494
      21A      0.142431    22A      0.142824    23A      0.154881
      24A      0.178462    25A      0.179097    26A      0.203541
      27A      0.214812    28A      0.275746    29A      0.276227
      30A      0.398923    31A      0.399411    32A      0.403476
      33A      0.423916    34A      0.424298    35A      0.456598
      36A      0.494814    37A      0.495946    38A      0.512184
      39A      0.513994    40A      0.578435    41A      0.579149
      42A      0.591603    43A      0.591680    44A      0.602577
      45A      0.624773    46A      0.631760    47A      0.635945
      48A      0.636561    49A      0.663107    50A      0.663723
      51A      0.683511    52A      0.684204    53A      0.734992
      54A      0.824232    55A      0.826557    56A      0.853913
      57A      0.914669    58A      0.915387    59A      0.943975
      60A      0.944426    61A      0.961140    62A      0.961855
      63A      1.003487    64A      1.126479    65A      1.129782
      66A      1.142205    67A      1.162578    68A      1.163950
      69A      1.223340    70A      1.273772    71A      1.275237
      72A      1.279350    73A      1.324225    74A      1.324478
      75A      1.355991    76A      1.365021    77A      1.366971
      78A      1.392428    79A      1.402960    80A      1.405273
      81A      1.416435    82A      1.417826    83A      1.427948
      84A      1.491380    85A      1.499049    86A      1.542302
      87A      1.543374    88A      1.571862    89A      1.577248
      90A      1.669816    91A      1.737875    92A      1.740891
      93A      1.768378    94A      1.830685    95A      1.832132
      96A      1.971722    97A      2.016978    98A      2.018269
      99A      2.021079   100A      2.049121   101A      2.056356
     102A      2.738108   103A      2.738861   104A      2.790918
     105A      2.811452   106A      2.889807   107A      2.890078
     108A      2.894949   109A      2.929244   110A      2.929737
     111A      2.958985   112A      2.963123   113A      2.965689
     114A      3.034014   115A      3.069869   116A      3.072640
     117A      3.084419   118A      3.167699   119A      3.169947
     120A      3.180535   121A      3.284301   122A      3.286297
     123A      3.325827   124A      3.328520   125A      3.375711
     126A      3.489418   127A      3.490757   128A      3.514053
     129A      3.525272   130A      3.566814   131A      3.569639
     132A      3.575654   133A      3.666221   134A      3.666565
     135A      3.679660   136A      3.693480   137A      3.694695
     138A      3.775632   139A      3.777788   140A      3.789468
     141A      3.910225   142A      3.914242   143A      4.034494
     144A      4.109465   145A      4.113322   146A      4.145749
     147A      4.150419   148A      4.173218   149A      4.200684
     150A      4.202718   151A      4.205250   152A      4.211129
     153A      4.315896   154A      4.315978   155A      4.359021
     156A      4.424200   157A      4.424470   158A      4.443656
     159A      4.515639   160A      4.518099   161A      4.576734
     162A      4.579794   163A      4.617539   164A      4.709427
     165A      4.772808   166A      4.776407   167A      4.836983
     168A      4.962857   169A      5.001580   170A      5.004359
     171A      5.228011   172A      5.246602   173A      5.247067
     174A      5.354519   175A      5.356480   176A      5.479312

    Beta Occupied:

       1A    -10.168198     2A    -10.167662     3A    -10.167467
       4A    -10.166517     5A     -0.781098     6A     -0.684305
       7A     -0.683669     8A     -0.511748     9A     -0.431431
      10A     -0.430655    11A     -0.421824    12A     -0.376902
      13A     -0.376464    14A     -0.362594    15A     -0.333516
      16A     -0.332722

    Beta Virtual:

      17A     -0.025744    18A      0.077081    19A      0.134691
      20A      0.135399    21A      0.144311    22A      0.144686
      23A      0.163341    24A      0.182120    25A      0.182781
      26A      0.215042    27A      0.218924    28A      0.282077
      29A      0.282592    30A      0.400220    31A      0.400561
      32A      0.419806    33A      0.426707    34A      0.427131
      35A      0.468511    36A      0.497076    37A      0.498213
      38A      0.513921    39A      0.556332    40A      0.584028
      41A      0.584660    42A      0.597761    43A      0.597875
      44A      0.609993    45A      0.628161    46A      0.631921
      47A      0.639203    48A      0.639871    49A      0.666632
      50A      0.667321    51A      0.686074    52A      0.686914
      53A      0.757514    54A      0.829386    55A      0.831737
      56A      0.855267    57A      0.922618    58A      0.923378
      59A      0.945857    60A      0.953329    61A      0.966340
      62A      0.967258    63A      1.008722    64A      1.130521
      65A      1.133800    66A      1.155570    67A      1.167614
      68A      1.169071    69A      1.232307    70A      1.279366
      71A      1.280838    72A      1.285103    73A      1.329193
      74A      1.329490    75A      1.365407    76A      1.370116
      77A      1.372345    78A      1.393495    79A      1.406478
      80A      1.408703    81A      1.421478    82A      1.422864
      83A      1.428226    84A      1.492435    85A      1.509492
      86A      1.546557    87A      1.547926    88A      1.579949
      89A      1.584908    90A      1.674662    91A      1.743645
      92A      1.746647    93A      1.779154    94A      1.834515
      95A      1.836012    96A      1.972587    97A      2.023312
      98A      2.027566    99A      2.039600   100A      2.055983
     101A      2.062942   102A      2.746380   103A      2.747261
     104A      2.811865   105A      2.816053   106A      2.902544
     107A      2.902720   108A      2.924647   109A      2.931863
     110A      2.932093   111A      2.960056   112A      2.967709
     113A      2.970182   114A      3.041949   115A      3.079599
     116A      3.082409   117A      3.086577   118A      3.183594
     119A      3.185517   120A      3.188223   121A      3.289195
     122A      3.291010   123A      3.329622   124A      3.332338
     125A      3.383526   126A      3.492158   127A      3.493462
     128A      3.512440   129A      3.528336   130A      3.574606
     131A      3.580284   132A      3.583744   133A      3.670937
     134A      3.671336   135A      3.692960   136A      3.725177
     137A      3.726247   138A      3.780150   139A      3.782483
     140A      3.817851   141A      3.920042   142A      3.924059
     143A      4.045381   144A      4.116286   145A      4.120127
     146A      4.153042   147A      4.157551   148A      4.187278
     149A      4.206603   150A      4.210642   151A      4.211160
     152A      4.215693   153A      4.323310   154A      4.323445
     155A      4.362384   156A      4.432396   157A      4.432614
     158A      4.446637   159A      4.523564   160A      4.525738
     161A      4.587223   162A      4.590509   163A      4.624732
     164A      4.719772   165A      4.779710   166A      4.783408
     167A      4.839905   168A      4.967649   169A      5.005621
     170A      5.008397   171A      5.233721   172A      5.248380
     173A      5.248863   174A      5.360974   175A      5.362986
     176A      5.481633

    Final Occupation by Irrep:
              A
    DOCC [    16 ]
    SOCC [     1 ]

  @DF-UKS Final Energy:  -157.81305599499638

   => Energetics <=

    Nuclear Repulsion Energy =            125.3950988076802417
    One-Electron Energy =                -458.7498293514553325
    Two-Electron Energy =                 195.8488234077389620
    DFT Exchange-Correlation Energy =     -20.3071488589602467
    Empirical Dispersion Energy =           0.0000000000000000
    VV10 Nonlocal Energy =                  0.0000000000000000
    Total Energy =                       -157.8130559949963754

  UHF NO Occupations:
  HONO-2 :   15  A 1.9996009
  HONO-1 :   16  A 1.9989804
  HONO-0 :   17  A 1.0000000
  LUNO+0 :   18  A 0.0010196
  LUNO+1 :   19  A 0.0003991
  LUNO+2 :   20  A 0.0001980
  LUNO+3 :   21  A 0.0001971

Computation Completed

Properties will be evaluated at   0.000000,   0.000000,   0.000000 [a0]

Properties computed using the SCF density matrix

  Nuclear Dipole Moment: [e a0]
     X:     0.8272      Y:     0.0102      Z:     0.0102

  Electronic Dipole Moment: [e a0]
     X:    -0.7492      Y:    -0.0109      Z:    -0.0109

  Dipole Moment: [e a0]
     X:     0.0779      Y:    -0.0007      Z:    -0.0008     Total:     0.0779

  Dipole Moment: [D]
     X:     0.1980      Y:    -0.0019      Z:    -0.0020     Total:     0.1981

*** tstop() called on n033 at Fri Nov  5 15:52:00 2021
Module time:
	user time   =     634.40 seconds =      10.57 minutes
	system time =      12.34 seconds =       0.21 minutes
	total time  =        162 seconds =       2.70 minutes
Total time:
	user time   =     634.40 seconds =      10.57 minutes
	system time =      12.34 seconds =       0.21 minutes
	total time  =        162 seconds =       2.70 minutes
Grab this energy -157.81305599499638
    Psi4 stopped on: Friday, 05 November 2021 03:52PM
    Psi4 wall time for execution: 0:02:42.58

*** Psi4 exiting successfully. Buy a developer a beer!
