                               Psi4 1.4a2.dev629

  ==> Input File <==

--------------------------------------------------------------------------
import os
memory 14 GB

molecule {
 C   -0.3233415441    0.0044259444    0.0000000000
 C    0.0616137178   -1.3995974605   -2.4283306536
 C    0.0600694808    2.7996618395    0.0000000000
 C    0.0616137178   -1.3995974605    2.4283306536
 H    2.0881074414   -1.6444836323   -2.8493940818
 H   -0.7623637162   -0.3904557513   -4.0342492006
 H   -0.7676959691   -3.2872841374   -2.3447294387
 H    2.0844532074    3.2843379300   -0.0000000000
 H   -0.7665559843    3.6775959678    1.6759747363
 H   -0.7665559843    3.6775959678   -1.6759747363
 H    2.0881074414   -1.6444836323    2.8493940818
 H   -0.7676959691   -3.2872841374    2.3447294387
 H   -0.7623637162   -0.3904557513    4.0342492006
units bohr
0 2
}

basis {

assign 6-31g_2dfp_

[ 6-31g_2dfp_ ]

spherical

!----------------------------------------------------------------------
! Basis Set Exchange
! Version v0.8.13
! https://www.basissetexchange.org
!----------------------------------------------------------------------
!   Basis set: 6-31G(2df,p)
! Description: 6-31G(2df,p)
!        Role: orbital
!     Version: 0  (Data from the original Basis Set Exchange)
!----------------------------------------------------------------------

****
H     0
S    3   1.00
     18.7311370              0.03349460
      2.8253937              0.23472695
      0.6401217              0.81375733
S    1   1.00
      0.1612778              1.00000000
P    1   1.00
      1.5000000              1.0000000
P    1   1.00
      0.3750000              1.0000000
****
B     0
S    6   1.00
   2068.8823000              0.0018663
    310.6495700              0.0142515
     70.6830330              0.0695516
     19.8610800              0.2325729
      6.2993048              0.4670787
      2.1270270              0.3634314
SP   3   1.00
      4.7279710             -0.1303938              0.0745976
      1.1903377             -0.1307889              0.3078467
      0.3594117              1.1309444              0.7434568
SP   1   1.00
      0.1267512              1.0000000              1.0000000
D    1   1.00
      0.8020000              1.0000000
D    1   1.00
      0.2005000              1.0000000
F    1   1.00
      0.5000000              1.0000000
****
C     0
S    6   1.00
   3047.5249000              0.0018347
    457.3695100              0.0140373
    103.9486900              0.0688426
     29.2101550              0.2321844
      9.2866630              0.4679413
      3.1639270              0.3623120
SP   3   1.00
      7.8682724             -0.1193324              0.0689991
      1.8812885             -0.1608542              0.3164240
      0.5442493              1.1434564              0.7443083
SP   1   1.00
      0.1687144              1.0000000              1.0000000
D    1   1.00
      1.2520000              1.0000000
D    1   1.00
      0.3130000              1.0000000
F    1   1.00
      0.8000000              1.0000000
****
N     0
S    6   1.00
   4173.5110000              0.0018348
    627.4579000              0.0139950
    142.9021000              0.0685870
     40.2343300              0.2322410
     12.8202100              0.4690700
      4.3904370              0.3604550
SP   3   1.00
     11.6263580             -0.1149610              0.0675800
      2.7162800             -0.1691180              0.3239070
      0.7722180              1.1458520              0.7408950
SP   1   1.00
      0.2120313              1.0000000              1.0000000
D    1   1.00
      1.8260000              1.0000000
D    1   1.00
      0.4565000              1.0000000
F    1   1.00
      1.0000000              1.0000000
****
O     0
S    6   1.00
   5484.6717000              0.0018311
    825.2349500              0.0139501
    188.0469600              0.0684451
     52.9645000              0.2327143
     16.8975700              0.4701930
      5.7996353              0.3585209
SP   3   1.00
     15.5396160             -0.1107775              0.0708743
      3.5999336             -0.1480263              0.3397528
      1.0137618              1.1307670              0.7271586
SP   1   1.00
      0.2700058              1.0000000              1.0000000
D    1   1.00
      2.5840000              1.0000000
D    1   1.00
      0.6460000              1.0000000
F    1   1.00
      1.4000000              1.0000000
****
F     0
S    6   1.00
   7001.7130900              0.0018196169
   1051.3660900              0.0139160796
    239.2856900              0.0684053245
     67.3974453              0.233185760
     21.5199573              0.471267439
      7.40310130             0.356618546
SP   3   1.00
     20.8479528             -0.108506975            0.0716287243
      4.80830834            -0.146451658            0.3459121030
      1.34406986             1.128688580            0.7224699570
SP   1   1.00
      0.358151393            1.0000000              1.0000000
D    1   1.00
      3.5000000              1.0000000
D    1   1.00
      0.8750000              1.0000000
F    1   1.00
      1.8500000              1.0000000
****
Al     0
S    6   1.00
  13983.1000000              0.00194267
   2098.7500000              0.0148599
    477.7050000              0.0728494
    134.3600000              0.2468300
     42.8709000              0.4872580
     14.5189000              0.3234960
SP   6   1.00
    239.6680000             -0.00292619             0.00460285
     57.4419000             -0.0374080              0.0331990
     18.2859000             -0.1144870              0.1362820
      6.5991400              0.1156350              0.3304760
      2.4904900              0.6125950              0.4491460
      0.9445400              0.3937990              0.2657040
SP   3   1.00
      1.2779000             -0.2276060             -0.0175130
      0.3975900              0.00144583             0.2445330
      0.1600950              1.0927900              0.8049340
SP   1   1.00
      0.0556577              1.0000000              1.0000000
D    1   1.00
      0.6500000              1.0000000
D    1   1.00
      0.1625000              1.0000000
F    1   1.00
      0.2500000              1.0000000
****
Si     0
S    6   1.00
  16115.9000000              0.00195948
   2425.5800000              0.01492880
    553.8670000              0.07284780
    156.3400000              0.24613000
     50.0683000              0.48591400
     17.0178000              0.32500200
SP   6   1.00
    292.7180000             -0.00278094             0.00443826
     69.8731000             -0.03571460             0.03266790
     22.3363000             -0.11498500             0.13472100
      8.1503900              0.09356340             0.32867800
      3.1345800              0.60301700             0.44964000
      1.2254300              0.41895900             0.26137200
SP   3   1.00
      1.7273800             -0.24463000            -0.01779510
      0.5729220              0.00431572             0.25353900
      0.2221920              1.09818000             0.80066900
SP   1   1.00
      0.0778369              1.00000000             1.00000000
D    1   1.00
      0.9000000              1.0000000
D    1   1.00
      0.2250000              1.0000000
F    1   1.00
      0.3200000              1.0000000
****
P     0
S    6   1.00
  19413.3000000              0.0018516
   2909.4200000              0.0142062
    661.3640000              0.0699995
    185.7590000              0.2400790
     59.1943000              0.4847620
     20.0310000              0.3352000
SP   6   1.00
    339.4780000             -0.00278217             0.00456462
     81.0101000             -0.0360499              0.03369360
     25.8780000             -0.1166310              0.13975500
      9.4522100              0.0968328              0.33936200
      3.6656600              0.6144180              0.45092100
      1.4674600              0.4037980              0.23858600
SP   3   1.00
      2.1562300             -0.2529230             -0.01776530
      0.7489970              0.0328517              0.27405800
      0.2831450              1.0812500              0.78542100
SP   1   1.00
      0.0998317              1.0000000              1.00000000
D    1   1.00
      1.1000000              1.0000000
D    1   1.00
      0.2750000              1.0000000
F    1   1.00
      0.4500000              1.0000000
****
S     0
S    6   1.00
  21917.1000000              0.0018690
   3301.4900000              0.0142300
    754.1460000              0.0696960
    212.7110000              0.2384870
     67.9896000              0.4833070
     23.0515000              0.3380740
SP   6   1.00
    423.7350000             -0.0023767              0.0040610
    100.7100000             -0.0316930              0.0306810
     32.1599000             -0.1133170              0.1304520
     11.8079000              0.0560900              0.3272050
      4.6311000              0.5922550              0.4528510
      1.8702500              0.4550060              0.2560420
SP   3   1.00
      2.6158400             -0.2503740             -0.0145110
      0.9221670              0.0669570              0.3102630
      0.3412870              1.0545100              0.7544830
SP   1   1.00
      0.1171670              1.0000000              1.0000000
D    1   1.00
      1.3000000              1.0000000
D    1   1.00
      0.3250000              1.0000000
F    1   1.00
      0.5500000              1.0000000
****
Cl     0
S    6   1.00
  25180.1000000              0.0018330
   3780.3500000              0.0140340
    860.4740000              0.0690970
    242.1450000              0.2374520
     77.3349000              0.4830340
     26.2470000              0.3398560
SP   6   1.00
    491.7650000             -0.0022974              0.0039894
    116.9840000             -0.0307140              0.0303180
     37.4153000             -0.1125280              0.1298800
     13.7834000              0.0450160              0.3279510
      5.4521500              0.5893530              0.4535270
      2.2258800              0.4652060              0.2521540
SP   3   1.00
      3.1864900             -0.2518300             -0.0142990
      1.1442700              0.0615890              0.3235720
      0.4203770              1.0601800              0.7435070
SP   1   1.00
      0.1426570              1.0000000              1.0000000
D    1   1.00
      1.5000000              1.0000000
D    1   1.00
      0.3750000              1.0000000
F    1   1.00
      0.7000000              1.0000000
****
}

set {
reference uhf
freeze_core true
e_convergence 10
d_convergence 10
dft_spherical_points 1202
dft_radial_points 99
}

e = energy('b3lyp')

print_out('Grab this energy {0}'.format(e))
--------------------------------------------------------------------------

    Molecular point group: cs

    Geometry (in Bohr), charge = 0, multiplicity = 2:

       Center              X                  Y                   Z               Mass
    ------------   -----------------  -----------------  -----------------  -----------------
         C           -0.323340649853     0.003483973124     0.000000000000    12.000000000000
         C            0.061614612047    -1.400539431776    -2.428330653600    12.000000000000
         C            0.060070375047     2.798719868224     0.000000000000    12.000000000000
         C            0.061614612047    -1.400539431776     2.428330653600    12.000000000000
         H            2.088108335647    -1.645425603576    -2.849394081800     1.007825032230
         H           -0.762362821953    -0.391397722576    -4.034249200600     1.007825032230
         H           -0.767695074853    -3.288226108676    -2.344729438700     1.007825032230
         H            2.084454101647     3.283395958724     0.000000000000     1.007825032230
         H           -0.766555090053     3.676653996524     1.675974736300     1.007825032230
         H           -0.766555090053     3.676653996524    -1.675974736300     1.007825032230
         H            2.088108335647    -1.645425603576     2.849394081800     1.007825032230
         H           -0.767695074853    -3.288226108676     2.344729438700     1.007825032230
         H           -0.762362821953    -0.391397722576     4.034249200600     1.007825032230

  Charge       = 0
  Multiplicity = 2
  Basis Set: ANONYMOUS116CAA69
    Blend: 6-31G_2DFP_
  Basis Set: (ANONYMOUS116CAA69 AUX)
    Blend: DEF2-UNIVERSAL-JKFIT

    Orbital Energies [Eh]
    ---------------------

    Alpha Occupied:

       1Ap   -10.180341     1App  -10.167229     2Ap   -10.167199
       3Ap   -10.166616     4Ap    -0.797771     5Ap    -0.686450
       2App   -0.685923     6Ap    -0.530775     7Ap    -0.441133
       3App   -0.434677     8Ap    -0.434664     9Ap    -0.382677
       4App   -0.382522     5App   -0.363610    10Ap    -0.338212
       6App   -0.337778    11Ap    -0.168960

    Alpha Virtual:

      12Ap     0.076073     7App    0.134062    13Ap     0.134250
      14Ap     0.142545     8App    0.142699    15Ap     0.154879
      16Ap     0.178735     9App    0.178818    17Ap     0.203547
      10App    0.214804    11App    0.275382    18Ap     0.276589
      12App    0.399188    19Ap     0.399228    20Ap     0.403385
      21Ap     0.424082    13App    0.424119    22Ap     0.456595
      23Ap     0.495280    14App    0.495498    15App    0.512159
      24Ap     0.513979    16App    0.578335    25Ap     0.579284
      17App    0.591115    26Ap     0.592146    27Ap     0.602587
      28Ap     0.624754    18App    0.631770    19App    0.636134
      29Ap     0.636395    20App    0.663241    30Ap     0.663583
      21App    0.683850    31Ap     0.683859    32Ap     0.734995
      33Ap     0.825221    22App    0.825589    23App    0.853915
      24App    0.914754    34Ap     0.915290    25App    0.944119
      35Ap     0.944602    36Ap     0.960657    26App    0.961945
      37Ap     1.003469    38Ap     1.127805    27App    1.128342
      39Ap     1.142210    40Ap     1.163071    28App    1.163540
      41Ap     1.223338    29App    1.274142    42Ap     1.274834
      43Ap     1.279355    30App    1.324237    44Ap     1.324463
      45Ap     1.356005    31App    1.365563    46Ap     1.366516
      32App    1.392430    33App    1.403434    47Ap     1.404685
      34App    1.416462    48Ap     1.417771    35App    1.427924
      36App    1.491495    49Ap     1.499086    50Ap     1.542682
      37App    1.542978    51Ap     1.574215    38App    1.574670
      52Ap     1.669846    39App    1.738786    53Ap     1.740066
      54Ap     1.768297    40App    1.830481    55Ap     1.832314
      41App    1.971731    56Ap     2.017767    42App    2.019074
      57Ap     2.019566    43App    2.050873    58Ap     2.054426
      59Ap     2.738239    44App    2.738706    60Ap     2.790946
      45App    2.811399    46App    2.889303    61Ap     2.890395
      62Ap     2.895181    63Ap     2.929354    47App    2.929655
      48App    2.958991    64Ap     2.963952    49App    2.964798
      65Ap     3.034010    50App    3.071113    66Ap     3.071451
      51App    3.084348    52App    3.168535    67Ap     3.169004
      68Ap     3.180627    53App    3.285222    69Ap     3.285408
      54App    3.326396    70Ap     3.327910    71Ap     3.375626
      55App    3.489721    72Ap     3.490546    56App    3.514010
      73Ap     3.525266    57App    3.567211    74Ap     3.569587
      58App    3.575189    75Ap     3.665870    59App    3.666741
      76Ap     3.679664    60App    3.693392    77Ap     3.694930
      78Ap     3.774210    61App    3.779372    79Ap     3.789248
      62App    3.911489    80Ap     3.913001    81Ap     4.034429
      63App    4.109053    82Ap     4.113644    64App    4.146684
      83Ap     4.149528    84Ap     4.173289    65App    4.202494
      85Ap     4.202599    86Ap     4.203685    66App    4.210919
      67App    4.314576    87Ap     4.317244    68App    4.359064
      88Ap     4.423716    69App    4.425192    70App    4.443481
      71App    4.515661    89Ap     4.517982    72App    4.577268
      90Ap     4.579163    91Ap     4.617508    92Ap     4.709459
      93Ap     4.773089    73App    4.776225    74App    4.837010
      94Ap     4.962826    75App    5.001966    95Ap     5.003981
      96Ap     5.228014    97Ap     5.246265    76App    5.247385
      77App    5.353833    98Ap     5.357192    78App    5.479369

    Beta Occupied:

       1App  -10.167981     1Ap   -10.167963     2Ap   -10.167380
       3Ap   -10.166517     4Ap    -0.781096     5Ap    -0.684234
       2App   -0.683744     6Ap    -0.511746     3App   -0.431063
       7Ap    -0.431029     8Ap    -0.421820     9Ap    -0.376747
       4App   -0.376625     5App   -0.362593    10Ap    -0.333331
       6App   -0.332905

    Beta Virtual:

      11Ap    -0.025742    12Ap     0.077082     7App    0.134956
      13Ap     0.135135    14Ap     0.144406     8App    0.144582
      15Ap     0.163338    16Ap     0.182432     9App    0.182463
      10App    0.215034    17Ap     0.218928    11App    0.281750
      18Ap     0.282916    12App    0.400362    19Ap     0.400425
      20Ap     0.419793    21Ap     0.426909    13App    0.426918
      22Ap     0.468503    23Ap     0.497552    14App    0.497749
      15App    0.513895    24Ap     0.556322    16App    0.583871
      25Ap     0.584850    17App    0.597327    26Ap     0.598292
      27Ap     0.610004    28Ap     0.628135    18App    0.631930
      19App    0.639377    29Ap     0.639722    20App    0.666816
      30Ap     0.667135    21App    0.686452    31Ap     0.686529
      32Ap     0.757516    33Ap     0.830340    22App    0.830807
      23App    0.855268    24App    0.922753    34Ap     0.923230
      25App    0.945957    35Ap     0.953521    36Ap     0.966058
      26App    0.967167    37Ap     1.008709    38Ap     1.131709
      27App    1.132500    39Ap     1.155587    40Ap     1.168288
      28App    1.168464    41Ap     1.232309    29App    1.279735
      42Ap     1.280433    43Ap     1.285112    30App    1.329223
      44Ap     1.329458    45Ap     1.365420    31App    1.370874
      46Ap     1.371690    32App    1.393492    33App    1.406838
      47Ap     1.408202    34App    1.421523    48Ap     1.422811
      35App    1.428197    36App    1.492544    49Ap     1.509530
      50Ap     1.547058    37App    1.547419    51Ap     1.582133
      38App    1.582495    52Ap     1.674693    39App    1.744526
      53Ap     1.745850    54Ap     1.779076    40App    1.834331
      55Ap     1.836175    41App    1.972591    56Ap     2.025424
      42App    2.025443    57Ap     2.039710    43App    2.057595
      58Ap     2.061143    59Ap     2.746624    44App    2.746998
      45App    2.811815    60Ap     2.816074    46App    2.902103
      61Ap     2.903156    62Ap     2.924670    63Ap     2.931853
      47App    2.932149    48App    2.960053    64Ap     2.968532
      49App    2.969309    65Ap     3.041945    50App    3.081054
      66Ap     3.081328    51App    3.086166    52App    3.184184
      67Ap     3.184775    68Ap     3.188389    53App    3.289992
      69Ap     3.290233    54App    3.330225    70Ap     3.331690
      71Ap     3.383446    55App    3.492444    72Ap     3.493280
      56App    3.512387    73Ap     3.528328    57App    3.574950
      58App    3.580622    74Ap     3.582917    75Ap     3.671060
      59App    3.671162    76Ap     3.692912    60App    3.725474
      77Ap     3.726047    78Ap     3.778848    61App    3.783805
      79Ap     3.817776    62App    3.921368    80Ap     3.922758
      81Ap     4.045316    63App    4.115981    82Ap     4.120350
      64App    4.153936    83Ap     4.156698    84Ap     4.187340
      65App    4.208394    85Ap     4.209511    86Ap     4.210706
      66App    4.215404    67App    4.321950    87Ap     4.324739
      68App    4.362436    88Ap     4.432004    69App    4.433316
      70App    4.446389    71App    4.523470    89Ap     4.525747
      72App    4.587868    90Ap     4.589749    91Ap     4.624717
      92Ap     4.719802    93Ap     4.780130    73App    4.783093
      74App    4.839931    94Ap     4.967620    75App    5.005977
      95Ap     5.008049    96Ap     5.233728    97Ap     5.248031
      76App    5.249189    77App    5.360271    98Ap     5.363716
      78App    5.481690

    Final Occupation by Irrep:
             Ap   App
    DOCC [    10,    6 ]
    SOCC [     1,    0 ]

  @DF-UKS Final Energy:  -157.81305625711187

   => Energetics <=

    Nuclear Repulsion Energy =            125.3947274512626961
    One-Electron Energy =                -458.7490846951177446
    Two-Electron Energy =                 195.8484493808301750
    DFT Exchange-Correlation Energy =     -20.3071483940870188
    Empirical Dispersion Energy =           0.0000000000000000
    VV10 Nonlocal Energy =                  0.0000000000000000
    Total Energy =                       -157.8130562571118674

  UHF NO Occupations:
  HONO-2 :    9 Ap 1.9996009
  HONO-1 :   10 Ap 1.9989804
  HONO-0 :   11 Ap 1.0000000
  LUNO+0 :   12 Ap 0.0010196
  LUNO+1 :   13 Ap 0.0003991
  LUNO+2 :    7App 0.0001985
  LUNO+3 :   14 Ap 0.0001966

Computation Completed

Properties will be evaluated at   0.000000,   0.000000,   0.000000 [a0]

Properties computed using the SCF density matrix

  Nuclear Dipole Moment: [e a0]
     X:     0.8272      Y:    -0.0066      Z:     0.0000

  Electronic Dipole Moment: [e a0]
     X:    -0.7493      Y:     0.0066      Z:     0.0000

  Dipole Moment: [e a0]
     X:     0.0779      Y:    -0.0000      Z:     0.0000     Total:     0.0779

  Dipole Moment: [D]
     X:     0.1980      Y:    -0.0000      Z:     0.0000     Total:     0.1980

*** tstop() called on n070 at Fri Nov  5 15:32:43 2021
Module time:
	user time   =     608.73 seconds =      10.15 minutes
	system time =      15.05 seconds =       0.25 minutes
	total time  =        158 seconds =       2.63 minutes
Total time:
	user time   =     608.73 seconds =      10.15 minutes
	system time =      15.05 seconds =       0.25 minutes
	total time  =        158 seconds =       2.63 minutes
Grab this energy -157.81305625711187
    Psi4 stopped on: Friday, 05 November 2021 03:32PM
    Psi4 wall time for execution: 0:02:37.78

*** Psi4 exiting successfully. Buy a developer a beer!
