                               Psi4 1.4a2.dev629

  ==> Input File <==

--------------------------------------------------------------------------
import os
memory 14 GB

molecule {
 C   -0.3233402622   -0.0004959616    0.0004944033
 C    0.0611044811   -1.4007685689   -2.4260809251
 C    0.0609234238    2.8009021810    0.0000409465
 C    0.0612727923   -1.4014760848    2.4273882590
 H    2.0884685370   -1.6439735696   -2.8473020663
 H   -0.7660776114   -0.3869847581   -4.0271955598
 H   -0.7664894274   -3.2926505921   -2.3480508430
 H    2.0909811880    3.2876049051   -0.0000277785
 H   -0.7679130718    3.6802777506    1.6802155698
 H   -0.7677306518    3.6812681810   -1.6808706602
 H    2.0812262746   -1.6444271708    2.8480329520
 H   -0.7626311226   -3.2866684027    2.3510344968
 H   -0.7624024263   -0.3926322226    4.0223212055
units bohr
0 2
}

basis {

assign 6-31g_2dfp_

[ 6-31g_2dfp_ ]

spherical

!----------------------------------------------------------------------
! Basis Set Exchange
! Version v0.8.13
! https://www.basissetexchange.org
!----------------------------------------------------------------------
!   Basis set: 6-31G(2df,p)
! Description: 6-31G(2df,p)
!        Role: orbital
!     Version: 0  (Data from the original Basis Set Exchange)
!----------------------------------------------------------------------

****
H     0
S    3   1.00
     18.7311370              0.03349460
      2.8253937              0.23472695
      0.6401217              0.81375733
S    1   1.00
      0.1612778              1.00000000
P    1   1.00
      1.5000000              1.0000000
P    1   1.00
      0.3750000              1.0000000
****
B     0
S    6   1.00
   2068.8823000              0.0018663
    310.6495700              0.0142515
     70.6830330              0.0695516
     19.8610800              0.2325729
      6.2993048              0.4670787
      2.1270270              0.3634314
SP   3   1.00
      4.7279710             -0.1303938              0.0745976
      1.1903377             -0.1307889              0.3078467
      0.3594117              1.1309444              0.7434568
SP   1   1.00
      0.1267512              1.0000000              1.0000000
D    1   1.00
      0.8020000              1.0000000
D    1   1.00
      0.2005000              1.0000000
F    1   1.00
      0.5000000              1.0000000
****
C     0
S    6   1.00
   3047.5249000              0.0018347
    457.3695100              0.0140373
    103.9486900              0.0688426
     29.2101550              0.2321844
      9.2866630              0.4679413
      3.1639270              0.3623120
SP   3   1.00
      7.8682724             -0.1193324              0.0689991
      1.8812885             -0.1608542              0.3164240
      0.5442493              1.1434564              0.7443083
SP   1   1.00
      0.1687144              1.0000000              1.0000000
D    1   1.00
      1.2520000              1.0000000
D    1   1.00
      0.3130000              1.0000000
F    1   1.00
      0.8000000              1.0000000
****
N     0
S    6   1.00
   4173.5110000              0.0018348
    627.4579000              0.0139950
    142.9021000              0.0685870
     40.2343300              0.2322410
     12.8202100              0.4690700
      4.3904370              0.3604550
SP   3   1.00
     11.6263580             -0.1149610              0.0675800
      2.7162800             -0.1691180              0.3239070
      0.7722180              1.1458520              0.7408950
SP   1   1.00
      0.2120313              1.0000000              1.0000000
D    1   1.00
      1.8260000              1.0000000
D    1   1.00
      0.4565000              1.0000000
F    1   1.00
      1.0000000              1.0000000
****
O     0
S    6   1.00
   5484.6717000              0.0018311
    825.2349500              0.0139501
    188.0469600              0.0684451
     52.9645000              0.2327143
     16.8975700              0.4701930
      5.7996353              0.3585209
SP   3   1.00
     15.5396160             -0.1107775              0.0708743
      3.5999336             -0.1480263              0.3397528
      1.0137618              1.1307670              0.7271586
SP   1   1.00
      0.2700058              1.0000000              1.0000000
D    1   1.00
      2.5840000              1.0000000
D    1   1.00
      0.6460000              1.0000000
F    1   1.00
      1.4000000              1.0000000
****
F     0
S    6   1.00
   7001.7130900              0.0018196169
   1051.3660900              0.0139160796
    239.2856900              0.0684053245
     67.3974453              0.233185760
     21.5199573              0.471267439
      7.40310130             0.356618546
SP   3   1.00
     20.8479528             -0.108506975            0.0716287243
      4.80830834            -0.146451658            0.3459121030
      1.34406986             1.128688580            0.7224699570
SP   1   1.00
      0.358151393            1.0000000              1.0000000
D    1   1.00
      3.5000000              1.0000000
D    1   1.00
      0.8750000              1.0000000
F    1   1.00
      1.8500000              1.0000000
****
Al     0
S    6   1.00
  13983.1000000              0.00194267
   2098.7500000              0.0148599
    477.7050000              0.0728494
    134.3600000              0.2468300
     42.8709000              0.4872580
     14.5189000              0.3234960
SP   6   1.00
    239.6680000             -0.00292619             0.00460285
     57.4419000             -0.0374080              0.0331990
     18.2859000             -0.1144870              0.1362820
      6.5991400              0.1156350              0.3304760
      2.4904900              0.6125950              0.4491460
      0.9445400              0.3937990              0.2657040
SP   3   1.00
      1.2779000             -0.2276060             -0.0175130
      0.3975900              0.00144583             0.2445330
      0.1600950              1.0927900              0.8049340
SP   1   1.00
      0.0556577              1.0000000              1.0000000
D    1   1.00
      0.6500000              1.0000000
D    1   1.00
      0.1625000              1.0000000
F    1   1.00
      0.2500000              1.0000000
****
Si     0
S    6   1.00
  16115.9000000              0.00195948
   2425.5800000              0.01492880
    553.8670000              0.07284780
    156.3400000              0.24613000
     50.0683000              0.48591400
     17.0178000              0.32500200
SP   6   1.00
    292.7180000             -0.00278094             0.00443826
     69.8731000             -0.03571460             0.03266790
     22.3363000             -0.11498500             0.13472100
      8.1503900              0.09356340             0.32867800
      3.1345800              0.60301700             0.44964000
      1.2254300              0.41895900             0.26137200
SP   3   1.00
      1.7273800             -0.24463000            -0.01779510
      0.5729220              0.00431572             0.25353900
      0.2221920              1.09818000             0.80066900
SP   1   1.00
      0.0778369              1.00000000             1.00000000
D    1   1.00
      0.9000000              1.0000000
D    1   1.00
      0.2250000              1.0000000
F    1   1.00
      0.3200000              1.0000000
****
P     0
S    6   1.00
  19413.3000000              0.0018516
   2909.4200000              0.0142062
    661.3640000              0.0699995
    185.7590000              0.2400790
     59.1943000              0.4847620
     20.0310000              0.3352000
SP   6   1.00
    339.4780000             -0.00278217             0.00456462
     81.0101000             -0.0360499              0.03369360
     25.8780000             -0.1166310              0.13975500
      9.4522100              0.0968328              0.33936200
      3.6656600              0.6144180              0.45092100
      1.4674600              0.4037980              0.23858600
SP   3   1.00
      2.1562300             -0.2529230             -0.01776530
      0.7489970              0.0328517              0.27405800
      0.2831450              1.0812500              0.78542100
SP   1   1.00
      0.0998317              1.0000000              1.00000000
D    1   1.00
      1.1000000              1.0000000
D    1   1.00
      0.2750000              1.0000000
F    1   1.00
      0.4500000              1.0000000
****
S     0
S    6   1.00
  21917.1000000              0.0018690
   3301.4900000              0.0142300
    754.1460000              0.0696960
    212.7110000              0.2384870
     67.9896000              0.4833070
     23.0515000              0.3380740
SP   6   1.00
    423.7350000             -0.0023767              0.0040610
    100.7100000             -0.0316930              0.0306810
     32.1599000             -0.1133170              0.1304520
     11.8079000              0.0560900              0.3272050
      4.6311000              0.5922550              0.4528510
      1.8702500              0.4550060              0.2560420
SP   3   1.00
      2.6158400             -0.2503740             -0.0145110
      0.9221670              0.0669570              0.3102630
      0.3412870              1.0545100              0.7544830
SP   1   1.00
      0.1171670              1.0000000              1.0000000
D    1   1.00
      1.3000000              1.0000000
D    1   1.00
      0.3250000              1.0000000
F    1   1.00
      0.5500000              1.0000000
****
Cl     0
S    6   1.00
  25180.1000000              0.0018330
   3780.3500000              0.0140340
    860.4740000              0.0690970
    242.1450000              0.2374520
     77.3349000              0.4830340
     26.2470000              0.3398560
SP   6   1.00
    491.7650000             -0.0022974              0.0039894
    116.9840000             -0.0307140              0.0303180
     37.4153000             -0.1125280              0.1298800
     13.7834000              0.0450160              0.3279510
      5.4521500              0.5893530              0.4535270
      2.2258800              0.4652060              0.2521540
SP   3   1.00
      3.1864900             -0.2518300             -0.0142990
      1.1442700              0.0615890              0.3235720
      0.4203770              1.0601800              0.7435070
SP   1   1.00
      0.1426570              1.0000000              1.0000000
D    1   1.00
      1.5000000              1.0000000
D    1   1.00
      0.3750000              1.0000000
F    1   1.00
      0.7000000              1.0000000
****
}

set {
reference uhf
freeze_core true
e_convergence 10
d_convergence 10
dft_spherical_points 1202
dft_radial_points 99
}

e = energy('b3lyp')

print_out('Grab this energy {0}'.format(e))
--------------------------------------------------------------------------

    Molecular point group: c1

    Geometry (in Bohr), charge = 0, multiplicity = 2:

       Center              X                  Y                   Z               Mass
    ------------   -----------------  -----------------  -----------------  -----------------
         C           -0.323340343065    -0.000141436552     0.000139489147    12.000000000000
         C            0.061104400235    -1.400414043852    -2.426435839253    12.000000000000
         C            0.060923342935     2.801256706048    -0.000313967653    12.000000000000
         C            0.061272711435    -1.401121559752     2.427033344847    12.000000000000
         H            2.088468456135    -1.643619044552    -2.847656980453     1.007825032230
         H           -0.766077692265    -0.386630233052    -4.027550473953     1.007825032230
         H           -0.766489508265    -3.292296067052    -2.348405757153     1.007825032230
         H            2.090981107135     3.287959430148    -0.000382692653     1.007825032230
         H           -0.767913152665     3.680632275648     1.679860655647     1.007825032230
         H           -0.767730732665     3.681622706048    -1.681225574353     1.007825032230
         H            2.081226193735    -1.644072645752     2.847678037847     1.007825032230
         H           -0.762631203465    -3.286313877652     2.350679582647     1.007825032230
         H           -0.762402507165    -0.392277697552     4.021966291347     1.007825032230

  Charge       = 0
  Multiplicity = 2
  Basis Set: ANONYMOUSEBFD23D7
    Blend: 6-31G_2DFP_
  Basis Set: (ANONYMOUSEBFD23D7 AUX)
    Blend: DEF2-UNIVERSAL-JKFIT

    Orbital Energies [Eh]
    ---------------------

    Alpha Occupied:

       1A    -10.180342     2A    -10.167686     3A    -10.167260
       4A    -10.166098     5A     -0.797768     6A     -0.686645
       7A     -0.685733     8A     -0.530774     9A     -0.441126
      10A     -0.434796    11A     -0.434548    12A     -0.382912
      13A     -0.382285    14A     -0.363613    15A     -0.338041
      16A     -0.337954    17A     -0.168961

    Alpha Virtual:

      18A      0.076069    19A      0.134138    20A      0.134142
      21A      0.142496    22A      0.142784    23A      0.154871
      24A      0.178321    25A      0.179243    26A      0.203547
      27A      0.214808    28A      0.275921    29A      0.276050
      30A      0.399114    31A      0.399340    32A      0.403345
      33A      0.423961    34A      0.424232    35A      0.456591
      36A      0.495289    37A      0.495490    38A      0.512163
      39A      0.513977    40A      0.578639    41A      0.578986
      42A      0.591203    43A      0.592023    44A      0.602612
      45A      0.624770    46A      0.631627    47A      0.635727
      48A      0.636920    49A      0.663155    50A      0.663678
      51A      0.683417    52A      0.684319    53A      0.734994
      54A      0.824839    55A      0.825957    56A      0.853918
      57A      0.915009    58A      0.915045    59A      0.944133
      60A      0.944609    61A      0.960941    62A      0.961660
      63A      1.003456    64A      1.127642    65A      1.128574
      66A      1.142222    67A      1.163149    68A      1.163386
      69A      1.223323    70A      1.274231    71A      1.274745
      72A      1.279350    73A      1.323851    74A      1.324847
      75A      1.355968    76A      1.365678    77A      1.366429
      78A      1.392454    79A      1.403502    80A      1.404581
      81A      1.416656    82A      1.417549    83A      1.427919
      84A      1.491489    85A      1.499090    86A      1.542755
      87A      1.542915    88A      1.574057    89A      1.574850
      90A      1.669773    91A      1.739265    92A      1.739512
      93A      1.768336    94A      1.829170    95A      1.833761
      96A      1.971674    97A      2.017888    98A      2.019113
      99A      2.019356   100A      2.052612   101A      2.052776
     102A      2.737855   103A      2.739117   104A      2.790924
     105A      2.811431   106A      2.889542   107A      2.890266
     108A      2.895023   109A      2.929353   110A      2.929633
     111A      2.959015   112A      2.963649   113A      2.965135
     114A      3.034033   115A      3.070946   116A      3.071607
     117A      3.084410   118A      3.168594   119A      3.168968
     120A      3.180601   121A      3.285221   122A      3.285422
     123A      3.327112   124A      3.327216   125A      3.375603
     126A      3.488974   127A      3.491350   128A      3.514018
     129A      3.525356   130A      3.568251   131A      3.568437
     132A      3.575243   133A      3.665327   134A      3.667275
     135A      3.679654   136A      3.693471   137A      3.694857
     138A      3.775988   139A      3.777663   140A      3.789124
     141A      3.911583   142A      3.912833   143A      4.034423
     144A      4.110233   145A      4.112258   146A      4.145310
     147A      4.150726   148A      4.173392   149A      4.200208
     150A      4.202245   151A      4.206197   152A      4.211492
     153A      4.314937   154A      4.316971   155A      4.358918
     156A      4.424126   157A      4.424595   158A      4.443673
     159A      4.516498   160A      4.517118   161A      4.577648
     162A      4.578974   163A      4.617533   164A      4.709517
     165A      4.774452   166A      4.774742   167A      4.836845
     168A      4.962869   169A      5.002170   170A      5.003820
     171A      5.227625   172A      5.241656   173A      5.251927
     174A      5.351296   175A      5.360087   176A      5.479522

    Beta Occupied:

       1A    -10.168448     2A    -10.168020     3A    -10.166868
       4A    -10.166506     5A     -0.781093     6A     -0.684446
       7A     -0.683536     8A     -0.511746     9A     -0.431182
      10A     -0.430904    11A     -0.421825    12A     -0.377009
      13A     -0.376357    14A     -0.362596    15A     -0.333154
      16A     -0.333087

    Beta Virtual:

      17A     -0.025743    18A      0.077078    19A      0.134950
      20A      0.135113    21A      0.144433    22A      0.144586
      23A      0.163330    24A      0.182005    25A      0.182902
      26A      0.215038    27A      0.218929    28A      0.282266
      29A      0.282401    30A      0.400279    31A      0.400516
      32A      0.419790    33A      0.426769    34A      0.427047
      35A      0.468499    36A      0.497550    37A      0.497750
      38A      0.513898    39A      0.556322    40A      0.584178
      41A      0.584545    42A      0.597414    43A      0.598180
      44A      0.610026    45A      0.628146    46A      0.631848
      47A      0.639034    48A      0.640122    49A      0.666698
      50A      0.667262    51A      0.686101    52A      0.686905
      53A      0.757518    54A      0.829971    55A      0.831161
      56A      0.855273    57A      0.922982    58A      0.923013
      59A      0.945971    60A      0.953537    61A      0.966289
      62A      0.966925    63A      1.008696    64A      1.131649
      65A      1.132627    66A      1.155594    67A      1.168206
      68A      1.168478    69A      1.232297    70A      1.279825
      71A      1.280346    72A      1.285103    73A      1.328775
      74A      1.329902    75A      1.365370    76A      1.370941
      77A      1.371666    78A      1.393515    79A      1.406940
      80A      1.408073    81A      1.421642    82A      1.422664
      83A      1.428188    84A      1.492539    85A      1.509532
      86A      1.547100    87A      1.547384    88A      1.581939
      89A      1.582712    90A      1.674617    91A      1.745059
      92A      1.745250    93A      1.779110    94A      1.833067
      95A      1.837576    96A      1.972541    97A      2.025349
      98A      2.025501    99A      2.039664   100A      2.059254
     101A      2.059576   102A      2.746171   103A      2.747473
     104A      2.811843   105A      2.816060   106A      2.902353
     107A      2.902890   108A      2.924663   109A      2.931910
     110A      2.932046   111A      2.960082   112A      2.968133
     113A      2.969737   114A      3.041966   115A      3.080718
     116A      3.081589   117A      3.086296   118A      3.184254
     119A      3.184769   120A      3.188320   121A      3.289983
     122A      3.290258   123A      3.330944   124A      3.330991
     125A      3.383422   126A      3.491750   127A      3.494035
     128A      3.512383   129A      3.528400   130A      3.574900
     131A      3.581738   132A      3.581830   133A      3.669995
     134A      3.672130   135A      3.692994   136A      3.725102
     137A      3.726415   138A      3.780558   139A      3.782149
     140A      3.817670   141A      3.921418   142A      3.922633
     143A      4.045300   144A      4.117323   145A      4.118757
     146A      4.152848   147A      4.157671   148A      4.187434
     149A      4.207050   150A      4.208317   151A      4.213125
     152A      4.215979   153A      4.322548   154A      4.324230
     155A      4.362286   156A      4.432369   157A      4.432687
     158A      4.446654   159A      4.524374   160A      4.524825
     161A      4.588314   162A      4.589506   163A      4.624724
     164A      4.719861   165A      4.781359   166A      4.781741
     167A      4.839762   168A      4.967666   169A      5.006233
     170A      5.007834   171A      5.233316   172A      5.243472
     173A      5.253714   174A      5.357795   175A      5.366541
     176A      5.481842

    Final Occupation by Irrep:
              A
    DOCC [    16 ]
    SOCC [     1 ]

  @DF-UKS Final Energy:  -157.81304230052723

   => Energetics <=

    Nuclear Repulsion Energy =            125.3947080410010528
    One-Electron Energy =                -458.7490050619705357
    Two-Electron Energy =                 195.8484071310340369
    DFT Exchange-Correlation Energy =     -20.3071524105917405
    Empirical Dispersion Energy =           0.0000000000000000
    VV10 Nonlocal Energy =                  0.0000000000000000
    Total Energy =                       -157.8130423005272291

  UHF NO Occupations:
  HONO-2 :   15  A 1.9996008
  HONO-1 :   16  A 1.9989804
  HONO-0 :   17  A 1.0000000
  LUNO+0 :   18  A 0.0010196
  LUNO+1 :   19  A 0.0003992
  LUNO+2 :   20  A 0.0001976
  LUNO+3 :   21  A 0.0001975

Computation Completed

Properties will be evaluated at   0.000000,   0.000000,   0.000000 [a0]

Properties computed using the SCF density matrix

  Nuclear Dipole Moment: [e a0]
     X:     0.8272      Y:     0.0025      Z:    -0.0025

  Electronic Dipole Moment: [e a0]
     X:    -0.7493      Y:    -0.0049      Z:     0.0049

  Dipole Moment: [e a0]
     X:     0.0779      Y:    -0.0024      Z:     0.0024     Total:     0.0780

  Dipole Moment: [D]
     X:     0.1980      Y:    -0.0062      Z:     0.0062     Total:     0.1982

*** tstop() called on n021 at Fri Nov  5 15:03:31 2021
Module time:
	user time   =     632.95 seconds =      10.55 minutes
	system time =      12.35 seconds =       0.21 minutes
	total time  =        163 seconds =       2.72 minutes
Total time:
	user time   =     632.95 seconds =      10.55 minutes
	system time =      12.35 seconds =       0.21 minutes
	total time  =        163 seconds =       2.72 minutes
Grab this energy -157.81304230052723
    Psi4 stopped on: Friday, 05 November 2021 03:03PM
    Psi4 wall time for execution: 0:02:42.23

*** Psi4 exiting successfully. Buy a developer a beer!
