                               Psi4 1.4a2.dev629

  ==> Input File <==

--------------------------------------------------------------------------
import os
memory 14 GB

molecule {
 C   -0.3251184155   -0.0000015698   -0.0004323956
 C    0.0608519679   -1.4003583786   -2.4268702026
 C    0.0604646888    2.8020174056   -0.0013879548
 C    0.0603146899   -1.4016532871    2.4263369787
 H    2.0864666732   -1.6395734023   -2.8430984976
 H   -0.7630848404   -0.3903760909   -4.0272879001
 H   -0.7664524341   -3.2950130614   -2.3513531942
 H    2.0871169496    3.2820695569   -0.0034945831
 H   -0.7684354149    3.6843930500    1.6783280006
 H   -0.7620275412    3.6825661292   -1.6735478622
 H    2.0880434273   -1.6425891132    2.8413319790
 H   -0.7638533750   -3.2912395558    2.3527730020
 H   -0.7668942522   -0.3902659963    4.0287026299
units bohr
0 2
}

basis {

assign 6-31g_2dfp_

[ 6-31g_2dfp_ ]

spherical

!----------------------------------------------------------------------
! Basis Set Exchange
! Version v0.8.13
! https://www.basissetexchange.org
!----------------------------------------------------------------------
!   Basis set: 6-31G(2df,p)
! Description: 6-31G(2df,p)
!        Role: orbital
!     Version: 0  (Data from the original Basis Set Exchange)
!----------------------------------------------------------------------

****
H     0
S    3   1.00
     18.7311370              0.03349460
      2.8253937              0.23472695
      0.6401217              0.81375733
S    1   1.00
      0.1612778              1.00000000
P    1   1.00
      1.5000000              1.0000000
P    1   1.00
      0.3750000              1.0000000
****
B     0
S    6   1.00
   2068.8823000              0.0018663
    310.6495700              0.0142515
     70.6830330              0.0695516
     19.8610800              0.2325729
      6.2993048              0.4670787
      2.1270270              0.3634314
SP   3   1.00
      4.7279710             -0.1303938              0.0745976
      1.1903377             -0.1307889              0.3078467
      0.3594117              1.1309444              0.7434568
SP   1   1.00
      0.1267512              1.0000000              1.0000000
D    1   1.00
      0.8020000              1.0000000
D    1   1.00
      0.2005000              1.0000000
F    1   1.00
      0.5000000              1.0000000
****
C     0
S    6   1.00
   3047.5249000              0.0018347
    457.3695100              0.0140373
    103.9486900              0.0688426
     29.2101550              0.2321844
      9.2866630              0.4679413
      3.1639270              0.3623120
SP   3   1.00
      7.8682724             -0.1193324              0.0689991
      1.8812885             -0.1608542              0.3164240
      0.5442493              1.1434564              0.7443083
SP   1   1.00
      0.1687144              1.0000000              1.0000000
D    1   1.00
      1.2520000              1.0000000
D    1   1.00
      0.3130000              1.0000000
F    1   1.00
      0.8000000              1.0000000
****
N     0
S    6   1.00
   4173.5110000              0.0018348
    627.4579000              0.0139950
    142.9021000              0.0685870
     40.2343300              0.2322410
     12.8202100              0.4690700
      4.3904370              0.3604550
SP   3   1.00
     11.6263580             -0.1149610              0.0675800
      2.7162800             -0.1691180              0.3239070
      0.7722180              1.1458520              0.7408950
SP   1   1.00
      0.2120313              1.0000000              1.0000000
D    1   1.00
      1.8260000              1.0000000
D    1   1.00
      0.4565000              1.0000000
F    1   1.00
      1.0000000              1.0000000
****
O     0
S    6   1.00
   5484.6717000              0.0018311
    825.2349500              0.0139501
    188.0469600              0.0684451
     52.9645000              0.2327143
     16.8975700              0.4701930
      5.7996353              0.3585209
SP   3   1.00
     15.5396160             -0.1107775              0.0708743
      3.5999336             -0.1480263              0.3397528
      1.0137618              1.1307670              0.7271586
SP   1   1.00
      0.2700058              1.0000000              1.0000000
D    1   1.00
      2.5840000              1.0000000
D    1   1.00
      0.6460000              1.0000000
F    1   1.00
      1.4000000              1.0000000
****
F     0
S    6   1.00
   7001.7130900              0.0018196169
   1051.3660900              0.0139160796
    239.2856900              0.0684053245
     67.3974453              0.233185760
     21.5199573              0.471267439
      7.40310130             0.356618546
SP   3   1.00
     20.8479528             -0.108506975            0.0716287243
      4.80830834            -0.146451658            0.3459121030
      1.34406986             1.128688580            0.7224699570
SP   1   1.00
      0.358151393            1.0000000              1.0000000
D    1   1.00
      3.5000000              1.0000000
D    1   1.00
      0.8750000              1.0000000
F    1   1.00
      1.8500000              1.0000000
****
Al     0
S    6   1.00
  13983.1000000              0.00194267
   2098.7500000              0.0148599
    477.7050000              0.0728494
    134.3600000              0.2468300
     42.8709000              0.4872580
     14.5189000              0.3234960
SP   6   1.00
    239.6680000             -0.00292619             0.00460285
     57.4419000             -0.0374080              0.0331990
     18.2859000             -0.1144870              0.1362820
      6.5991400              0.1156350              0.3304760
      2.4904900              0.6125950              0.4491460
      0.9445400              0.3937990              0.2657040
SP   3   1.00
      1.2779000             -0.2276060             -0.0175130
      0.3975900              0.00144583             0.2445330
      0.1600950              1.0927900              0.8049340
SP   1   1.00
      0.0556577              1.0000000              1.0000000
D    1   1.00
      0.6500000              1.0000000
D    1   1.00
      0.1625000              1.0000000
F    1   1.00
      0.2500000              1.0000000
****
Si     0
S    6   1.00
  16115.9000000              0.00195948
   2425.5800000              0.01492880
    553.8670000              0.07284780
    156.3400000              0.24613000
     50.0683000              0.48591400
     17.0178000              0.32500200
SP   6   1.00
    292.7180000             -0.00278094             0.00443826
     69.8731000             -0.03571460             0.03266790
     22.3363000             -0.11498500             0.13472100
      8.1503900              0.09356340             0.32867800
      3.1345800              0.60301700             0.44964000
      1.2254300              0.41895900             0.26137200
SP   3   1.00
      1.7273800             -0.24463000            -0.01779510
      0.5729220              0.00431572             0.25353900
      0.2221920              1.09818000             0.80066900
SP   1   1.00
      0.0778369              1.00000000             1.00000000
D    1   1.00
      0.9000000              1.0000000
D    1   1.00
      0.2250000              1.0000000
F    1   1.00
      0.3200000              1.0000000
****
P     0
S    6   1.00
  19413.3000000              0.0018516
   2909.4200000              0.0142062
    661.3640000              0.0699995
    185.7590000              0.2400790
     59.1943000              0.4847620
     20.0310000              0.3352000
SP   6   1.00
    339.4780000             -0.00278217             0.00456462
     81.0101000             -0.0360499              0.03369360
     25.8780000             -0.1166310              0.13975500
      9.4522100              0.0968328              0.33936200
      3.6656600              0.6144180              0.45092100
      1.4674600              0.4037980              0.23858600
SP   3   1.00
      2.1562300             -0.2529230             -0.01776530
      0.7489970              0.0328517              0.27405800
      0.2831450              1.0812500              0.78542100
SP   1   1.00
      0.0998317              1.0000000              1.00000000
D    1   1.00
      1.1000000              1.0000000
D    1   1.00
      0.2750000              1.0000000
F    1   1.00
      0.4500000              1.0000000
****
S     0
S    6   1.00
  21917.1000000              0.0018690
   3301.4900000              0.0142300
    754.1460000              0.0696960
    212.7110000              0.2384870
     67.9896000              0.4833070
     23.0515000              0.3380740
SP   6   1.00
    423.7350000             -0.0023767              0.0040610
    100.7100000             -0.0316930              0.0306810
     32.1599000             -0.1133170              0.1304520
     11.8079000              0.0560900              0.3272050
      4.6311000              0.5922550              0.4528510
      1.8702500              0.4550060              0.2560420
SP   3   1.00
      2.6158400             -0.2503740             -0.0145110
      0.9221670              0.0669570              0.3102630
      0.3412870              1.0545100              0.7544830
SP   1   1.00
      0.1171670              1.0000000              1.0000000
D    1   1.00
      1.3000000              1.0000000
D    1   1.00
      0.3250000              1.0000000
F    1   1.00
      0.5500000              1.0000000
****
Cl     0
S    6   1.00
  25180.1000000              0.0018330
   3780.3500000              0.0140340
    860.4740000              0.0690970
    242.1450000              0.2374520
     77.3349000              0.4830340
     26.2470000              0.3398560
SP   6   1.00
    491.7650000             -0.0022974              0.0039894
    116.9840000             -0.0307140              0.0303180
     37.4153000             -0.1125280              0.1298800
     13.7834000              0.0450160              0.3279510
      5.4521500              0.5893530              0.4535270
      2.2258800              0.4652060              0.2521540
SP   3   1.00
      3.1864900             -0.2518300             -0.0142990
      1.1442700              0.0615890              0.3235720
      0.4203770              1.0601800              0.7435070
SP   1   1.00
      0.1426570              1.0000000              1.0000000
D    1   1.00
      1.5000000              1.0000000
D    1   1.00
      0.3750000              1.0000000
F    1   1.00
      0.7000000              1.0000000
****
}

set {
reference uhf
freeze_core true
e_convergence 10
d_convergence 10
dft_spherical_points 1202
dft_radial_points 99
}

e = energy('b3lyp')

print_out('Grab this energy {0}'.format(e))
--------------------------------------------------------------------------

    Molecular point group: c1

    Geometry (in Bohr), charge = 0, multiplicity = 2:

       Center              X                  Y                   Z               Mass
    ------------   -----------------  -----------------  -----------------  -----------------
         C           -0.324454482285    -0.000001943628     0.000020919762    12.000000000000
         C            0.061515901115    -1.400358752428    -2.426416887238    12.000000000000
         C            0.061128622015     2.802017031772    -0.000934639438    12.000000000000
         C            0.060978623115    -1.401653660928     2.426790294062    12.000000000000
         H            2.087130606415    -1.639573776128    -2.842645182238     1.007825032230
         H           -0.762420907185    -0.390376464728    -4.026834584738     1.007825032230
         H           -0.765788500885    -3.295013435228    -2.350899878838     1.007825032230
         H            2.087780882815     3.282069183072    -0.003041267738     1.007825032230
         H           -0.767771481685     3.684392676172     1.678781315962     1.007825032230
         H           -0.761363607985     3.682565755372    -1.673094546838     1.007825032230
         H            2.088707360515    -1.642589487028     2.841785294362     1.007825032230
         H           -0.763189441785    -3.291239929628     2.353226317362     1.007825032230
         H           -0.766230318985    -0.390266370128     4.029155945262     1.007825032230

  Charge       = 0
  Multiplicity = 2
  Basis Set: ANONYMOUSF65A593B
    Blend: 6-31G_2DFP_
  Basis Set: (ANONYMOUSF65A593B AUX)
    Blend: DEF2-UNIVERSAL-JKFIT

    Orbital Energies [Eh]
    ---------------------

    Alpha Occupied:

       1A    -10.180355     2A    -10.167081     3A    -10.167074
       4A    -10.167030     5A     -0.797702     6A     -0.686210
       7A     -0.686091     8A     -0.530766     9A     -0.441295
      10A     -0.434646    11A     -0.434271    12A     -0.382774
      13A     -0.382730    14A     -0.363474    15A     -0.338137
      16A     -0.337813    17A     -0.168871

    Alpha Virtual:

      18A      0.076034    19A      0.134088    20A      0.134318
      21A      0.142350    22A      0.142766    23A      0.154676
      24A      0.178724    25A      0.178908    26A      0.203415
      27A      0.214583    28A      0.275837    29A      0.276056
      30A      0.398755    31A      0.399248    32A      0.403419
      33A      0.424087    34A      0.424412    35A      0.456358
      36A      0.495362    37A      0.495464    38A      0.512350
      39A      0.513924    40A      0.578600    41A      0.578707
      42A      0.591690    43A      0.591978    44A      0.602802
      45A      0.624655    46A      0.631518    47A      0.635896
      48A      0.636463    49A      0.662925    50A      0.663346
      51A      0.683747    52A      0.684143    53A      0.734909
      54A      0.825253    55A      0.825758    56A      0.853575
      57A      0.914669    58A      0.915097    59A      0.943904
      60A      0.945403    61A      0.961491    62A      0.961654
      63A      1.002726    64A      1.127376    65A      1.127946
      66A      1.142809    67A      1.162657    68A      1.162779
      69A      1.223404    70A      1.274266    71A      1.274755
      72A      1.279142    73A      1.323870    74A      1.324273
      75A      1.356404    76A      1.365428    77A      1.366041
      78A      1.392636    79A      1.404282    80A      1.404351
      81A      1.416577    82A      1.417954    83A      1.427287
      84A      1.490900    85A      1.499386    86A      1.542757
      87A      1.542786    88A      1.574873    89A      1.575273
      90A      1.669769    91A      1.738849    92A      1.740253
      93A      1.768471    94A      1.830333    95A      1.831883
      96A      1.971659    97A      2.017250    98A      2.018304
      99A      2.019353   100A      2.051639   101A      2.052703
     102A      2.738722   103A      2.739082   104A      2.790699
     105A      2.810911   106A      2.889642   107A      2.889941
     108A      2.894690   109A      2.929014   110A      2.929068
     111A      2.958902   112A      2.964286   113A      2.964403
     114A      3.033530   115A      3.071180   116A      3.072276
     117A      3.084795   118A      3.168433   119A      3.169266
     120A      3.180431   121A      3.285556   122A      3.285873
     123A      3.325673   124A      3.326436   125A      3.375913
     126A      3.490380   127A      3.490929   128A      3.513741
     129A      3.525154   130A      3.567412   131A      3.568294
     132A      3.574310   133A      3.665957   134A      3.666953
     135A      3.678546   136A      3.694405   137A      3.694904
     138A      3.775526   139A      3.775751   140A      3.790440
     141A      3.911544   142A      3.912708   143A      4.035562
     144A      4.110663   145A      4.111769   146A      4.147998
     147A      4.148632   148A      4.173393   149A      4.201436
     150A      4.202988   151A      4.203087   152A      4.210478
     153A      4.314997   154A      4.316336   155A      4.357795
     156A      4.424416   157A      4.425510   158A      4.442463
     159A      4.514952   160A      4.517071   161A      4.577295
     162A      4.577318   163A      4.617009   164A      4.709147
     165A      4.773250   166A      4.775213   167A      4.837926
     168A      4.962346   169A      5.002704   170A      5.003443
     171A      5.227244   172A      5.246809   173A      5.247321
     174A      5.353668   175A      5.356217   176A      5.479148

    Beta Occupied:

       1A    -10.167833     2A    -10.167826     3A    -10.167802
       4A    -10.166527     5A     -0.781024     6A     -0.684017
       7A     -0.683893     8A     -0.511741     9A     -0.431027
      10A     -0.430652    11A     -0.421984    12A     -0.376865
      13A     -0.376830    14A     -0.362464    15A     -0.333252
      16A     -0.332937

    Beta Virtual:

      17A     -0.025576    18A      0.077047    19A      0.134939
      20A      0.135218    21A      0.144183    22A      0.144653
      23A      0.163085    24A      0.182402    25A      0.182585
      26A      0.214810    27A      0.218837    28A      0.282197
      29A      0.282415    30A      0.399915    31A      0.400417
      32A      0.419843    33A      0.426904    34A      0.427228
      35A      0.468188    36A      0.497603    37A      0.497715
      38A      0.514080    39A      0.556354    40A      0.584131
      41A      0.584237    42A      0.597871    43A      0.598202
      44A      0.610207    45A      0.628030    46A      0.631670
      47A      0.639208    48A      0.639736    49A      0.666480
      50A      0.666873    51A      0.686423    52A      0.686774
      53A      0.757469    54A      0.830417    55A      0.830899
      56A      0.854925    57A      0.922615    58A      0.923003
      59A      0.945741    60A      0.954247    61A      0.966807
      62A      0.967005    63A      1.007938    64A      1.131407
      65A      1.131968    66A      1.156407    67A      1.167742
      68A      1.167854    69A      1.232272    70A      1.279827
      71A      1.280350    72A      1.284831    73A      1.328822
      74A      1.329222    75A      1.365879    76A      1.370740
      77A      1.371228    78A      1.393679    79A      1.407715
      80A      1.407818    81A      1.421732    82A      1.423006
      83A      1.427552    84A      1.491961    85A      1.509853
      86A      1.547143    87A      1.547229    88A      1.582733
      89A      1.583133    90A      1.674613    91A      1.744596
      92A      1.746028    93A      1.779234    94A      1.834186
      95A      1.835744    96A      1.972512    97A      2.023996
      98A      2.025119    99A      2.039881   100A      2.058363
     101A      2.059452   102A      2.747035   103A      2.747419
     104A      2.811318   105A      2.815830   106A      2.902354
     107A      2.902739   108A      2.924413   109A      2.931486
     110A      2.931525   111A      2.959974   112A      2.968779
     113A      2.968910   114A      3.041473   115A      3.081039
     116A      3.082129   117A      3.086745   118A      3.184223
     119A      3.184987   120A      3.188101   121A      3.290365
     122A      3.290708   123A      3.329464   124A      3.330300
     125A      3.383758   126A      3.493056   127A      3.493580
     128A      3.512097   129A      3.528237   130A      3.574184
     131A      3.580733   132A      3.581768   133A      3.670936
     134A      3.671653   135A      3.691909   136A      3.726062
     137A      3.726179   138A      3.779959   139A      3.780248
     140A      3.818957   141A      3.921342   142A      3.922637
     143A      4.046396   144A      4.117186   145A      4.118704
     146A      4.155066   147A      4.156150   148A      4.187464
     149A      4.207433   150A      4.208963   151A      4.210973
     152A      4.214934   153A      4.322466   154A      4.323722
     155A      4.361135   156A      4.432643   157A      4.433696
     158A      4.445371   159A      4.522747   160A      4.524881
     161A      4.587854   162A      4.587919   163A      4.624279
     164A      4.719384   165A      4.780244   166A      4.782154
     167A      4.840839   168A      4.967143   169A      5.006729
     170A      5.007464   171A      5.232873   172A      5.248600
     173A      5.249197   174A      5.360156   175A      5.362682
     176A      5.481465

    Final Occupation by Irrep:
              A
    DOCC [    16 ]
    SOCC [     1 ]

  @DF-UKS Final Energy:  -157.81305027744241

   => Energetics <=

    Nuclear Repulsion Energy =            125.3830500648288080
    One-Electron Energy =                -458.7262757252537995
    Two-Electron Energy =                 195.8369762735002269
    DFT Exchange-Correlation Energy =     -20.3068008905176498
    Empirical Dispersion Energy =           0.0000000000000000
    VV10 Nonlocal Energy =                  0.0000000000000000
    Total Energy =                       -157.8130502774424144

  UHF NO Occupations:
  HONO-2 :   15  A 1.9996022
  HONO-1 :   16  A 1.9989785
  HONO-0 :   17  A 1.0000000
  LUNO+0 :   18  A 0.0010215
  LUNO+1 :   19  A 0.0003978
  LUNO+2 :   20  A 0.0001979
  LUNO+3 :   21  A 0.0001978

Computation Completed

Properties will be evaluated at   0.000000,   0.000000,   0.000000 [a0]

Properties computed using the SCF density matrix

  Nuclear Dipole Moment: [e a0]
     X:     0.8319      Y:    -0.0000      Z:     0.0032

  Electronic Dipole Moment: [e a0]
     X:    -0.7535      Y:     0.0000      Z:    -0.0049

  Dipole Moment: [e a0]
     X:     0.0783      Y:    -0.0000      Z:    -0.0017     Total:     0.0784

  Dipole Moment: [D]
     X:     0.1991      Y:    -0.0000      Z:    -0.0044     Total:     0.1992

*** tstop() called on n091 at Fri Nov  5 14:36:01 2021
Module time:
	user time   =     468.86 seconds =       7.81 minutes
	system time =       4.47 seconds =       0.07 minutes
	total time  =        119 seconds =       1.98 minutes
Total time:
	user time   =     468.86 seconds =       7.81 minutes
	system time =       4.47 seconds =       0.07 minutes
	total time  =        119 seconds =       1.98 minutes
Grab this energy -157.81305027744241
    Psi4 stopped on: Friday, 05 November 2021 02:36PM
    Psi4 wall time for execution: 0:01:59.06

*** Psi4 exiting successfully. Buy a developer a beer!
