                               Psi4 1.4a2.dev629

  ==> Input File <==

--------------------------------------------------------------------------
import os
memory 14 GB

molecule {
 C   -0.3233368207   -0.0030196337   -0.0000000000
 C    0.0614384062   -1.4000822586   -2.4261213957
 C    0.0604266180    2.8030014696    0.0000000000
 C    0.0614384062   -1.4000822586    2.4261213957
 H    2.0870031110   -1.6465741500   -2.8434253985
 H   -0.7641976379   -0.3858929057   -4.0214650820
 H   -0.7664791818   -3.2937082446   -2.3537062621
 H    2.0866524911    3.2925983399    0.0000000000
 H   -0.7659397801    3.6799553142    1.6773604833
 H   -0.7659397801    3.6799553142   -1.6773604833
 H    2.0870031110   -1.6465741500    2.8434253985
 H   -0.7664791818   -3.2937082446    2.3537062621
 H   -0.7641976379   -0.3858929057    4.0214650820
units bohr
0 2
}

basis {

assign 6-31g_2dfp_

[ 6-31g_2dfp_ ]

spherical

!----------------------------------------------------------------------
! Basis Set Exchange
! Version v0.8.13
! https://www.basissetexchange.org
!----------------------------------------------------------------------
!   Basis set: 6-31G(2df,p)
! Description: 6-31G(2df,p)
!        Role: orbital
!     Version: 0  (Data from the original Basis Set Exchange)
!----------------------------------------------------------------------

****
H     0
S    3   1.00
     18.7311370              0.03349460
      2.8253937              0.23472695
      0.6401217              0.81375733
S    1   1.00
      0.1612778              1.00000000
P    1   1.00
      1.5000000              1.0000000
P    1   1.00
      0.3750000              1.0000000
****
B     0
S    6   1.00
   2068.8823000              0.0018663
    310.6495700              0.0142515
     70.6830330              0.0695516
     19.8610800              0.2325729
      6.2993048              0.4670787
      2.1270270              0.3634314
SP   3   1.00
      4.7279710             -0.1303938              0.0745976
      1.1903377             -0.1307889              0.3078467
      0.3594117              1.1309444              0.7434568
SP   1   1.00
      0.1267512              1.0000000              1.0000000
D    1   1.00
      0.8020000              1.0000000
D    1   1.00
      0.2005000              1.0000000
F    1   1.00
      0.5000000              1.0000000
****
C     0
S    6   1.00
   3047.5249000              0.0018347
    457.3695100              0.0140373
    103.9486900              0.0688426
     29.2101550              0.2321844
      9.2866630              0.4679413
      3.1639270              0.3623120
SP   3   1.00
      7.8682724             -0.1193324              0.0689991
      1.8812885             -0.1608542              0.3164240
      0.5442493              1.1434564              0.7443083
SP   1   1.00
      0.1687144              1.0000000              1.0000000
D    1   1.00
      1.2520000              1.0000000
D    1   1.00
      0.3130000              1.0000000
F    1   1.00
      0.8000000              1.0000000
****
N     0
S    6   1.00
   4173.5110000              0.0018348
    627.4579000              0.0139950
    142.9021000              0.0685870
     40.2343300              0.2322410
     12.8202100              0.4690700
      4.3904370              0.3604550
SP   3   1.00
     11.6263580             -0.1149610              0.0675800
      2.7162800             -0.1691180              0.3239070
      0.7722180              1.1458520              0.7408950
SP   1   1.00
      0.2120313              1.0000000              1.0000000
D    1   1.00
      1.8260000              1.0000000
D    1   1.00
      0.4565000              1.0000000
F    1   1.00
      1.0000000              1.0000000
****
O     0
S    6   1.00
   5484.6717000              0.0018311
    825.2349500              0.0139501
    188.0469600              0.0684451
     52.9645000              0.2327143
     16.8975700              0.4701930
      5.7996353              0.3585209
SP   3   1.00
     15.5396160             -0.1107775              0.0708743
      3.5999336             -0.1480263              0.3397528
      1.0137618              1.1307670              0.7271586
SP   1   1.00
      0.2700058              1.0000000              1.0000000
D    1   1.00
      2.5840000              1.0000000
D    1   1.00
      0.6460000              1.0000000
F    1   1.00
      1.4000000              1.0000000
****
F     0
S    6   1.00
   7001.7130900              0.0018196169
   1051.3660900              0.0139160796
    239.2856900              0.0684053245
     67.3974453              0.233185760
     21.5199573              0.471267439
      7.40310130             0.356618546
SP   3   1.00
     20.8479528             -0.108506975            0.0716287243
      4.80830834            -0.146451658            0.3459121030
      1.34406986             1.128688580            0.7224699570
SP   1   1.00
      0.358151393            1.0000000              1.0000000
D    1   1.00
      3.5000000              1.0000000
D    1   1.00
      0.8750000              1.0000000
F    1   1.00
      1.8500000              1.0000000
****
Al     0
S    6   1.00
  13983.1000000              0.00194267
   2098.7500000              0.0148599
    477.7050000              0.0728494
    134.3600000              0.2468300
     42.8709000              0.4872580
     14.5189000              0.3234960
SP   6   1.00
    239.6680000             -0.00292619             0.00460285
     57.4419000             -0.0374080              0.0331990
     18.2859000             -0.1144870              0.1362820
      6.5991400              0.1156350              0.3304760
      2.4904900              0.6125950              0.4491460
      0.9445400              0.3937990              0.2657040
SP   3   1.00
      1.2779000             -0.2276060             -0.0175130
      0.3975900              0.00144583             0.2445330
      0.1600950              1.0927900              0.8049340
SP   1   1.00
      0.0556577              1.0000000              1.0000000
D    1   1.00
      0.6500000              1.0000000
D    1   1.00
      0.1625000              1.0000000
F    1   1.00
      0.2500000              1.0000000
****
Si     0
S    6   1.00
  16115.9000000              0.00195948
   2425.5800000              0.01492880
    553.8670000              0.07284780
    156.3400000              0.24613000
     50.0683000              0.48591400
     17.0178000              0.32500200
SP   6   1.00
    292.7180000             -0.00278094             0.00443826
     69.8731000             -0.03571460             0.03266790
     22.3363000             -0.11498500             0.13472100
      8.1503900              0.09356340             0.32867800
      3.1345800              0.60301700             0.44964000
      1.2254300              0.41895900             0.26137200
SP   3   1.00
      1.7273800             -0.24463000            -0.01779510
      0.5729220              0.00431572             0.25353900
      0.2221920              1.09818000             0.80066900
SP   1   1.00
      0.0778369              1.00000000             1.00000000
D    1   1.00
      0.9000000              1.0000000
D    1   1.00
      0.2250000              1.0000000
F    1   1.00
      0.3200000              1.0000000
****
P     0
S    6   1.00
  19413.3000000              0.0018516
   2909.4200000              0.0142062
    661.3640000              0.0699995
    185.7590000              0.2400790
     59.1943000              0.4847620
     20.0310000              0.3352000
SP   6   1.00
    339.4780000             -0.00278217             0.00456462
     81.0101000             -0.0360499              0.03369360
     25.8780000             -0.1166310              0.13975500
      9.4522100              0.0968328              0.33936200
      3.6656600              0.6144180              0.45092100
      1.4674600              0.4037980              0.23858600
SP   3   1.00
      2.1562300             -0.2529230             -0.01776530
      0.7489970              0.0328517              0.27405800
      0.2831450              1.0812500              0.78542100
SP   1   1.00
      0.0998317              1.0000000              1.00000000
D    1   1.00
      1.1000000              1.0000000
D    1   1.00
      0.2750000              1.0000000
F    1   1.00
      0.4500000              1.0000000
****
S     0
S    6   1.00
  21917.1000000              0.0018690
   3301.4900000              0.0142300
    754.1460000              0.0696960
    212.7110000              0.2384870
     67.9896000              0.4833070
     23.0515000              0.3380740
SP   6   1.00
    423.7350000             -0.0023767              0.0040610
    100.7100000             -0.0316930              0.0306810
     32.1599000             -0.1133170              0.1304520
     11.8079000              0.0560900              0.3272050
      4.6311000              0.5922550              0.4528510
      1.8702500              0.4550060              0.2560420
SP   3   1.00
      2.6158400             -0.2503740             -0.0145110
      0.9221670              0.0669570              0.3102630
      0.3412870              1.0545100              0.7544830
SP   1   1.00
      0.1171670              1.0000000              1.0000000
D    1   1.00
      1.3000000              1.0000000
D    1   1.00
      0.3250000              1.0000000
F    1   1.00
      0.5500000              1.0000000
****
Cl     0
S    6   1.00
  25180.1000000              0.0018330
   3780.3500000              0.0140340
    860.4740000              0.0690970
    242.1450000              0.2374520
     77.3349000              0.4830340
     26.2470000              0.3398560
SP   6   1.00
    491.7650000             -0.0022974              0.0039894
    116.9840000             -0.0307140              0.0303180
     37.4153000             -0.1125280              0.1298800
     13.7834000              0.0450160              0.3279510
      5.4521500              0.5893530              0.4535270
      2.2258800              0.4652060              0.2521540
SP   3   1.00
      3.1864900             -0.2518300             -0.0142990
      1.1442700              0.0615890              0.3235720
      0.4203770              1.0601800              0.7435070
SP   1   1.00
      0.1426570              1.0000000              1.0000000
D    1   1.00
      1.5000000              1.0000000
D    1   1.00
      0.3750000              1.0000000
F    1   1.00
      0.7000000              1.0000000
****
}

set {
reference uhf
freeze_core true
e_convergence 10
d_convergence 10
dft_spherical_points 1202
dft_radial_points 99
}

e = energy('b3lyp')

print_out('Grab this energy {0}'.format(e))
--------------------------------------------------------------------------

    Molecular point group: cs

    Geometry (in Bohr), charge = 0, multiplicity = 2:

       Center              X                  Y                   Z               Mass
    ------------   -----------------  -----------------  -----------------  -----------------
         C           -0.323338090855    -0.002984018604     0.000000000000    12.000000000000
         C            0.061437136045    -1.400046643504    -2.426121395700    12.000000000000
         C            0.060425347845     2.803037084696     0.000000000000    12.000000000000
         C            0.061437136045    -1.400046643504     2.426121395700    12.000000000000
         H            2.087001840845    -1.646538534904    -2.843425398500     1.007825032230
         H           -0.764198908055    -0.385857290604    -4.021465082000     1.007825032230
         H           -0.766480451955    -3.293672629504    -2.353706262100     1.007825032230
         H            2.086651220945     3.292633954996     0.000000000000     1.007825032230
         H           -0.765941050255     3.679990929296     1.677360483300     1.007825032230
         H           -0.765941050255     3.679990929296    -1.677360483300     1.007825032230
         H            2.087001840845    -1.646538534904     2.843425398500     1.007825032230
         H           -0.766480451955    -3.293672629504     2.353706262100     1.007825032230
         H           -0.764198908055    -0.385857290604     4.021465082000     1.007825032230

  Charge       = 0
  Multiplicity = 2
  Basis Set: ANONYMOUSD2D0D8A1
    Blend: 6-31G_2DFP_
  Basis Set: (ANONYMOUSD2D0D8A1 AUX)
    Blend: DEF2-UNIVERSAL-JKFIT

    Orbital Energies [Eh]
    ---------------------

    Alpha Occupied:

       1Ap   -10.180342     2Ap   -10.167169     1App  -10.166954
       3Ap   -10.166922     4Ap    -0.797768     2App   -0.686388
       5Ap    -0.685986     6Ap    -0.530776     7Ap    -0.441136
       3App   -0.434734     8Ap    -0.434601     4App   -0.382676
       9Ap    -0.382524     5App   -0.363607     6App   -0.338358
      10Ap    -0.337640    11Ap    -0.168960

    Alpha Virtual:

      12Ap     0.076073    13Ap     0.134086     7App    0.134226
      14Ap     0.142622     8App    0.142628    15Ap     0.154879
       9App    0.178686    16Ap     0.178869    17Ap     0.203546
      10App    0.214807    18Ap     0.275592    11App    0.276379
      19Ap     0.399074    12App    0.399376    20Ap     0.403350
      13App    0.424036    21Ap     0.424161    22Ap     0.456592
      14App    0.495295    23Ap     0.495484    15App    0.512159
      24Ap     0.513979    25Ap     0.578480    16App    0.579149
      26Ap     0.591313    17App    0.591946    27Ap     0.602579
      28Ap     0.624749    18App    0.631778    29Ap     0.636228
      19App    0.636288    30Ap     0.663354    20App    0.663468
      31Ap     0.683833    21App    0.683875    32Ap     0.734994
      22App    0.825187    33Ap     0.825626    23App    0.853915
      34Ap     0.914981    24App    0.915056    25App    0.944123
      35Ap     0.944619    26App    0.960662    36Ap     0.961928
      37Ap     1.003460    27App    1.127879    38Ap     1.128327
      39Ap     1.142213    28App    1.163159    40Ap     1.163399
      41Ap     1.223328    42Ap     1.274155    29App    1.274824
      43Ap     1.279348    44Ap     1.324303    30App    1.324407
      45Ap     1.355995    31App    1.365977    46Ap     1.366135
      32App    1.392405    47Ap     1.403497    33App    1.404644
      48Ap     1.416448    34App    1.417775    35App    1.427906
      36App    1.491498    49Ap     1.499080    37App    1.542730
      50Ap     1.542925    38App    1.574126    51Ap     1.574769
      52Ap     1.669821    53Ap     1.738908    39App    1.739908
      54Ap     1.768338    55Ap     1.830996    40App    1.831820
      41App    1.971733    56Ap     2.017854    42App    2.018581
      57Ap     2.019956    58Ap     2.052445    43App    2.052841
      44App    2.738256    59Ap     2.738712    60Ap     2.790927
      45App    2.811415    61Ap     2.888977    46App    2.890909
      62Ap     2.894980    63Ap     2.929307    47App    2.929687
      48App    2.958991    49App    2.963946    64Ap     2.964809
      65Ap     3.034010    50App    3.071276    66Ap     3.071294
      51App    3.084349    67Ap     3.168673    52App    3.168873
      68Ap     3.180612    69Ap     3.285055    53App    3.285577
      70Ap     3.326875    54App    3.327447    71Ap     3.375618
      72Ap     3.489961    55App    3.490301    56App    3.514039
      73Ap     3.525318    74Ap     3.568200    57App    3.568446
      58App    3.575292    75Ap     3.666306    59App    3.666412
      76Ap     3.679596    77Ap     3.693738    60App    3.694610
      61App    3.775572    78Ap     3.778055    79Ap     3.789160
      80Ap     3.911605    62App    3.912851    81Ap     4.034439
      82Ap     4.110322    63App    4.112402    83Ap     4.147045
      64App    4.149194    84Ap     4.173261    85Ap     4.202644
      86Ap     4.203027    65App    4.203118    66App    4.210856
      87Ap     4.314372    67App    4.317502    68App    4.359011
      69App    4.423636    88Ap     4.425263    70App    4.443446
      89Ap     4.516223    71App    4.517433    90Ap     4.577631
      72App    4.578907    91Ap     4.617513    92Ap     4.709471
      73App    4.773333    93Ap     4.775886    74App    4.836945
      94Ap     4.962844    95Ap     5.002900    75App    5.003008
      96Ap     5.228016    76App    5.246573    97Ap     5.247085
      98Ap     5.354758    77App    5.356249    78App    5.479375

    Beta Occupied:

       1Ap   -10.167926     1App  -10.167707     2Ap   -10.167691
       3Ap   -10.166519     4Ap    -0.781093     2App   -0.684181
       5Ap    -0.683798     6Ap    -0.511747     3App   -0.431088
       7Ap    -0.431007     8Ap    -0.421814     4App   -0.376766
       9Ap    -0.376607     5App   -0.362589     6App   -0.333476
      10Ap    -0.332767

    Beta Virtual:

      11Ap    -0.025742    12Ap     0.077082    13Ap     0.134972
       7App    0.135120     8App    0.144479    14Ap     0.144512
      15Ap     0.163338     9App    0.182387    16Ap     0.182510
      10App    0.215037    17Ap     0.218928    18Ap     0.281965
      11App    0.282702    19Ap     0.400251    12App    0.400545
      20Ap     0.419782    13App    0.426845    21Ap     0.426982
      22Ap     0.468500    14App    0.497561    23Ap     0.497740
      15App    0.513894    24Ap     0.556324    25Ap     0.584029
      16App    0.584699    26Ap     0.597499    17App    0.598121
      27Ap     0.609998    28Ap     0.628131    18App    0.631935
      29Ap     0.639496    19App    0.639590    30Ap     0.666916
      20App    0.667034    31Ap     0.686449    21App    0.686530
      32Ap     0.757517    22App    0.830337    33Ap     0.830813
      23App    0.855268    34Ap     0.922987    24App    0.922991
      25App    0.945961    35Ap     0.953544    26App    0.966013
      36Ap     0.967193    37Ap     1.008700    27App    1.131844
      38Ap     1.132419    39Ap     1.155582    28App    1.168302
      40Ap     1.168411    41Ap     1.232300    42Ap     1.279726
      29App    1.280446    43Ap     1.285103    44Ap     1.329265
      30App    1.329424    45Ap     1.365412    31App    1.371166
      46Ap     1.371433    32App    1.393471    47Ap     1.406925
      33App    1.408137    48Ap     1.421526    34App    1.422794
      35App    1.428177    36App    1.492547    49Ap     1.509524
      37App    1.547151    50Ap     1.547320    38App    1.582005
      51Ap     1.582634    52Ap     1.674669    53Ap     1.744668
      39App    1.745676    54Ap     1.779111    55Ap     1.834853
      40App    1.835674    41App    1.972593    42App    2.024988
      56Ap     2.025868    57Ap     2.039712    58Ap     2.059160
      43App    2.059560    44App    2.746601    59Ap     2.747039
      45App    2.811829    60Ap     2.816061    61Ap     2.901765
      46App    2.903520    62Ap     2.924661    63Ap     2.931770
      47App    2.932187    48App    2.960056    49App    2.968517
      64Ap     2.969324    65Ap     3.041944    66Ap     3.081186
      50App    3.081204    51App    3.086165    67Ap     3.184371
      52App    3.184639    68Ap     3.188331    69Ap     3.289859
      53App    3.290370    70Ap     3.330709    54App    3.331221
      71Ap     3.383437    72Ap     3.492694    55App    3.493022
      56App    3.512409    73Ap     3.528369    57App    3.574857
      74Ap     3.581445    58App    3.582164    75Ap     3.670755
      59App    3.671519    76Ap     3.692914    60App    3.725709
      77Ap     3.725824    61App    3.780202    78Ap     3.782481
      79Ap     3.817703    80Ap     3.921418    62App    3.922671
      81Ap     4.045327    82Ap     4.117253    63App    4.119105
      83Ap     4.154263    64App    4.156389    84Ap     4.187320
      85Ap     4.208927    65App    4.209082    86Ap     4.210624
      66App    4.215330    87Ap     4.321756    67App    4.324991
      68App    4.362381    69App    4.431902    88Ap     4.433431
      70App    4.446327    89Ap     4.524038    71App    4.525198
      90Ap     4.588252    72App    4.589484    91Ap     4.624711
      92Ap     4.719816    73App    4.780345    93Ap     4.782778
      74App    4.839865    94Ap     4.967638    95Ap     5.006932
      75App    5.007055    96Ap     5.233730    76App    5.248341
      97Ap     5.248888    98Ap     5.361197    77App    5.362771
      78App    5.481696

    Final Occupation by Irrep:
             Ap   App
    DOCC [    10,    6 ]
    SOCC [     1,    0 ]

  @DF-UKS Final Energy:  -157.81306422459761

   => Energetics <=

    Nuclear Repulsion Energy =            125.3946501554287920
    One-Electron Energy =                -458.7489469301630152
    Two-Electron Energy =                 195.8483774015408301
    DFT Exchange-Correlation Energy =     -20.3071448514042316
    Empirical Dispersion Energy =           0.0000000000000000
    VV10 Nonlocal Energy =                  0.0000000000000000
    Total Energy =                       -157.8130642245976105

  UHF NO Occupations:
  HONO-2 :    9 Ap 1.9996009
  HONO-1 :   10 Ap 1.9989805
  HONO-0 :   11 Ap 1.0000000
  LUNO+0 :   12 Ap 0.0010195
  LUNO+1 :   13 Ap 0.0003991
  LUNO+2 :   14 Ap 0.0001983
  LUNO+3 :    7App 0.0001968

Computation Completed

Properties will be evaluated at   0.000000,   0.000000,   0.000000 [a0]

Properties computed using the SCF density matrix

  Nuclear Dipole Moment: [e a0]
     X:     0.8272      Y:     0.0002      Z:     0.0000

  Electronic Dipole Moment: [e a0]
     X:    -0.7493      Y:    -0.0003      Z:     0.0000

  Dipole Moment: [e a0]
     X:     0.0779      Y:    -0.0001      Z:     0.0000     Total:     0.0779

  Dipole Moment: [D]
     X:     0.1980      Y:    -0.0002      Z:     0.0000     Total:     0.1980

*** tstop() called on n083 at Fri Nov  5 11:54:08 2021
Module time:
	user time   =     494.94 seconds =       8.25 minutes
	system time =       4.55 seconds =       0.08 minutes
	total time  =        126 seconds =       2.10 minutes
Total time:
	user time   =     494.94 seconds =       8.25 minutes
	system time =       4.55 seconds =       0.08 minutes
	total time  =        126 seconds =       2.10 minutes
Grab this energy -157.8130642245976
    Psi4 stopped on: Friday, 05 November 2021 11:54AM
    Psi4 wall time for execution: 0:02:05.62

*** Psi4 exiting successfully. Buy a developer a beer!
