                               Psi4 1.4a2.dev629

  ==> Input File <==

--------------------------------------------------------------------------
import os
memory 14 GB

molecule {
 C   -0.3201858541   -0.0000020555   -0.0000000000
 C    0.0622828510   -1.3999672314   -2.4248035961
 C    0.0621632434    2.7999399090   -0.0000000000
 C    0.0622828510   -1.3999672314    2.4248035961
 H    2.0865531666   -1.6442132069   -2.8476409728
 H   -0.7663105210   -0.3890262410   -4.0258571827
 H   -0.7664736911   -3.2919224179   -2.3498726983
 H    2.0864142856    3.2883335053    0.0000000000
 H   -0.7665515812    3.6809812610    1.6759909405
 H   -0.7665515812    3.6809812610   -1.6759909405
 H    2.0865531666   -1.6442132069    2.8476409728
 H   -0.7664736911   -3.2919224179    2.3498726983
 H   -0.7663105210   -0.3890262410    4.0258571827
units bohr
0 2
}

basis {

assign 6-31g_2dfp_

[ 6-31g_2dfp_ ]

spherical

!----------------------------------------------------------------------
! Basis Set Exchange
! Version v0.8.13
! https://www.basissetexchange.org
!----------------------------------------------------------------------
!   Basis set: 6-31G(2df,p)
! Description: 6-31G(2df,p)
!        Role: orbital
!     Version: 0  (Data from the original Basis Set Exchange)
!----------------------------------------------------------------------

****
H     0
S    3   1.00
     18.7311370              0.03349460
      2.8253937              0.23472695
      0.6401217              0.81375733
S    1   1.00
      0.1612778              1.00000000
P    1   1.00
      1.5000000              1.0000000
P    1   1.00
      0.3750000              1.0000000
****
B     0
S    6   1.00
   2068.8823000              0.0018663
    310.6495700              0.0142515
     70.6830330              0.0695516
     19.8610800              0.2325729
      6.2993048              0.4670787
      2.1270270              0.3634314
SP   3   1.00
      4.7279710             -0.1303938              0.0745976
      1.1903377             -0.1307889              0.3078467
      0.3594117              1.1309444              0.7434568
SP   1   1.00
      0.1267512              1.0000000              1.0000000
D    1   1.00
      0.8020000              1.0000000
D    1   1.00
      0.2005000              1.0000000
F    1   1.00
      0.5000000              1.0000000
****
C     0
S    6   1.00
   3047.5249000              0.0018347
    457.3695100              0.0140373
    103.9486900              0.0688426
     29.2101550              0.2321844
      9.2866630              0.4679413
      3.1639270              0.3623120
SP   3   1.00
      7.8682724             -0.1193324              0.0689991
      1.8812885             -0.1608542              0.3164240
      0.5442493              1.1434564              0.7443083
SP   1   1.00
      0.1687144              1.0000000              1.0000000
D    1   1.00
      1.2520000              1.0000000
D    1   1.00
      0.3130000              1.0000000
F    1   1.00
      0.8000000              1.0000000
****
N     0
S    6   1.00
   4173.5110000              0.0018348
    627.4579000              0.0139950
    142.9021000              0.0685870
     40.2343300              0.2322410
     12.8202100              0.4690700
      4.3904370              0.3604550
SP   3   1.00
     11.6263580             -0.1149610              0.0675800
      2.7162800             -0.1691180              0.3239070
      0.7722180              1.1458520              0.7408950
SP   1   1.00
      0.2120313              1.0000000              1.0000000
D    1   1.00
      1.8260000              1.0000000
D    1   1.00
      0.4565000              1.0000000
F    1   1.00
      1.0000000              1.0000000
****
O     0
S    6   1.00
   5484.6717000              0.0018311
    825.2349500              0.0139501
    188.0469600              0.0684451
     52.9645000              0.2327143
     16.8975700              0.4701930
      5.7996353              0.3585209
SP   3   1.00
     15.5396160             -0.1107775              0.0708743
      3.5999336             -0.1480263              0.3397528
      1.0137618              1.1307670              0.7271586
SP   1   1.00
      0.2700058              1.0000000              1.0000000
D    1   1.00
      2.5840000              1.0000000
D    1   1.00
      0.6460000              1.0000000
F    1   1.00
      1.4000000              1.0000000
****
F     0
S    6   1.00
   7001.7130900              0.0018196169
   1051.3660900              0.0139160796
    239.2856900              0.0684053245
     67.3974453              0.233185760
     21.5199573              0.471267439
      7.40310130             0.356618546
SP   3   1.00
     20.8479528             -0.108506975            0.0716287243
      4.80830834            -0.146451658            0.3459121030
      1.34406986             1.128688580            0.7224699570
SP   1   1.00
      0.358151393            1.0000000              1.0000000
D    1   1.00
      3.5000000              1.0000000
D    1   1.00
      0.8750000              1.0000000
F    1   1.00
      1.8500000              1.0000000
****
Al     0
S    6   1.00
  13983.1000000              0.00194267
   2098.7500000              0.0148599
    477.7050000              0.0728494
    134.3600000              0.2468300
     42.8709000              0.4872580
     14.5189000              0.3234960
SP   6   1.00
    239.6680000             -0.00292619             0.00460285
     57.4419000             -0.0374080              0.0331990
     18.2859000             -0.1144870              0.1362820
      6.5991400              0.1156350              0.3304760
      2.4904900              0.6125950              0.4491460
      0.9445400              0.3937990              0.2657040
SP   3   1.00
      1.2779000             -0.2276060             -0.0175130
      0.3975900              0.00144583             0.2445330
      0.1600950              1.0927900              0.8049340
SP   1   1.00
      0.0556577              1.0000000              1.0000000
D    1   1.00
      0.6500000              1.0000000
D    1   1.00
      0.1625000              1.0000000
F    1   1.00
      0.2500000              1.0000000
****
Si     0
S    6   1.00
  16115.9000000              0.00195948
   2425.5800000              0.01492880
    553.8670000              0.07284780
    156.3400000              0.24613000
     50.0683000              0.48591400
     17.0178000              0.32500200
SP   6   1.00
    292.7180000             -0.00278094             0.00443826
     69.8731000             -0.03571460             0.03266790
     22.3363000             -0.11498500             0.13472100
      8.1503900              0.09356340             0.32867800
      3.1345800              0.60301700             0.44964000
      1.2254300              0.41895900             0.26137200
SP   3   1.00
      1.7273800             -0.24463000            -0.01779510
      0.5729220              0.00431572             0.25353900
      0.2221920              1.09818000             0.80066900
SP   1   1.00
      0.0778369              1.00000000             1.00000000
D    1   1.00
      0.9000000              1.0000000
D    1   1.00
      0.2250000              1.0000000
F    1   1.00
      0.3200000              1.0000000
****
P     0
S    6   1.00
  19413.3000000              0.0018516
   2909.4200000              0.0142062
    661.3640000              0.0699995
    185.7590000              0.2400790
     59.1943000              0.4847620
     20.0310000              0.3352000
SP   6   1.00
    339.4780000             -0.00278217             0.00456462
     81.0101000             -0.0360499              0.03369360
     25.8780000             -0.1166310              0.13975500
      9.4522100              0.0968328              0.33936200
      3.6656600              0.6144180              0.45092100
      1.4674600              0.4037980              0.23858600
SP   3   1.00
      2.1562300             -0.2529230             -0.01776530
      0.7489970              0.0328517              0.27405800
      0.2831450              1.0812500              0.78542100
SP   1   1.00
      0.0998317              1.0000000              1.00000000
D    1   1.00
      1.1000000              1.0000000
D    1   1.00
      0.2750000              1.0000000
F    1   1.00
      0.4500000              1.0000000
****
S     0
S    6   1.00
  21917.1000000              0.0018690
   3301.4900000              0.0142300
    754.1460000              0.0696960
    212.7110000              0.2384870
     67.9896000              0.4833070
     23.0515000              0.3380740
SP   6   1.00
    423.7350000             -0.0023767              0.0040610
    100.7100000             -0.0316930              0.0306810
     32.1599000             -0.1133170              0.1304520
     11.8079000              0.0560900              0.3272050
      4.6311000              0.5922550              0.4528510
      1.8702500              0.4550060              0.2560420
SP   3   1.00
      2.6158400             -0.2503740             -0.0145110
      0.9221670              0.0669570              0.3102630
      0.3412870              1.0545100              0.7544830
SP   1   1.00
      0.1171670              1.0000000              1.0000000
D    1   1.00
      1.3000000              1.0000000
D    1   1.00
      0.3250000              1.0000000
F    1   1.00
      0.5500000              1.0000000
****
Cl     0
S    6   1.00
  25180.1000000              0.0018330
   3780.3500000              0.0140340
    860.4740000              0.0690970
    242.1450000              0.2374520
     77.3349000              0.4830340
     26.2470000              0.3398560
SP   6   1.00
    491.7650000             -0.0022974              0.0039894
    116.9840000             -0.0307140              0.0303180
     37.4153000             -0.1125280              0.1298800
     13.7834000              0.0450160              0.3279510
      5.4521500              0.5893530              0.4535270
      2.2258800              0.4652060              0.2521540
SP   3   1.00
      3.1864900             -0.2518300             -0.0142990
      1.1442700              0.0615890              0.3235720
      0.4203770              1.0601800              0.7435070
SP   1   1.00
      0.1426570              1.0000000              1.0000000
D    1   1.00
      1.5000000              1.0000000
D    1   1.00
      0.3750000              1.0000000
F    1   1.00
      0.7000000              1.0000000
****
}

set {
reference uhf
freeze_core true
e_convergence 10
d_convergence 10
dft_spherical_points 1202
dft_radial_points 99
}

e = energy('b3lyp')

print_out('Grab this energy {0}'.format(e))
--------------------------------------------------------------------------

    Molecular point group: cs

    Geometry (in Bohr), charge = 0, multiplicity = 2:

       Center              X                  Y                   Z               Mass
    ------------   -----------------  -----------------  -----------------  -----------------
         C           -0.321453801984    -0.000002279212     0.000000000000    12.000000000000
         C            0.061014903116    -1.399967455112    -2.424803596100    12.000000000000
         C            0.060895295516     2.799939685288     0.000000000000    12.000000000000
         C            0.061014903116    -1.399967455112     2.424803596100    12.000000000000
         H            2.085285218716    -1.644213430612    -2.847640972800     1.007825032230
         H           -0.767578468884    -0.389026464712    -4.025857182700     1.007825032230
         H           -0.767741638984    -3.291922641612    -2.349872698300     1.007825032230
         H            2.085146337716     3.288333281588     0.000000000000     1.007825032230
         H           -0.767819529084     3.680981037288     1.675990940500     1.007825032230
         H           -0.767819529084     3.680981037288    -1.675990940500     1.007825032230
         H            2.085285218716    -1.644213430612     2.847640972800     1.007825032230
         H           -0.767741638984    -3.291922641612     2.349872698300     1.007825032230
         H           -0.767578468884    -0.389026464712     4.025857182700     1.007825032230

  Charge       = 0
  Multiplicity = 2
  Basis Set: ANONYMOUSBB27743B
    Blend: 6-31G_2DFP_
  Basis Set: (ANONYMOUSBB27743B AUX)
    Blend: DEF2-UNIVERSAL-JKFIT

    Orbital Energies [Eh]
    ---------------------

    Alpha Occupied:

       1Ap   -10.180177     2Ap   -10.167059     1App  -10.167059
       3Ap   -10.167013     4Ap    -0.798077     5Ap    -0.686209
       2App   -0.686208     6Ap    -0.530920     7Ap    -0.441369
       3App   -0.434595     8Ap    -0.434594     9Ap    -0.382710
       4App   -0.382708     5App   -0.363128     6App   -0.338109
      10Ap    -0.338109    11Ap    -0.168867

    Alpha Virtual:

      12Ap     0.076048    13Ap     0.134090     7App    0.134091
      14Ap     0.142413     8App    0.142414    15Ap     0.155050
      16Ap     0.178718     9App    0.178718    17Ap     0.203883
      10App    0.214546    11App    0.276364    18Ap     0.276366
      19Ap     0.399238    12App    0.399242    20Ap     0.403292
      13App    0.424049    21Ap     0.424050    22Ap     0.456779
      23Ap     0.495329    14App    0.495330    15App    0.512210
      24Ap     0.513917    25Ap     0.578681    16App    0.578689
      17App    0.591837    26Ap     0.591838    27Ap     0.602837
      28Ap     0.624501    18App    0.631406    19App    0.636173
      29Ap     0.636176    30Ap     0.663698    20App    0.663698
      31Ap     0.683813    21App    0.683815    32Ap     0.734991
      22App    0.825600    33Ap     0.825603    23App    0.854004
      24App    0.915147    34Ap     0.915153    25App    0.944276
      35Ap     0.944943    26App    0.961125    36Ap     0.961142
      37Ap     1.002403    38Ap     1.127944    27App    1.127957
      39Ap     1.143008    40Ap     1.162806    28App    1.162819
      41Ap     1.224173    42Ap     1.274903    29App    1.274906
      43Ap     1.279665    30App    1.324443    44Ap     1.324446
      45Ap     1.357363    31App    1.365841    46Ap     1.365845
      32App    1.391890    47Ap     1.403957    33App    1.403959
      34App    1.417693    48Ap     1.417699    35App    1.427836
      36App    1.491553    49Ap     1.499000    37App    1.542592
      50Ap     1.542594    51Ap     1.574468    38App    1.574470
      52Ap     1.668511    53Ap     1.740125    39App    1.740136
      54Ap     1.768499    40App    1.830649    55Ap     1.830650
      41App    1.971763    56Ap     2.018362    57Ap     2.020076
      42App    2.020081    58Ap     2.053459    43App    2.053460
      44App    2.738989    59Ap     2.738990    60Ap     2.791365
      45App    2.811238    61Ap     2.890234    46App    2.890240
      62Ap     2.895313    63Ap     2.929186    47App    2.929195
      48App    2.958783    64Ap     2.964370    49App    2.964384
      65Ap     3.034222    50App    3.071849    66Ap     3.071862
      51App    3.084694    67Ap     3.168897    52App    3.168905
      68Ap     3.180980    53App    3.284630    69Ap     3.284630
      70Ap     3.326471    54App    3.326477    71Ap     3.375810
      55App    3.490429    72Ap     3.490449    56App    3.514627
      73Ap     3.525524    57App    3.569050    74Ap     3.569071
      58App    3.575457    75Ap     3.665607    59App    3.665615
      76Ap     3.678049    60App    3.694294    77Ap     3.694310
      78Ap     3.777731    61App    3.777757    79Ap     3.790147
      80Ap     3.913217    62App    3.913224    81Ap     4.036187
      82Ap     4.110722    63App    4.110726    83Ap     4.147891
      64App    4.147899    84Ap     4.174055    85Ap     4.203925
      65App    4.204055    86Ap     4.204058    66App    4.211301
      87Ap     4.316033    67App    4.316053    68App    4.358225
      88Ap     4.423883    69App    4.423886    70App    4.440589
      71App    4.517061    89Ap     4.517062    72App    4.578896
      90Ap     4.578908    91Ap     4.618724    92Ap     4.711198
      93Ap     4.775627    73App    4.775635    74App    4.838452
      94Ap     4.961487    75App    5.002773    95Ap     5.002786
      96Ap     5.227601    76App    5.246510    97Ap     5.246510
      98Ap     5.355217    77App    5.355230    78App    5.481078

    Beta Occupied:

       1Ap   -10.167815     1App  -10.167815     2Ap   -10.167787
       3Ap   -10.166363     4Ap    -0.781371     5Ap    -0.684002
       2App   -0.684001     6Ap    -0.511933     3App   -0.430935
       7Ap    -0.430935     8Ap    -0.422031     9Ap    -0.376791
       4App   -0.376789     5App   -0.362107     6App   -0.333249
      10Ap    -0.333249

    Beta Virtual:

      11Ap    -0.025764    12Ap     0.077059    13Ap     0.134955
       7App    0.134956    14Ap     0.144295     8App    0.144295
      15Ap     0.163520    16Ap     0.182414     9App    0.182415
      10App    0.214781    17Ap     0.219238    11App    0.282680
      18Ap     0.282683    19Ap     0.400410    12App    0.400414
      20Ap     0.419688    13App    0.426865    21Ap     0.426866
      22Ap     0.468828    23Ap     0.497596    14App    0.497597
      15App    0.513949    24Ap     0.556279    25Ap     0.584239
      16App    0.584247    17App    0.597991    26Ap     0.597991
      27Ap     0.610228    28Ap     0.627947    18App    0.631566
      19App    0.639493    29Ap     0.639497    30Ap     0.667235
      20App    0.667236    31Ap     0.686462    21App    0.686463
      32Ap     0.757431    22App    0.830764    33Ap     0.830766
      23App    0.855367    24App    0.923111    34Ap     0.923118
      25App    0.946120    35Ap     0.953919    26App    0.966459
      36Ap     0.966475    37Ap     1.007585    38Ap     1.132072
      27App    1.132084    39Ap     1.156416    40Ap     1.167806
      28App    1.167819    41Ap     1.233094    42Ap     1.280515
      29App    1.280519    43Ap     1.285402    30App    1.329397
      44Ap     1.329399    45Ap     1.366808    31App    1.371018
      46Ap     1.371022    32App    1.392944    47Ap     1.407473
      33App    1.407475    34App    1.422760    48Ap     1.422767
      35App    1.428110    36App    1.492610    49Ap     1.509485
      50Ap     1.546918    37App    1.546919    38App    1.582422
      51Ap     1.582422    52Ap     1.673367    53Ap     1.745875
      39App    1.745886    54Ap     1.779314    40App    1.834536
      55Ap     1.834537    41App    1.972632    56Ap     2.026577
      42App    2.026581    57Ap     2.039721    58Ap     2.060110
      43App    2.060110    44App    2.747290    59Ap     2.747292
      45App    2.811648    60Ap     2.816519    61Ap     2.902868
      46App    2.902874    62Ap     2.925147    63Ap     2.931721
      47App    2.931731    48App    2.959842    64Ap     2.968930
      49App    2.968944    65Ap     3.042159    50App    3.081780
      66Ap     3.081792    51App    3.086512    67Ap     3.184636
      52App    3.184640    68Ap     3.188564    69Ap     3.289521
      53App    3.289521    70Ap     3.330254    54App    3.330260
      71Ap     3.383700    55App    3.493160    72Ap     3.493179
      56App    3.512986    73Ap     3.528569    57App    3.575330
      58App    3.582249    74Ap     3.582271    75Ap     3.670240
      59App    3.670251    76Ap     3.691362    60App    3.726015
      77Ap     3.726031    78Ap     3.782279    61App    3.782306
      79Ap     3.818613    80Ap     3.922992    62App    3.923000
      81Ap     4.046984    82Ap     4.117656    63App    4.117659
      83Ap     4.155030    64App    4.155039    84Ap     4.188142
      65App    4.209996    85Ap     4.209999    86Ap     4.211945
      66App    4.215755    87Ap     4.323393    67App    4.323413
      68App    4.361595    88Ap     4.432108    69App    4.432111
      70App    4.443500    71App    4.524912    89Ap     4.524914
      72App    4.589539    90Ap     4.589551    91Ap     4.626011
      92Ap     4.721454    93Ap     4.782602    73App    4.782609
      74App    4.841369    94Ap     4.966287    75App    5.006823
      95Ap     5.006836    96Ap     5.233365    76App    5.248313
      97Ap     5.248314    98Ap     5.361743    77App    5.361756
      78App    5.483409

    Final Occupation by Irrep:
             Ap   App
    DOCC [    10,    6 ]
    SOCC [     1,    0 ]

  @DF-UKS Final Energy:  -157.81309532816772

   => Energetics <=

    Nuclear Repulsion Energy =            125.4313141487992453
    One-Electron Energy =                -458.8214906183279140
    Two-Electron Energy =                 195.8843633567664710
    DFT Exchange-Correlation Energy =     -20.3072822154055181
    Empirical Dispersion Energy =           0.0000000000000000
    VV10 Nonlocal Energy =                  0.0000000000000000
    Total Energy =                       -157.8130953281677193

  UHF NO Occupations:
  HONO-2 :    9 Ap 1.9996002
  HONO-1 :   10 Ap 1.9989818
  HONO-0 :   11 Ap 1.0000000
  LUNO+0 :   12 Ap 0.0010182
  LUNO+1 :   13 Ap 0.0003998
  LUNO+2 :    7App 0.0001967
  LUNO+3 :   14 Ap 0.0001967

Computation Completed

Properties will be evaluated at   0.000000,   0.000000,   0.000000 [a0]

Properties computed using the SCF density matrix

  Nuclear Dipole Moment: [e a0]
     X:     0.8183      Y:    -0.0000      Z:    -0.0000

  Electronic Dipole Moment: [e a0]
     X:    -0.7404      Y:     0.0000      Z:     0.0000

  Dipole Moment: [e a0]
     X:     0.0779      Y:     0.0000      Z:    -0.0000     Total:     0.0779

  Dipole Moment: [D]
     X:     0.1980      Y:     0.0000      Z:    -0.0000     Total:     0.1980

*** tstop() called on n040 at Fri Nov  5 13:19:46 2021
Module time:
	user time   =     635.85 seconds =      10.60 minutes
	system time =      12.17 seconds =       0.20 minutes
	total time  =        163 seconds =       2.72 minutes
Total time:
	user time   =     635.85 seconds =      10.60 minutes
	system time =      12.17 seconds =       0.20 minutes
	total time  =        163 seconds =       2.72 minutes
Grab this energy -157.81309532816772
    Psi4 stopped on: Friday, 05 November 2021 01:19PM
    Psi4 wall time for execution: 0:02:43.09

*** Psi4 exiting successfully. Buy a developer a beer!
