                               Psi4 1.4a2.dev629

  ==> Input File <==

--------------------------------------------------------------------------
import os
memory 14 GB

molecule {
 C   -0.3233372653   -0.0053449518   -0.0010224701
 C    0.0617140936   -1.4023344276   -2.4251783081
 C    0.0611675724    2.8017032403    0.0018049523
 C    0.0604178489   -1.4011098583    2.4266666806
 H    2.0869838977   -1.6429384169   -2.8478575324
 H   -0.7647648480   -0.3876291251   -4.0262277293
 H   -0.7665219055   -3.2909063097   -2.3484083575
 H    2.0865591923    3.2887048963   -0.0006967780
 H   -0.7658468579    3.6811711844    1.6758325255
 H   -0.7655547812    3.6809941839   -1.6763892091
 H    2.0871265011   -1.6434572787    2.8473619878
 H   -0.7660074959   -3.2911745970    2.3479902573
 H   -0.7645438290   -0.3877028535    4.0261239810
units bohr
0 2
}

basis {

assign 6-31g_2dfp_

[ 6-31g_2dfp_ ]

spherical

!----------------------------------------------------------------------
! Basis Set Exchange
! Version v0.8.13
! https://www.basissetexchange.org
!----------------------------------------------------------------------
!   Basis set: 6-31G(2df,p)
! Description: 6-31G(2df,p)
!        Role: orbital
!     Version: 0  (Data from the original Basis Set Exchange)
!----------------------------------------------------------------------

****
H     0
S    3   1.00
     18.7311370              0.03349460
      2.8253937              0.23472695
      0.6401217              0.81375733
S    1   1.00
      0.1612778              1.00000000
P    1   1.00
      1.5000000              1.0000000
P    1   1.00
      0.3750000              1.0000000
****
B     0
S    6   1.00
   2068.8823000              0.0018663
    310.6495700              0.0142515
     70.6830330              0.0695516
     19.8610800              0.2325729
      6.2993048              0.4670787
      2.1270270              0.3634314
SP   3   1.00
      4.7279710             -0.1303938              0.0745976
      1.1903377             -0.1307889              0.3078467
      0.3594117              1.1309444              0.7434568
SP   1   1.00
      0.1267512              1.0000000              1.0000000
D    1   1.00
      0.8020000              1.0000000
D    1   1.00
      0.2005000              1.0000000
F    1   1.00
      0.5000000              1.0000000
****
C     0
S    6   1.00
   3047.5249000              0.0018347
    457.3695100              0.0140373
    103.9486900              0.0688426
     29.2101550              0.2321844
      9.2866630              0.4679413
      3.1639270              0.3623120
SP   3   1.00
      7.8682724             -0.1193324              0.0689991
      1.8812885             -0.1608542              0.3164240
      0.5442493              1.1434564              0.7443083
SP   1   1.00
      0.1687144              1.0000000              1.0000000
D    1   1.00
      1.2520000              1.0000000
D    1   1.00
      0.3130000              1.0000000
F    1   1.00
      0.8000000              1.0000000
****
N     0
S    6   1.00
   4173.5110000              0.0018348
    627.4579000              0.0139950
    142.9021000              0.0685870
     40.2343300              0.2322410
     12.8202100              0.4690700
      4.3904370              0.3604550
SP   3   1.00
     11.6263580             -0.1149610              0.0675800
      2.7162800             -0.1691180              0.3239070
      0.7722180              1.1458520              0.7408950
SP   1   1.00
      0.2120313              1.0000000              1.0000000
D    1   1.00
      1.8260000              1.0000000
D    1   1.00
      0.4565000              1.0000000
F    1   1.00
      1.0000000              1.0000000
****
O     0
S    6   1.00
   5484.6717000              0.0018311
    825.2349500              0.0139501
    188.0469600              0.0684451
     52.9645000              0.2327143
     16.8975700              0.4701930
      5.7996353              0.3585209
SP   3   1.00
     15.5396160             -0.1107775              0.0708743
      3.5999336             -0.1480263              0.3397528
      1.0137618              1.1307670              0.7271586
SP   1   1.00
      0.2700058              1.0000000              1.0000000
D    1   1.00
      2.5840000              1.0000000
D    1   1.00
      0.6460000              1.0000000
F    1   1.00
      1.4000000              1.0000000
****
F     0
S    6   1.00
   7001.7130900              0.0018196169
   1051.3660900              0.0139160796
    239.2856900              0.0684053245
     67.3974453              0.233185760
     21.5199573              0.471267439
      7.40310130             0.356618546
SP   3   1.00
     20.8479528             -0.108506975            0.0716287243
      4.80830834            -0.146451658            0.3459121030
      1.34406986             1.128688580            0.7224699570
SP   1   1.00
      0.358151393            1.0000000              1.0000000
D    1   1.00
      3.5000000              1.0000000
D    1   1.00
      0.8750000              1.0000000
F    1   1.00
      1.8500000              1.0000000
****
Al     0
S    6   1.00
  13983.1000000              0.00194267
   2098.7500000              0.0148599
    477.7050000              0.0728494
    134.3600000              0.2468300
     42.8709000              0.4872580
     14.5189000              0.3234960
SP   6   1.00
    239.6680000             -0.00292619             0.00460285
     57.4419000             -0.0374080              0.0331990
     18.2859000             -0.1144870              0.1362820
      6.5991400              0.1156350              0.3304760
      2.4904900              0.6125950              0.4491460
      0.9445400              0.3937990              0.2657040
SP   3   1.00
      1.2779000             -0.2276060             -0.0175130
      0.3975900              0.00144583             0.2445330
      0.1600950              1.0927900              0.8049340
SP   1   1.00
      0.0556577              1.0000000              1.0000000
D    1   1.00
      0.6500000              1.0000000
D    1   1.00
      0.1625000              1.0000000
F    1   1.00
      0.2500000              1.0000000
****
Si     0
S    6   1.00
  16115.9000000              0.00195948
   2425.5800000              0.01492880
    553.8670000              0.07284780
    156.3400000              0.24613000
     50.0683000              0.48591400
     17.0178000              0.32500200
SP   6   1.00
    292.7180000             -0.00278094             0.00443826
     69.8731000             -0.03571460             0.03266790
     22.3363000             -0.11498500             0.13472100
      8.1503900              0.09356340             0.32867800
      3.1345800              0.60301700             0.44964000
      1.2254300              0.41895900             0.26137200
SP   3   1.00
      1.7273800             -0.24463000            -0.01779510
      0.5729220              0.00431572             0.25353900
      0.2221920              1.09818000             0.80066900
SP   1   1.00
      0.0778369              1.00000000             1.00000000
D    1   1.00
      0.9000000              1.0000000
D    1   1.00
      0.2250000              1.0000000
F    1   1.00
      0.3200000              1.0000000
****
P     0
S    6   1.00
  19413.3000000              0.0018516
   2909.4200000              0.0142062
    661.3640000              0.0699995
    185.7590000              0.2400790
     59.1943000              0.4847620
     20.0310000              0.3352000
SP   6   1.00
    339.4780000             -0.00278217             0.00456462
     81.0101000             -0.0360499              0.03369360
     25.8780000             -0.1166310              0.13975500
      9.4522100              0.0968328              0.33936200
      3.6656600              0.6144180              0.45092100
      1.4674600              0.4037980              0.23858600
SP   3   1.00
      2.1562300             -0.2529230             -0.01776530
      0.7489970              0.0328517              0.27405800
      0.2831450              1.0812500              0.78542100
SP   1   1.00
      0.0998317              1.0000000              1.00000000
D    1   1.00
      1.1000000              1.0000000
D    1   1.00
      0.2750000              1.0000000
F    1   1.00
      0.4500000              1.0000000
****
S     0
S    6   1.00
  21917.1000000              0.0018690
   3301.4900000              0.0142300
    754.1460000              0.0696960
    212.7110000              0.2384870
     67.9896000              0.4833070
     23.0515000              0.3380740
SP   6   1.00
    423.7350000             -0.0023767              0.0040610
    100.7100000             -0.0316930              0.0306810
     32.1599000             -0.1133170              0.1304520
     11.8079000              0.0560900              0.3272050
      4.6311000              0.5922550              0.4528510
      1.8702500              0.4550060              0.2560420
SP   3   1.00
      2.6158400             -0.2503740             -0.0145110
      0.9221670              0.0669570              0.3102630
      0.3412870              1.0545100              0.7544830
SP   1   1.00
      0.1171670              1.0000000              1.0000000
D    1   1.00
      1.3000000              1.0000000
D    1   1.00
      0.3250000              1.0000000
F    1   1.00
      0.5500000              1.0000000
****
Cl     0
S    6   1.00
  25180.1000000              0.0018330
   3780.3500000              0.0140340
    860.4740000              0.0690970
    242.1450000              0.2374520
     77.3349000              0.4830340
     26.2470000              0.3398560
SP   6   1.00
    491.7650000             -0.0022974              0.0039894
    116.9840000             -0.0307140              0.0303180
     37.4153000             -0.1125280              0.1298800
     13.7834000              0.0450160              0.3279510
      5.4521500              0.5893530              0.4535270
      2.2258800              0.4652060              0.2521540
SP   3   1.00
      3.1864900             -0.2518300             -0.0142990
      1.1442700              0.0615890              0.3235720
      0.4203770              1.0601800              0.7435070
SP   1   1.00
      0.1426570              1.0000000              1.0000000
D    1   1.00
      1.5000000              1.0000000
D    1   1.00
      0.3750000              1.0000000
F    1   1.00
      0.7000000              1.0000000
****
}

set {
reference uhf
freeze_core true
e_convergence 10
d_convergence 10
dft_spherical_points 1202
dft_radial_points 99
}

e = energy('b3lyp')

print_out('Grab this energy {0}'.format(e))
--------------------------------------------------------------------------

    Molecular point group: c1

    Geometry (in Bohr), charge = 0, multiplicity = 2:

       Center              X                  Y                   Z               Mass
    ------------   -----------------  -----------------  -----------------  -----------------
         C           -0.323337695668    -0.003979708300    -0.001459853071    12.000000000000
         C            0.061713663232    -1.400969184100    -2.425615691071    12.000000000000
         C            0.061167142032     2.803068483800     0.001367569329    12.000000000000
         C            0.060417418532    -1.399744614800     2.426229297629    12.000000000000
         H            2.086983467332    -1.641573173400    -2.848294915371     1.007825032230
         H           -0.764765278368    -0.386263881600    -4.026665112271     1.007825032230
         H           -0.766522335868    -3.289541066200    -2.348845740471     1.007825032230
         H            2.086558761932     3.290070139800    -0.001134160971     1.007825032230
         H           -0.765847288268     3.682536427900     1.675395142529     1.007825032230
         H           -0.765555211568     3.682359427400    -1.676826592071     1.007825032230
         H            2.087126070732    -1.642092035200     2.846924604829     1.007825032230
         H           -0.766007926268    -3.289809353500     2.347552874329     1.007825032230
         H           -0.764544259368    -0.386337610000     4.025686598029     1.007825032230

  Charge       = 0
  Multiplicity = 2
  Basis Set: ANONYMOUS786872E4
    Blend: 6-31G_2DFP_
  Basis Set: (ANONYMOUS786872E4 AUX)
    Blend: DEF2-UNIVERSAL-JKFIT

    Orbital Energies [Eh]
    ---------------------

    Alpha Occupied:

       1A    -10.180341     2A    -10.167056     3A    -10.167024
       4A    -10.166964     5A     -0.797769     6A     -0.686392
       7A     -0.685981     8A     -0.530776     9A     -0.441132
      10A     -0.434880    11A     -0.434457    12A     -0.382724
      13A     -0.382478    14A     -0.363607    15A     -0.338595
      16A     -0.337401    17A     -0.168960

    Alpha Virtual:

      18A      0.076072    19A      0.134115    20A      0.134196
      21A      0.142440    22A      0.142814    23A      0.154880
      24A      0.178727    25A      0.178830    26A      0.203543
      27A      0.214803    28A      0.275672    29A      0.276298
      30A      0.399062    31A      0.399396    32A      0.403343
      33A      0.424093    34A      0.424102    35A      0.456593
      36A      0.495329    37A      0.495450    38A      0.512160
      39A      0.513978    40A      0.578611    41A      0.579017
      42A      0.591623    43A      0.591660    44A      0.602574
      45A      0.624749    46A      0.631768    47A      0.636118
      48A      0.636400    49A      0.663301    50A      0.663524
      51A      0.683804    52A      0.683903    53A      0.734994
      54A      0.825300    55A      0.825514    56A      0.853916
      57A      0.914867    58A      0.915176    59A      0.944126
      60A      0.944619    61A      0.961114    62A      0.961471
      63A      1.003454    64A      1.127816    65A      1.128365
      66A      1.142254    67A      1.162871    68A      1.163669
      69A      1.223328    70A      1.273989    71A      1.274991
      72A      1.279351    73A      1.324244    74A      1.324470
      75A      1.355994    76A      1.365699    77A      1.366413
      78A      1.392424    79A      1.403801    80A      1.404303
      81A      1.416699    82A      1.417531    83A      1.427931
      84A      1.491490    85A      1.499081    86A      1.542658
      87A      1.543006    88A      1.574133    89A      1.574765
      90A      1.669814    91A      1.739193    92A      1.739642
      93A      1.768331    94A      1.831127    95A      1.831663
      96A      1.971727    97A      2.017976    98A      2.018660
      99A      2.019764   100A      2.051848   101A      2.053446
     102A      2.738243   103A      2.738730   104A      2.790925
     105A      2.811424   106A      2.889078   107A      2.890823
     108A      2.894935   109A      2.929068   110A      2.929926
     111A      2.958988   112A      2.964060   113A      2.964706
     114A      3.034002   115A      3.070778   116A      3.071804
     117A      3.084349   118A      3.168586   119A      3.168904
     120A      3.180675   121A      3.284942   122A      3.285681
     123A      3.326772   124A      3.327538   125A      3.375607
     126A      3.489633   127A      3.490655   128A      3.514026
     129A      3.525336   130A      3.568131   131A      3.568643
     132A      3.575151   133A      3.665988   134A      3.666749
     135A      3.679692   136A      3.694095   137A      3.694138
     138A      3.776028   139A      3.777559   140A      3.789167
     141A      3.911640   142A      3.912806   143A      4.034440
     144A      4.110976   145A      4.111760   146A      4.147130
     147A      4.149109   148A      4.173265   149A      4.202065
     150A      4.203180   151A      4.203539   152A      4.210877
     153A      4.314994   154A      4.316941   155A      4.358975
     156A      4.423841   157A      4.425016   158A      4.443471
     159A      4.516603   160A      4.517078   161A      4.577858
     162A      4.578388   163A      4.617835   164A      4.709471
     165A      4.774038   166A      4.775176   167A      4.836899
     168A      4.962823   169A      5.002588   170A      5.003363
     171A      5.228034   172A      5.246590   173A      5.247062
     174A      5.354940   175A      5.356069   176A      5.479351

    Beta Occupied:

       1A    -10.167808     2A    -10.167785     3A    -10.167730
       4A    -10.166519     5A     -0.781094     6A     -0.684182
       7A     -0.683796     8A     -0.511747     9A     -0.431258
      10A     -0.430832    11A     -0.421818    12A     -0.376776
      13A     -0.376598    14A     -0.362590    15A     -0.333727
      16A     -0.332515

    Beta Virtual:

      17A     -0.025742    18A      0.077081    19A      0.134995
      20A      0.135095    21A      0.144326    22A      0.144670
      23A      0.163339    24A      0.182406    25A      0.182493
      26A      0.215032    27A      0.218926    28A      0.282057
      29A      0.282609    30A      0.400233    31A      0.400563
      32A      0.419789    33A      0.426896    34A      0.426922
      35A      0.468500    36A      0.497589    37A      0.497711
      38A      0.513895    39A      0.556321    40A      0.584141
      41A      0.584591    42A      0.597792    43A      0.597848
      44A      0.609997    45A      0.628124    46A      0.631927
      47A      0.639389    48A      0.639700    49A      0.666865
      50A      0.667088    51A      0.686437    52A      0.686540
      53A      0.757517    54A      0.830473    55A      0.830678
      56A      0.855269    57A      0.922818    58A      0.923168
      59A      0.945963    60A      0.953547    61A      0.966416
      62A      0.966781    63A      1.008694    64A      1.131889
      65A      1.132367    66A      1.155607    67A      1.167949
      68A      1.168744    69A      1.232300    70A      1.279623
      71A      1.280552    72A      1.285105    73A      1.329237
      74A      1.329456    75A      1.365410    76A      1.370959
      77A      1.371641    78A      1.393484    79A      1.407243
      80A      1.407787    81A      1.421767    82A      1.422557
      83A      1.428207    84A      1.492539    85A      1.509524
      86A      1.547054    87A      1.547427    88A      1.582013
      89A      1.582628    90A      1.674662    91A      1.744951
      92A      1.745408    93A      1.779108    94A      1.834969
      95A      1.835532    96A      1.972587    97A      2.024748
      98A      2.026146    99A      2.039678   100A      2.058562
     101A      2.060169   102A      2.746550   103A      2.747094
     104A      2.811836   105A      2.816061   106A      2.901830
     107A      2.903444   108A      2.924640   109A      2.931489
     110A      2.932474   111A      2.960054   112A      2.968611
     113A      2.969239   114A      3.041936   115A      3.080758
     116A      3.081644   117A      3.086165   118A      3.184178
     119A      3.184678   120A      3.188492   121A      3.289791
     122A      3.290429   123A      3.330572   124A      3.331347
     125A      3.383426   126A      3.492352   127A      3.493389
     128A      3.512396   129A      3.528382   130A      3.574989
     131A      3.581536   132A      3.581944   133A      3.670736
     134A      3.671503   135A      3.692978   136A      3.725523
     137A      3.725971   138A      3.780584   139A      3.782079
     140A      3.817681   141A      3.921448   142A      3.922637
     143A      4.045327   144A      4.117831   145A      4.118538
     146A      4.154368   147A      4.156288   148A      4.187325
     149A      4.208447   150A      4.209358   151A      4.210816
     152A      4.215356   153A      4.322370   154A      4.324444
     155A      4.362338   156A      4.432040   157A      4.433231
     158A      4.446371   159A      4.524373   160A      4.524889
     161A      4.588472   162A      4.588952   163A      4.625050
     164A      4.719818   165A      4.780961   166A      4.782160
     167A      4.839816   168A      4.967615   169A      5.006638
     170A      5.007395   171A      5.233748   172A      5.248384
     173A      5.248838   174A      5.361394   175A      5.362577
     176A      5.481672

    Final Occupation by Irrep:
              A
    DOCC [    16 ]
    SOCC [     1 ]

  @DF-UKS Final Energy:  -157.81306285813204

   => Energetics <=

    Nuclear Repulsion Energy =            125.3946948994530857
    One-Electron Energy =                -458.7490350799203043
    Two-Electron Energy =                 195.8484231600969281
    DFT Exchange-Correlation Energy =     -20.3071458377617624
    Empirical Dispersion Energy =           0.0000000000000000
    VV10 Nonlocal Energy =                  0.0000000000000000
    Total Energy =                       -157.8130628581320423

  UHF NO Occupations:
  HONO-2 :   15  A 1.9996009
  HONO-1 :   16  A 1.9989805
  HONO-0 :   17  A 1.0000000
  LUNO+0 :   18  A 0.0010195
  LUNO+1 :   19  A 0.0003991
  LUNO+2 :   20  A 0.0001987
  LUNO+3 :   21  A 0.0001964

Computation Completed

Properties will be evaluated at   0.000000,   0.000000,   0.000000 [a0]

Properties computed using the SCF density matrix

  Nuclear Dipole Moment: [e a0]
     X:     0.8272      Y:     0.0096      Z:    -0.0031

  Electronic Dipole Moment: [e a0]
     X:    -0.7493      Y:    -0.0108      Z:     0.0030

  Dipole Moment: [e a0]
     X:     0.0779      Y:    -0.0012      Z:    -0.0000     Total:     0.0779

  Dipole Moment: [D]
     X:     0.1980      Y:    -0.0031      Z:    -0.0001     Total:     0.1981

*** tstop() called on n049 at Fri Nov  5 12:02:22 2021
Module time:
	user time   =     542.72 seconds =       9.05 minutes
	system time =      12.08 seconds =       0.20 minutes
	total time  =        140 seconds =       2.33 minutes
Total time:
	user time   =     542.72 seconds =       9.05 minutes
	system time =      12.08 seconds =       0.20 minutes
	total time  =        140 seconds =       2.33 minutes
Grab this energy -157.81306285813204
    Psi4 stopped on: Friday, 05 November 2021 12:02PM
    Psi4 wall time for execution: 0:02:19.51

*** Psi4 exiting successfully. Buy a developer a beer!
