                               Psi4 1.4a2.dev629

  ==> Input File <==

--------------------------------------------------------------------------
import os
memory 14 GB

molecule {
 C   -0.3233396115    0.0002556428   -0.0004333852
 C    0.0624347034   -1.4008032588   -2.4263120214
 C    0.0589723768    2.8017678092   -0.0013895955
 C    0.0618969063   -1.4020975749    2.4257768456
 H    2.0860483045   -1.6424157069   -2.8484238657
 H   -0.7637009056   -0.3882214605   -4.0247587549
 H   -0.7673112472   -3.2936815579   -2.3484241215
 H    2.0870023826    3.2880960849   -0.0034986394
 H   -0.7682070140    3.6811691009    1.6791017220
 H   -0.7618072388    3.6793573510   -1.6743140965
 H    2.0876258202   -1.6454312453    2.8466641638
 H   -0.7647058454   -3.2899142859    2.3498496883
 H   -0.7675165079   -0.3881052122    4.0261620604
units bohr
0 2
}

basis {

assign 6-31g_2dfp_

[ 6-31g_2dfp_ ]

spherical

!----------------------------------------------------------------------
! Basis Set Exchange
! Version v0.8.13
! https://www.basissetexchange.org
!----------------------------------------------------------------------
!   Basis set: 6-31G(2df,p)
! Description: 6-31G(2df,p)
!        Role: orbital
!     Version: 0  (Data from the original Basis Set Exchange)
!----------------------------------------------------------------------

****
H     0
S    3   1.00
     18.7311370              0.03349460
      2.8253937              0.23472695
      0.6401217              0.81375733
S    1   1.00
      0.1612778              1.00000000
P    1   1.00
      1.5000000              1.0000000
P    1   1.00
      0.3750000              1.0000000
****
B     0
S    6   1.00
   2068.8823000              0.0018663
    310.6495700              0.0142515
     70.6830330              0.0695516
     19.8610800              0.2325729
      6.2993048              0.4670787
      2.1270270              0.3634314
SP   3   1.00
      4.7279710             -0.1303938              0.0745976
      1.1903377             -0.1307889              0.3078467
      0.3594117              1.1309444              0.7434568
SP   1   1.00
      0.1267512              1.0000000              1.0000000
D    1   1.00
      0.8020000              1.0000000
D    1   1.00
      0.2005000              1.0000000
F    1   1.00
      0.5000000              1.0000000
****
C     0
S    6   1.00
   3047.5249000              0.0018347
    457.3695100              0.0140373
    103.9486900              0.0688426
     29.2101550              0.2321844
      9.2866630              0.4679413
      3.1639270              0.3623120
SP   3   1.00
      7.8682724             -0.1193324              0.0689991
      1.8812885             -0.1608542              0.3164240
      0.5442493              1.1434564              0.7443083
SP   1   1.00
      0.1687144              1.0000000              1.0000000
D    1   1.00
      1.2520000              1.0000000
D    1   1.00
      0.3130000              1.0000000
F    1   1.00
      0.8000000              1.0000000
****
N     0
S    6   1.00
   4173.5110000              0.0018348
    627.4579000              0.0139950
    142.9021000              0.0685870
     40.2343300              0.2322410
     12.8202100              0.4690700
      4.3904370              0.3604550
SP   3   1.00
     11.6263580             -0.1149610              0.0675800
      2.7162800             -0.1691180              0.3239070
      0.7722180              1.1458520              0.7408950
SP   1   1.00
      0.2120313              1.0000000              1.0000000
D    1   1.00
      1.8260000              1.0000000
D    1   1.00
      0.4565000              1.0000000
F    1   1.00
      1.0000000              1.0000000
****
O     0
S    6   1.00
   5484.6717000              0.0018311
    825.2349500              0.0139501
    188.0469600              0.0684451
     52.9645000              0.2327143
     16.8975700              0.4701930
      5.7996353              0.3585209
SP   3   1.00
     15.5396160             -0.1107775              0.0708743
      3.5999336             -0.1480263              0.3397528
      1.0137618              1.1307670              0.7271586
SP   1   1.00
      0.2700058              1.0000000              1.0000000
D    1   1.00
      2.5840000              1.0000000
D    1   1.00
      0.6460000              1.0000000
F    1   1.00
      1.4000000              1.0000000
****
F     0
S    6   1.00
   7001.7130900              0.0018196169
   1051.3660900              0.0139160796
    239.2856900              0.0684053245
     67.3974453              0.233185760
     21.5199573              0.471267439
      7.40310130             0.356618546
SP   3   1.00
     20.8479528             -0.108506975            0.0716287243
      4.80830834            -0.146451658            0.3459121030
      1.34406986             1.128688580            0.7224699570
SP   1   1.00
      0.358151393            1.0000000              1.0000000
D    1   1.00
      3.5000000              1.0000000
D    1   1.00
      0.8750000              1.0000000
F    1   1.00
      1.8500000              1.0000000
****
Al     0
S    6   1.00
  13983.1000000              0.00194267
   2098.7500000              0.0148599
    477.7050000              0.0728494
    134.3600000              0.2468300
     42.8709000              0.4872580
     14.5189000              0.3234960
SP   6   1.00
    239.6680000             -0.00292619             0.00460285
     57.4419000             -0.0374080              0.0331990
     18.2859000             -0.1144870              0.1362820
      6.5991400              0.1156350              0.3304760
      2.4904900              0.6125950              0.4491460
      0.9445400              0.3937990              0.2657040
SP   3   1.00
      1.2779000             -0.2276060             -0.0175130
      0.3975900              0.00144583             0.2445330
      0.1600950              1.0927900              0.8049340
SP   1   1.00
      0.0556577              1.0000000              1.0000000
D    1   1.00
      0.6500000              1.0000000
D    1   1.00
      0.1625000              1.0000000
F    1   1.00
      0.2500000              1.0000000
****
Si     0
S    6   1.00
  16115.9000000              0.00195948
   2425.5800000              0.01492880
    553.8670000              0.07284780
    156.3400000              0.24613000
     50.0683000              0.48591400
     17.0178000              0.32500200
SP   6   1.00
    292.7180000             -0.00278094             0.00443826
     69.8731000             -0.03571460             0.03266790
     22.3363000             -0.11498500             0.13472100
      8.1503900              0.09356340             0.32867800
      3.1345800              0.60301700             0.44964000
      1.2254300              0.41895900             0.26137200
SP   3   1.00
      1.7273800             -0.24463000            -0.01779510
      0.5729220              0.00431572             0.25353900
      0.2221920              1.09818000             0.80066900
SP   1   1.00
      0.0778369              1.00000000             1.00000000
D    1   1.00
      0.9000000              1.0000000
D    1   1.00
      0.2250000              1.0000000
F    1   1.00
      0.3200000              1.0000000
****
P     0
S    6   1.00
  19413.3000000              0.0018516
   2909.4200000              0.0142062
    661.3640000              0.0699995
    185.7590000              0.2400790
     59.1943000              0.4847620
     20.0310000              0.3352000
SP   6   1.00
    339.4780000             -0.00278217             0.00456462
     81.0101000             -0.0360499              0.03369360
     25.8780000             -0.1166310              0.13975500
      9.4522100              0.0968328              0.33936200
      3.6656600              0.6144180              0.45092100
      1.4674600              0.4037980              0.23858600
SP   3   1.00
      2.1562300             -0.2529230             -0.01776530
      0.7489970              0.0328517              0.27405800
      0.2831450              1.0812500              0.78542100
SP   1   1.00
      0.0998317              1.0000000              1.00000000
D    1   1.00
      1.1000000              1.0000000
D    1   1.00
      0.2750000              1.0000000
F    1   1.00
      0.4500000              1.0000000
****
S     0
S    6   1.00
  21917.1000000              0.0018690
   3301.4900000              0.0142300
    754.1460000              0.0696960
    212.7110000              0.2384870
     67.9896000              0.4833070
     23.0515000              0.3380740
SP   6   1.00
    423.7350000             -0.0023767              0.0040610
    100.7100000             -0.0316930              0.0306810
     32.1599000             -0.1133170              0.1304520
     11.8079000              0.0560900              0.3272050
      4.6311000              0.5922550              0.4528510
      1.8702500              0.4550060              0.2560420
SP   3   1.00
      2.6158400             -0.2503740             -0.0145110
      0.9221670              0.0669570              0.3102630
      0.3412870              1.0545100              0.7544830
SP   1   1.00
      0.1171670              1.0000000              1.0000000
D    1   1.00
      1.3000000              1.0000000
D    1   1.00
      0.3250000              1.0000000
F    1   1.00
      0.5500000              1.0000000
****
Cl     0
S    6   1.00
  25180.1000000              0.0018330
   3780.3500000              0.0140340
    860.4740000              0.0690970
    242.1450000              0.2374520
     77.3349000              0.4830340
     26.2470000              0.3398560
SP   6   1.00
    491.7650000             -0.0022974              0.0039894
    116.9840000             -0.0307140              0.0303180
     37.4153000             -0.1125280              0.1298800
     13.7834000              0.0450160              0.3279510
      5.4521500              0.5893530              0.4535270
      2.2258800              0.4652060              0.2521540
SP   3   1.00
      3.1864900             -0.2518300             -0.0142990
      1.1442700              0.0615890              0.3235720
      0.4203770              1.0601800              0.7435070
SP   1   1.00
      0.1426570              1.0000000              1.0000000
D    1   1.00
      1.5000000              1.0000000
D    1   1.00
      0.3750000              1.0000000
F    1   1.00
      0.7000000              1.0000000
****
}

set {
reference uhf
freeze_core true
e_convergence 10
d_convergence 10
dft_spherical_points 1202
dft_radial_points 99
}

e = energy('b3lyp')

print_out('Grab this energy {0}'.format(e))
--------------------------------------------------------------------------

    Molecular point group: c1

    Geometry (in Bohr), charge = 0, multiplicity = 2:

       Center              X                  Y                   Z               Mass
    ------------   -----------------  -----------------  -----------------  -----------------
         C           -0.323340451239     0.000425062197     0.000020812727    12.000000000000
         C            0.062433863661    -1.400633839403    -2.425857823473    12.000000000000
         C            0.058971537061     2.801937228597    -0.000935397573    12.000000000000
         C            0.061896066561    -1.401928155503     2.426231043527    12.000000000000
         H            2.086047464761    -1.642246287503    -2.847969667773     1.007825032230
         H           -0.763701745339    -0.388052041103    -4.024304556973     1.007825032230
         H           -0.767312086939    -3.293512138503    -2.347969923573     1.007825032230
         H            2.087001542861     3.288265504297    -0.003044441473     1.007825032230
         H           -0.768207853739     3.681338520297     1.679555919927     1.007825032230
         H           -0.761808078539     3.679526770397    -1.673859898573     1.007825032230
         H            2.087624980461    -1.645261825903     2.847118361727     1.007825032230
         H           -0.764706685139    -3.289744866503     2.350303886227     1.007825032230
         H           -0.767517347639    -0.387935792803     4.026616258327     1.007825032230

  Charge       = 0
  Multiplicity = 2
  Basis Set: ANONYMOUS362AE0D1
    Blend: 6-31G_2DFP_
  Basis Set: (ANONYMOUS362AE0D1 AUX)
    Blend: DEF2-UNIVERSAL-JKFIT

    Orbital Energies [Eh]
    ---------------------

    Alpha Occupied:

       1A    -10.180342     2A    -10.167054     3A    -10.167015
       4A    -10.166976     5A     -0.797766     6A     -0.686257
       7A     -0.686119     8A     -0.530778     9A     -0.441128
      10A     -0.434880    11A     -0.434458    12A     -0.382750
      13A     -0.382448    14A     -0.363613    15A     -0.338179
      16A     -0.337816    17A     -0.168961

    Alpha Virtual:

      18A      0.076070    19A      0.134035    20A      0.134271
      21A      0.142415    22A      0.142839    23A      0.154883
      24A      0.178630    25A      0.178926    26A      0.203547
      27A      0.214803    28A      0.275862    29A      0.276109
      30A      0.398933    31A      0.399518    32A      0.403348
      33A      0.423927    34A      0.424266    35A      0.456593
      36A      0.495332    37A      0.495447    38A      0.512161
      39A      0.513979    40A      0.578710    41A      0.578924
      42A      0.591446    43A      0.591817    44A      0.602572
      45A      0.624716    46A      0.631768    47A      0.635954
      48A      0.636592    49A      0.663143    50A      0.663684
      51A      0.683608    52A      0.684112    53A      0.734995
      54A      0.825155    55A      0.825659    56A      0.853916
      57A      0.914811    58A      0.915240    59A      0.944125
      60A      0.944607    61A      0.961183    62A      0.961403
      63A      1.003455    64A      1.127809    65A      1.128416
      66A      1.142220    67A      1.163150    68A      1.163389
      69A      1.223321    70A      1.274209    71A      1.274766
      72A      1.279360    73A      1.324025    74A      1.324677
      75A      1.355982    76A      1.365628    77A      1.366481
      78A      1.392444    79A      1.403919    80A      1.404184
      81A      1.416352    82A      1.417875    83A      1.427903
      84A      1.491497    85A      1.499073    86A      1.542791
      87A      1.542877    88A      1.574194    89A      1.574707
      90A      1.669834    91A      1.738586    92A      1.740239
      93A      1.768330    94A      1.830595    95A      1.832178
      96A      1.971757    97A      2.017568    98A      2.018623
      99A      2.020193   100A      2.051995   101A      2.053302
     102A      2.738298   103A      2.738668   104A      2.790925
     105A      2.811426   106A      2.889648   107A      2.890258
     108A      2.894942   109A      2.929465   110A      2.929533
     111A      2.958961   112A      2.964282   113A      2.964509
     114A      3.034009   115A      3.070716   116A      3.071781
     117A      3.084445   118A      3.168349   119A      3.169212
     120A      3.180590   121A      3.285146   122A      3.285476
     123A      3.326750   124A      3.327575   125A      3.375628
     126A      3.489741   127A      3.490589   128A      3.514020
     129A      3.525325   130A      3.567942   131A      3.568836
     132A      3.575120   133A      3.665852   134A      3.666962
     135A      3.679639   136A      3.693890   137A      3.694379
     138A      3.776674   139A      3.776913   140A      3.789128
     141A      3.911641   142A      3.912803   143A      4.034444
     144A      4.110807   145A      4.111868   146A      4.147785
     147A      4.148386   148A      4.173338   149A      4.202097
     150A      4.202698   151A      4.203923   152A      4.210972
     153A      4.315179   154A      4.316743   155A      4.358987
     156A      4.423902   157A      4.425011   158A      4.443440
     159A      4.515355   160A      4.518331   161A      4.578052
     162A      4.578495   163A      4.617548   164A      4.709425
     165A      4.773474   166A      4.775738   167A      4.836918
     168A      4.962864   169A      5.002379   170A      5.003526
     171A      5.227592   172A      5.246748   173A      5.247281
     174A      5.354238   175A      5.356806   176A      5.479414

    Beta Occupied:

       1A    -10.167811     2A    -10.167768     3A    -10.167745
       4A    -10.166519     5A     -0.781091     6A     -0.684061
       7A     -0.683920     8A     -0.511750     9A     -0.431259
      10A     -0.430826    11A     -0.421820    12A     -0.376844
      13A     -0.376525    14A     -0.362596    15A     -0.333300
      16A     -0.332942

    Beta Virtual:

      17A     -0.025742    18A      0.077079    19A      0.134903
      20A      0.135185    21A      0.144259    22A      0.144737
      23A      0.163340    24A      0.182300    25A      0.182599
      26A      0.215033    27A      0.218930    28A      0.282212
      29A      0.282455    30A      0.400101    31A      0.400693
      32A      0.419791    33A      0.426737    34A      0.427079
      35A      0.468501    36A      0.497589    37A      0.497711
      38A      0.513896    39A      0.556325    40A      0.584265
      41A      0.584469    42A      0.597604    43A      0.598016
      44A      0.609996    45A      0.628094    46A      0.631926
      47A      0.639258    48A      0.639857    49A      0.666729
      50A      0.667226    51A      0.686260    52A      0.686731
      53A      0.757518    54A      0.830336    55A      0.830815
      56A      0.855269    57A      0.922802    58A      0.923192
      59A      0.945962    60A      0.953534    61A      0.966472
      62A      0.966728    63A      1.008695    64A      1.131826
      65A      1.132455    66A      1.155599    67A      1.168264
      68A      1.168421    69A      1.232294    70A      1.279789
      71A      1.280380    72A      1.285114    73A      1.329006
      74A      1.329673    75A      1.365397    76A      1.370912
      77A      1.371683    78A      1.393504    79A      1.407365
      80A      1.407667    81A      1.421455    82A      1.422873
      83A      1.428171    84A      1.492547    85A      1.509516
      86A      1.547189    87A      1.547296    88A      1.582092
      89A      1.582549    90A      1.674681    91A      1.744342
      92A      1.746010    93A      1.779106    94A      1.834446
      95A      1.836037    96A      1.972617    97A      2.024580
      98A      2.026269    99A      2.039701   100A      2.058717
     101A      2.060021   102A      2.746624   103A      2.747015
     104A      2.811838   105A      2.816061   106A      2.902320
     107A      2.902963   108A      2.924650   109A      2.931946
     110A      2.932011   111A      2.960038   112A      2.968812
     113A      2.969053   114A      3.041944   115A      3.080606
     116A      3.081560   117A      3.086415   118A      3.184143
     119A      3.184900   120A      3.188291   121A      3.289936
     122A      3.290285   123A      3.330517   124A      3.331415
     125A      3.383446   126A      3.492481   127A      3.493310
     128A      3.512383   129A      3.528371   130A      3.574979
     131A      3.581215   132A      3.582246   133A      3.670738
     134A      3.671565   135A      3.692946   136A      3.725617
     137A      3.725910   138A      3.781175   139A      3.781471
     140A      3.817667   141A      3.921389   142A      3.922687
     143A      4.045332   144A      4.117419   145A      4.118892
     146A      4.154768   147A      4.155833   148A      4.187376
     149A      4.208127   150A      4.209726   151A      4.210698
     152A      4.215460   153A      4.322639   154A      4.324165
     155A      4.362351   156A      4.432133   157A      4.433205
     158A      4.446326   159A      4.523143   160A      4.526122
     161A      4.588665   162A      4.589086   163A      4.624740
     164A      4.719769   165A      4.780459   166A      4.782660
     167A      4.839835   168A      4.967658   169A      5.006433
     170A      5.007550   171A      5.233202   172A      5.248539
     173A      5.249169   174A      5.360727   175A      5.363272
     176A      5.481737

    Final Occupation by Irrep:
              A
    DOCC [    16 ]
    SOCC [     1 ]

  @DF-UKS Final Energy:  -157.81305900819751

   => Energetics <=

    Nuclear Repulsion Energy =            125.3946413147539971
    One-Electron Energy =                -458.7489153556256269
    Two-Electron Energy =                 195.8483611464625938
    DFT Exchange-Correlation Energy =     -20.3071461137884590
    Empirical Dispersion Energy =           0.0000000000000000
    VV10 Nonlocal Energy =                  0.0000000000000000
    Total Energy =                       -157.8130590081975129

  UHF NO Occupations:
  HONO-2 :   15  A 1.9996009
  HONO-1 :   16  A 1.9989805
  HONO-0 :   17  A 1.0000000
  LUNO+0 :   18  A 0.0010195
  LUNO+1 :   19  A 0.0003991
  LUNO+2 :   20  A 0.0001977
  LUNO+3 :   21  A 0.0001974

Computation Completed

Properties will be evaluated at   0.000000,   0.000000,   0.000000 [a0]

Properties computed using the SCF density matrix

  Nuclear Dipole Moment: [e a0]
     X:     0.8272      Y:     0.0012      Z:     0.0032

  Electronic Dipole Moment: [e a0]
     X:    -0.7493      Y:    -0.0011      Z:    -0.0049

  Dipole Moment: [e a0]
     X:     0.0779      Y:     0.0001      Z:    -0.0017     Total:     0.0779

  Dipole Moment: [D]
     X:     0.1980      Y:     0.0003      Z:    -0.0044     Total:     0.1981

*** tstop() called on n079 at Fri Nov  5 12:33:04 2021
Module time:
	user time   =     598.28 seconds =       9.97 minutes
	system time =       5.43 seconds =       0.09 minutes
	total time  =        152 seconds =       2.53 minutes
Total time:
	user time   =     598.28 seconds =       9.97 minutes
	system time =       5.43 seconds =       0.09 minutes
	total time  =        152 seconds =       2.53 minutes
Grab this energy -157.8130590081975
    Psi4 stopped on: Friday, 05 November 2021 12:33PM
    Psi4 wall time for execution: 0:02:31.71

*** Psi4 exiting successfully. Buy a developer a beer!
