                               Psi4 1.4a2.dev629

  ==> Input File <==

--------------------------------------------------------------------------
import os
memory 14 GB

molecule {
 C   -0.3218904946   -0.0000020112    0.0000000180
 C    0.0602838774   -1.4023113192   -2.4256612670
 C    0.0601639707    2.8018531292   -0.0016013643
 C    0.0602836737   -1.3995376039    2.4272624604
 H    2.0869867980   -1.6435360742   -2.8477114941
 H   -0.7650456033   -0.3878777371   -4.0256036365
 H   -0.7656050324   -3.2918202609   -2.3491671610
 H    2.0868478632    3.2880564810    0.0006216748
 H   -0.7652865280    3.6801879120    1.6768587751
 H   -0.7656827216    3.6803196588   -1.6762551123
 H    2.0869867647   -1.6446128726    2.8470898707
 H   -0.7652087542   -3.2922772273    2.3487512515
 H   -0.7654416903   -0.3884663882    4.0254159848
units bohr
0 2
}

basis {

assign 6-31g_2dfp_

[ 6-31g_2dfp_ ]

spherical

!----------------------------------------------------------------------
! Basis Set Exchange
! Version v0.8.13
! https://www.basissetexchange.org
!----------------------------------------------------------------------
!   Basis set: 6-31G(2df,p)
! Description: 6-31G(2df,p)
!        Role: orbital
!     Version: 0  (Data from the original Basis Set Exchange)
!----------------------------------------------------------------------

****
H     0
S    3   1.00
     18.7311370              0.03349460
      2.8253937              0.23472695
      0.6401217              0.81375733
S    1   1.00
      0.1612778              1.00000000
P    1   1.00
      1.5000000              1.0000000
P    1   1.00
      0.3750000              1.0000000
****
B     0
S    6   1.00
   2068.8823000              0.0018663
    310.6495700              0.0142515
     70.6830330              0.0695516
     19.8610800              0.2325729
      6.2993048              0.4670787
      2.1270270              0.3634314
SP   3   1.00
      4.7279710             -0.1303938              0.0745976
      1.1903377             -0.1307889              0.3078467
      0.3594117              1.1309444              0.7434568
SP   1   1.00
      0.1267512              1.0000000              1.0000000
D    1   1.00
      0.8020000              1.0000000
D    1   1.00
      0.2005000              1.0000000
F    1   1.00
      0.5000000              1.0000000
****
C     0
S    6   1.00
   3047.5249000              0.0018347
    457.3695100              0.0140373
    103.9486900              0.0688426
     29.2101550              0.2321844
      9.2866630              0.4679413
      3.1639270              0.3623120
SP   3   1.00
      7.8682724             -0.1193324              0.0689991
      1.8812885             -0.1608542              0.3164240
      0.5442493              1.1434564              0.7443083
SP   1   1.00
      0.1687144              1.0000000              1.0000000
D    1   1.00
      1.2520000              1.0000000
D    1   1.00
      0.3130000              1.0000000
F    1   1.00
      0.8000000              1.0000000
****
N     0
S    6   1.00
   4173.5110000              0.0018348
    627.4579000              0.0139950
    142.9021000              0.0685870
     40.2343300              0.2322410
     12.8202100              0.4690700
      4.3904370              0.3604550
SP   3   1.00
     11.6263580             -0.1149610              0.0675800
      2.7162800             -0.1691180              0.3239070
      0.7722180              1.1458520              0.7408950
SP   1   1.00
      0.2120313              1.0000000              1.0000000
D    1   1.00
      1.8260000              1.0000000
D    1   1.00
      0.4565000              1.0000000
F    1   1.00
      1.0000000              1.0000000
****
O     0
S    6   1.00
   5484.6717000              0.0018311
    825.2349500              0.0139501
    188.0469600              0.0684451
     52.9645000              0.2327143
     16.8975700              0.4701930
      5.7996353              0.3585209
SP   3   1.00
     15.5396160             -0.1107775              0.0708743
      3.5999336             -0.1480263              0.3397528
      1.0137618              1.1307670              0.7271586
SP   1   1.00
      0.2700058              1.0000000              1.0000000
D    1   1.00
      2.5840000              1.0000000
D    1   1.00
      0.6460000              1.0000000
F    1   1.00
      1.4000000              1.0000000
****
F     0
S    6   1.00
   7001.7130900              0.0018196169
   1051.3660900              0.0139160796
    239.2856900              0.0684053245
     67.3974453              0.233185760
     21.5199573              0.471267439
      7.40310130             0.356618546
SP   3   1.00
     20.8479528             -0.108506975            0.0716287243
      4.80830834            -0.146451658            0.3459121030
      1.34406986             1.128688580            0.7224699570
SP   1   1.00
      0.358151393            1.0000000              1.0000000
D    1   1.00
      3.5000000              1.0000000
D    1   1.00
      0.8750000              1.0000000
F    1   1.00
      1.8500000              1.0000000
****
Al     0
S    6   1.00
  13983.1000000              0.00194267
   2098.7500000              0.0148599
    477.7050000              0.0728494
    134.3600000              0.2468300
     42.8709000              0.4872580
     14.5189000              0.3234960
SP   6   1.00
    239.6680000             -0.00292619             0.00460285
     57.4419000             -0.0374080              0.0331990
     18.2859000             -0.1144870              0.1362820
      6.5991400              0.1156350              0.3304760
      2.4904900              0.6125950              0.4491460
      0.9445400              0.3937990              0.2657040
SP   3   1.00
      1.2779000             -0.2276060             -0.0175130
      0.3975900              0.00144583             0.2445330
      0.1600950              1.0927900              0.8049340
SP   1   1.00
      0.0556577              1.0000000              1.0000000
D    1   1.00
      0.6500000              1.0000000
D    1   1.00
      0.1625000              1.0000000
F    1   1.00
      0.2500000              1.0000000
****
Si     0
S    6   1.00
  16115.9000000              0.00195948
   2425.5800000              0.01492880
    553.8670000              0.07284780
    156.3400000              0.24613000
     50.0683000              0.48591400
     17.0178000              0.32500200
SP   6   1.00
    292.7180000             -0.00278094             0.00443826
     69.8731000             -0.03571460             0.03266790
     22.3363000             -0.11498500             0.13472100
      8.1503900              0.09356340             0.32867800
      3.1345800              0.60301700             0.44964000
      1.2254300              0.41895900             0.26137200
SP   3   1.00
      1.7273800             -0.24463000            -0.01779510
      0.5729220              0.00431572             0.25353900
      0.2221920              1.09818000             0.80066900
SP   1   1.00
      0.0778369              1.00000000             1.00000000
D    1   1.00
      0.9000000              1.0000000
D    1   1.00
      0.2250000              1.0000000
F    1   1.00
      0.3200000              1.0000000
****
P     0
S    6   1.00
  19413.3000000              0.0018516
   2909.4200000              0.0142062
    661.3640000              0.0699995
    185.7590000              0.2400790
     59.1943000              0.4847620
     20.0310000              0.3352000
SP   6   1.00
    339.4780000             -0.00278217             0.00456462
     81.0101000             -0.0360499              0.03369360
     25.8780000             -0.1166310              0.13975500
      9.4522100              0.0968328              0.33936200
      3.6656600              0.6144180              0.45092100
      1.4674600              0.4037980              0.23858600
SP   3   1.00
      2.1562300             -0.2529230             -0.01776530
      0.7489970              0.0328517              0.27405800
      0.2831450              1.0812500              0.78542100
SP   1   1.00
      0.0998317              1.0000000              1.00000000
D    1   1.00
      1.1000000              1.0000000
D    1   1.00
      0.2750000              1.0000000
F    1   1.00
      0.4500000              1.0000000
****
S     0
S    6   1.00
  21917.1000000              0.0018690
   3301.4900000              0.0142300
    754.1460000              0.0696960
    212.7110000              0.2384870
     67.9896000              0.4833070
     23.0515000              0.3380740
SP   6   1.00
    423.7350000             -0.0023767              0.0040610
    100.7100000             -0.0316930              0.0306810
     32.1599000             -0.1133170              0.1304520
     11.8079000              0.0560900              0.3272050
      4.6311000              0.5922550              0.4528510
      1.8702500              0.4550060              0.2560420
SP   3   1.00
      2.6158400             -0.2503740             -0.0145110
      0.9221670              0.0669570              0.3102630
      0.3412870              1.0545100              0.7544830
SP   1   1.00
      0.1171670              1.0000000              1.0000000
D    1   1.00
      1.3000000              1.0000000
D    1   1.00
      0.3250000              1.0000000
F    1   1.00
      0.5500000              1.0000000
****
Cl     0
S    6   1.00
  25180.1000000              0.0018330
   3780.3500000              0.0140340
    860.4740000              0.0690970
    242.1450000              0.2374520
     77.3349000              0.4830340
     26.2470000              0.3398560
SP   6   1.00
    491.7650000             -0.0022974              0.0039894
    116.9840000             -0.0307140              0.0303180
     37.4153000             -0.1125280              0.1298800
     13.7834000              0.0450160              0.3279510
      5.4521500              0.5893530              0.4535270
      2.2258800              0.4652060              0.2521540
SP   3   1.00
      3.1864900             -0.2518300             -0.0142990
      1.1442700              0.0615890              0.3235720
      0.4203770              1.0601800              0.7435070
SP   1   1.00
      0.1426570              1.0000000              1.0000000
D    1   1.00
      1.5000000              1.0000000
D    1   1.00
      0.3750000              1.0000000
F    1   1.00
      0.7000000              1.0000000
****
}

set {
reference uhf
freeze_core true
e_convergence 10
d_convergence 10
dft_spherical_points 1202
dft_radial_points 99
}

e = energy('b3lyp')

print_out('Grab this energy {0}'.format(e))
--------------------------------------------------------------------------

    Molecular point group: c1

    Geometry (in Bohr), charge = 0, multiplicity = 2:

       Center              X                  Y                   Z               Mass
    ------------   -----------------  -----------------  -----------------  -----------------
         C           -0.321674969460    -0.000002004592     0.000000047448    12.000000000000
         C            0.060499402540    -1.402311312592    -2.425661237552    12.000000000000
         C            0.060379495840     2.801853135808    -0.001601334852    12.000000000000
         C            0.060499198840    -1.399537597292     2.427262489848    12.000000000000
         H            2.087202323140    -1.643536067592    -2.847711464652     1.007825032230
         H           -0.764830078160    -0.387877730492    -4.025603607052     1.007825032230
         H           -0.765389507260    -3.291820254292    -2.349167131552     1.007825032230
         H            2.087063388340     3.288056487608     0.000621704248     1.007825032230
         H           -0.765071002860     3.680187918608     1.676858804548     1.007825032230
         H           -0.765467196460     3.680319665408    -1.676255082852     1.007825032230
         H            2.087202289840    -1.644612865992     2.847089900148     1.007825032230
         H           -0.764993229060    -3.292277220692     2.348751280948     1.007825032230
         H           -0.765226165160    -0.388466381592     4.025416014248     1.007825032230

  Charge       = 0
  Multiplicity = 2
  Basis Set: ANONYMOUS8537857D
    Blend: 6-31G_2DFP_
  Basis Set: (ANONYMOUS8537857D AUX)
    Blend: DEF2-UNIVERSAL-JKFIT

    Orbital Energies [Eh]
    ---------------------

    Alpha Occupied:

       1A    -10.180276     2A    -10.167039     3A    -10.167038
       4A    -10.166993     5A     -0.797781     6A     -0.686204
       7A     -0.686204     8A     -0.530770     9A     -0.441067
      10A     -0.434735    11A     -0.434735    12A     -0.382492
      13A     -0.382491    14A     -0.363737    15A     -0.338091
      16A     -0.338090    17A     -0.168778

    Alpha Virtual:

      18A      0.076069    19A      0.134159    20A      0.134159
      21A      0.142652    22A      0.142652    23A      0.154799
      24A      0.178710    25A      0.178710    26A      0.203519
      27A      0.214852    28A      0.276157    29A      0.276159
      30A      0.399247    31A      0.399251    32A      0.403424
      33A      0.424125    34A      0.424125    35A      0.456499
      36A      0.495415    37A      0.495415    38A      0.512108
      39A      0.514084    40A      0.578685    41A      0.578694
      42A      0.591606    43A      0.591608    44A      0.602352
      45A      0.624832    46A      0.631849    47A      0.636401
      48A      0.636405    49A      0.663252    50A      0.663252
      51A      0.683963    52A      0.683964    53A      0.735190
      54A      0.825461    55A      0.825464    56A      0.853914
      57A      0.915087    58A      0.915093    59A      0.944077
      60A      0.944566    61A      0.961267    62A      0.961284
      63A      1.003453    64A      1.128008    65A      1.128021
      66A      1.142203    67A      1.162832    68A      1.162844
      69A      1.223485    70A      1.274552    71A      1.274555
      72A      1.279111    73A      1.324605    74A      1.324608
      75A      1.355746    76A      1.366432    77A      1.366436
      78A      1.392458    79A      1.404007    80A      1.404009
      81A      1.416863    82A      1.416869    83A      1.427854
      84A      1.491634    85A      1.498735    86A      1.542778
      87A      1.542780    88A      1.574734    89A      1.574736
      90A      1.670092    91A      1.739654    92A      1.739666
      93A      1.768267    94A      1.831781    95A      1.831781
      96A      1.971991    97A      2.018748    98A      2.018751
      99A      2.019307   100A      2.052246   101A      2.052247
     102A      2.738680   103A      2.738681   104A      2.790718
     105A      2.811465   106A      2.890198   107A      2.890204
     108A      2.894627   109A      2.929473   110A      2.929481
     111A      2.959065   112A      2.964480   113A      2.964494
     114A      3.033655   115A      3.072120   116A      3.072134
     117A      3.084421   118A      3.168661   119A      3.168669
     120A      3.180620   121A      3.284514   122A      3.284514
     123A      3.326807   124A      3.326812   125A      3.375449
     126A      3.490382   127A      3.490402   128A      3.514163
     129A      3.524893   130A      3.568669   131A      3.568690
     132A      3.574529   133A      3.666949   134A      3.666957
     135A      3.679875   136A      3.694052   137A      3.694068
     138A      3.777080   139A      3.777106   140A      3.790382
     141A      3.912242   142A      3.912248   143A      4.034767
     144A      4.111611   145A      4.111615   146A      4.148154
     147A      4.148162   148A      4.173279   149A      4.202795
     150A      4.202799   151A      4.203009   152A      4.210793
     153A      4.315746   154A      4.315765   155A      4.358491
     156A      4.424608   157A      4.424611   158A      4.443680
     159A      4.516546   160A      4.516547   161A      4.578154
     162A      4.578167   163A      4.618026   164A      4.709130
     165A      4.774741   166A      4.774749   167A      4.838100
     168A      4.962766   169A      5.002791   170A      5.002803
     171A      5.228151   172A      5.246921   173A      5.246922
     174A      5.355774   175A      5.355787   176A      5.479717

    Beta Occupied:

       1A    -10.167794     2A    -10.167794     3A    -10.167767
       4A    -10.166458     5A     -0.781102     6A     -0.684009
       7A     -0.684009     8A     -0.511750     9A     -0.431116
      10A     -0.431116    11A     -0.421734    12A     -0.376567
      13A     -0.376566    14A     -0.362722    15A     -0.333210
      16A     -0.333210

    Beta Virtual:

      17A     -0.025641    18A      0.077082    19A      0.135059
      20A      0.135059    21A      0.144519    22A      0.144520
      23A      0.163269    24A      0.182380    25A      0.182381
      26A      0.215075    27A      0.218930    28A      0.282493
      29A      0.282495    30A      0.400417    31A      0.400421
      32A      0.419897    33A      0.426933    34A      0.426934
      35A      0.468393    36A      0.497670    37A      0.497671
      38A      0.513854    39A      0.556425    40A      0.584249
      41A      0.584257    42A      0.597780    43A      0.597781
      44A      0.609801    45A      0.628178    46A      0.632010
      47A      0.639682    48A      0.639686    49A      0.666813
      50A      0.666814    51A      0.686603    52A      0.686605
      53A      0.757693    54A      0.830626    55A      0.830628
      56A      0.855271    57A      0.923048    58A      0.923055
      59A      0.945918    60A      0.953500    61A      0.966607
      62A      0.966622    63A      1.008674    64A      1.132029
      65A      1.132041    66A      1.155614    67A      1.167907
      68A      1.167919    69A      1.232462    70A      1.280133
      71A      1.280137    72A      1.284856    73A      1.329586
      74A      1.329588    75A      1.365185    76A      1.371679
      77A      1.371683    78A      1.393525    79A      1.407474
      80A      1.407477    81A      1.421935    82A      1.421942
      83A      1.428117    84A      1.492706    85A      1.509150
      86A      1.547187    87A      1.547188    88A      1.582606
      89A      1.582606    90A      1.674922    91A      1.745418
      92A      1.745429    93A      1.779069    94A      1.835644
      95A      1.835645    96A      1.972852    97A      2.025157
      98A      2.025160    99A      2.040673   100A      2.058940
     101A      2.058941   102A      2.747015   103A      2.747017
     104A      2.811825   105A      2.815916   106A      2.902841
     107A      2.902847   108A      2.924354   109A      2.931966
     110A      2.931974   111A      2.960127   112A      2.969014
     113A      2.969028   114A      3.041630   115A      3.081992
     116A      3.082004   117A      3.086241   118A      3.184518
     119A      3.184522   120A      3.188244   121A      3.289351
     122A      3.289351   123A      3.330603   124A      3.330608
     125A      3.383258   126A      3.493094   127A      3.493114
     128A      3.512532   129A      3.527920   130A      3.574388
     131A      3.581965   132A      3.581987   133A      3.671714
     134A      3.671725   135A      3.693173   136A      3.725677
     137A      3.725693   138A      3.781566   139A      3.781592
     140A      3.818938   141A      3.922096   142A      3.922103
     143A      4.045625   144A      4.118442   145A      4.118444
     146A      4.155348   147A      4.155357   148A      4.187381
     149A      4.208734   150A      4.208737   151A      4.210964
     152A      4.215289   153A      4.323165   154A      4.323185
     155A      4.361853   156A      4.432867   157A      4.432870
     158A      4.446556   159A      4.524353   160A      4.524355
     161A      4.588723   162A      4.588735   163A      4.625227
     164A      4.719449   165A      4.781680   166A      4.781687
     167A      4.841005   168A      4.967564   169A      5.006844
     170A      5.006856   171A      5.233865   172A      5.248705
     173A      5.248706   174A      5.362246   175A      5.362259
     176A      5.482032

    Final Occupation by Irrep:
              A
    DOCC [    16 ]
    SOCC [     1 ]

  @DF-UKS Final Energy:  -157.81307904463685

   => Energetics <=

    Nuclear Repulsion Energy =            125.3970239040157111
    One-Electron Energy =                -458.7535507122523768
    Two-Electron Energy =                 195.8506585344713358
    DFT Exchange-Correlation Energy =     -20.3072107708715457
    Empirical Dispersion Energy =           0.0000000000000000
    VV10 Nonlocal Energy =                  0.0000000000000000
    Total Energy =                       -157.8130790446368508

  UHF NO Occupations:
  HONO-2 :   15  A 1.9995994
  HONO-1 :   16  A 1.9989790
  HONO-0 :   17  A 1.0000000
  LUNO+0 :   18  A 0.0010210
  LUNO+1 :   19  A 0.0004006
  LUNO+2 :   20  A 0.0001974
  LUNO+3 :   21  A 0.0001974

Computation Completed

Properties will be evaluated at   0.000000,   0.000000,   0.000000 [a0]

Properties computed using the SCF density matrix

  Nuclear Dipole Moment: [e a0]
     X:     0.8287      Y:    -0.0000      Z:     0.0000

  Electronic Dipole Moment: [e a0]
     X:    -0.7516      Y:     0.0000      Z:    -0.0000

  Dipole Moment: [e a0]
     X:     0.0771      Y:     0.0000      Z:     0.0000     Total:     0.0771

  Dipole Moment: [D]
     X:     0.1961      Y:     0.0000      Z:     0.0000     Total:     0.1961

*** tstop() called on n089 at Fri Nov  5 11:31:03 2021
Module time:
	user time   =     474.64 seconds =       7.91 minutes
	system time =       4.46 seconds =       0.07 minutes
	total time  =        121 seconds =       2.02 minutes
Total time:
	user time   =     474.64 seconds =       7.91 minutes
	system time =       4.46 seconds =       0.07 minutes
	total time  =        121 seconds =       2.02 minutes
Grab this energy -157.81307904463685
    Psi4 stopped on: Friday, 05 November 2021 11:31AM
    Psi4 wall time for execution: 0:02:00.51

*** Psi4 exiting successfully. Buy a developer a beer!
