                               Psi4 1.4a2.dev629

  ==> Input File <==

--------------------------------------------------------------------------
import os
memory 14 GB

molecule {
 C   -0.3233397995   -0.0007993978   -0.0000000000
 C    0.0615969857   -1.3996324800   -2.4281807781
 C    0.0601053213    2.7998829000    0.0000000000
 C    0.0615969857   -1.3996324800    2.4281807781
 H    2.0869349961   -1.6446134495   -2.8468028562
 H   -0.7657565271   -0.3883748024   -4.0251582536
 H   -0.7655583605   -3.2921167981   -2.3484783393
 H    2.0867978175    3.2886933805   -0.0000000000
 H   -0.7653027022    3.6808369318    1.6764383750
 H   -0.7653027022    3.6808369318   -1.6764383750
 H    2.0869349961   -1.6446134495    2.8468028562
 H   -0.7655583605   -3.2921167981    2.3484783393
 H   -0.7657565271   -0.3883748024    4.0251582536
units bohr
0 2
}

basis {

assign 6-31g_2dfp_

[ 6-31g_2dfp_ ]

spherical

!----------------------------------------------------------------------
! Basis Set Exchange
! Version v0.8.13
! https://www.basissetexchange.org
!----------------------------------------------------------------------
!   Basis set: 6-31G(2df,p)
! Description: 6-31G(2df,p)
!        Role: orbital
!     Version: 0  (Data from the original Basis Set Exchange)
!----------------------------------------------------------------------

****
H     0
S    3   1.00
     18.7311370              0.03349460
      2.8253937              0.23472695
      0.6401217              0.81375733
S    1   1.00
      0.1612778              1.00000000
P    1   1.00
      1.5000000              1.0000000
P    1   1.00
      0.3750000              1.0000000
****
B     0
S    6   1.00
   2068.8823000              0.0018663
    310.6495700              0.0142515
     70.6830330              0.0695516
     19.8610800              0.2325729
      6.2993048              0.4670787
      2.1270270              0.3634314
SP   3   1.00
      4.7279710             -0.1303938              0.0745976
      1.1903377             -0.1307889              0.3078467
      0.3594117              1.1309444              0.7434568
SP   1   1.00
      0.1267512              1.0000000              1.0000000
D    1   1.00
      0.8020000              1.0000000
D    1   1.00
      0.2005000              1.0000000
F    1   1.00
      0.5000000              1.0000000
****
C     0
S    6   1.00
   3047.5249000              0.0018347
    457.3695100              0.0140373
    103.9486900              0.0688426
     29.2101550              0.2321844
      9.2866630              0.4679413
      3.1639270              0.3623120
SP   3   1.00
      7.8682724             -0.1193324              0.0689991
      1.8812885             -0.1608542              0.3164240
      0.5442493              1.1434564              0.7443083
SP   1   1.00
      0.1687144              1.0000000              1.0000000
D    1   1.00
      1.2520000              1.0000000
D    1   1.00
      0.3130000              1.0000000
F    1   1.00
      0.8000000              1.0000000
****
N     0
S    6   1.00
   4173.5110000              0.0018348
    627.4579000              0.0139950
    142.9021000              0.0685870
     40.2343300              0.2322410
     12.8202100              0.4690700
      4.3904370              0.3604550
SP   3   1.00
     11.6263580             -0.1149610              0.0675800
      2.7162800             -0.1691180              0.3239070
      0.7722180              1.1458520              0.7408950
SP   1   1.00
      0.2120313              1.0000000              1.0000000
D    1   1.00
      1.8260000              1.0000000
D    1   1.00
      0.4565000              1.0000000
F    1   1.00
      1.0000000              1.0000000
****
O     0
S    6   1.00
   5484.6717000              0.0018311
    825.2349500              0.0139501
    188.0469600              0.0684451
     52.9645000              0.2327143
     16.8975700              0.4701930
      5.7996353              0.3585209
SP   3   1.00
     15.5396160             -0.1107775              0.0708743
      3.5999336             -0.1480263              0.3397528
      1.0137618              1.1307670              0.7271586
SP   1   1.00
      0.2700058              1.0000000              1.0000000
D    1   1.00
      2.5840000              1.0000000
D    1   1.00
      0.6460000              1.0000000
F    1   1.00
      1.4000000              1.0000000
****
F     0
S    6   1.00
   7001.7130900              0.0018196169
   1051.3660900              0.0139160796
    239.2856900              0.0684053245
     67.3974453              0.233185760
     21.5199573              0.471267439
      7.40310130             0.356618546
SP   3   1.00
     20.8479528             -0.108506975            0.0716287243
      4.80830834            -0.146451658            0.3459121030
      1.34406986             1.128688580            0.7224699570
SP   1   1.00
      0.358151393            1.0000000              1.0000000
D    1   1.00
      3.5000000              1.0000000
D    1   1.00
      0.8750000              1.0000000
F    1   1.00
      1.8500000              1.0000000
****
Al     0
S    6   1.00
  13983.1000000              0.00194267
   2098.7500000              0.0148599
    477.7050000              0.0728494
    134.3600000              0.2468300
     42.8709000              0.4872580
     14.5189000              0.3234960
SP   6   1.00
    239.6680000             -0.00292619             0.00460285
     57.4419000             -0.0374080              0.0331990
     18.2859000             -0.1144870              0.1362820
      6.5991400              0.1156350              0.3304760
      2.4904900              0.6125950              0.4491460
      0.9445400              0.3937990              0.2657040
SP   3   1.00
      1.2779000             -0.2276060             -0.0175130
      0.3975900              0.00144583             0.2445330
      0.1600950              1.0927900              0.8049340
SP   1   1.00
      0.0556577              1.0000000              1.0000000
D    1   1.00
      0.6500000              1.0000000
D    1   1.00
      0.1625000              1.0000000
F    1   1.00
      0.2500000              1.0000000
****
Si     0
S    6   1.00
  16115.9000000              0.00195948
   2425.5800000              0.01492880
    553.8670000              0.07284780
    156.3400000              0.24613000
     50.0683000              0.48591400
     17.0178000              0.32500200
SP   6   1.00
    292.7180000             -0.00278094             0.00443826
     69.8731000             -0.03571460             0.03266790
     22.3363000             -0.11498500             0.13472100
      8.1503900              0.09356340             0.32867800
      3.1345800              0.60301700             0.44964000
      1.2254300              0.41895900             0.26137200
SP   3   1.00
      1.7273800             -0.24463000            -0.01779510
      0.5729220              0.00431572             0.25353900
      0.2221920              1.09818000             0.80066900
SP   1   1.00
      0.0778369              1.00000000             1.00000000
D    1   1.00
      0.9000000              1.0000000
D    1   1.00
      0.2250000              1.0000000
F    1   1.00
      0.3200000              1.0000000
****
P     0
S    6   1.00
  19413.3000000              0.0018516
   2909.4200000              0.0142062
    661.3640000              0.0699995
    185.7590000              0.2400790
     59.1943000              0.4847620
     20.0310000              0.3352000
SP   6   1.00
    339.4780000             -0.00278217             0.00456462
     81.0101000             -0.0360499              0.03369360
     25.8780000             -0.1166310              0.13975500
      9.4522100              0.0968328              0.33936200
      3.6656600              0.6144180              0.45092100
      1.4674600              0.4037980              0.23858600
SP   3   1.00
      2.1562300             -0.2529230             -0.01776530
      0.7489970              0.0328517              0.27405800
      0.2831450              1.0812500              0.78542100
SP   1   1.00
      0.0998317              1.0000000              1.00000000
D    1   1.00
      1.1000000              1.0000000
D    1   1.00
      0.2750000              1.0000000
F    1   1.00
      0.4500000              1.0000000
****
S     0
S    6   1.00
  21917.1000000              0.0018690
   3301.4900000              0.0142300
    754.1460000              0.0696960
    212.7110000              0.2384870
     67.9896000              0.4833070
     23.0515000              0.3380740
SP   6   1.00
    423.7350000             -0.0023767              0.0040610
    100.7100000             -0.0316930              0.0306810
     32.1599000             -0.1133170              0.1304520
     11.8079000              0.0560900              0.3272050
      4.6311000              0.5922550              0.4528510
      1.8702500              0.4550060              0.2560420
SP   3   1.00
      2.6158400             -0.2503740             -0.0145110
      0.9221670              0.0669570              0.3102630
      0.3412870              1.0545100              0.7544830
SP   1   1.00
      0.1171670              1.0000000              1.0000000
D    1   1.00
      1.3000000              1.0000000
D    1   1.00
      0.3250000              1.0000000
F    1   1.00
      0.5500000              1.0000000
****
Cl     0
S    6   1.00
  25180.1000000              0.0018330
   3780.3500000              0.0140340
    860.4740000              0.0690970
    242.1450000              0.2374520
     77.3349000              0.4830340
     26.2470000              0.3398560
SP   6   1.00
    491.7650000             -0.0022974              0.0039894
    116.9840000             -0.0307140              0.0303180
     37.4153000             -0.1125280              0.1298800
     13.7834000              0.0450160              0.3279510
      5.4521500              0.5893530              0.4535270
      2.2258800              0.4652060              0.2521540
SP   3   1.00
      3.1864900             -0.2518300             -0.0142990
      1.1442700              0.0615890              0.3235720
      0.4203770              1.0601800              0.7435070
SP   1   1.00
      0.1426570              1.0000000              1.0000000
D    1   1.00
      1.5000000              1.0000000
D    1   1.00
      0.3750000              1.0000000
F    1   1.00
      0.7000000              1.0000000
****
}

set {
reference uhf
freeze_core true
e_convergence 10
d_convergence 10
dft_spherical_points 1202
dft_radial_points 99
}

e = energy('b3lyp')

print_out('Grab this energy {0}'.format(e))
--------------------------------------------------------------------------

    Molecular point group: cs

    Geometry (in Bohr), charge = 0, multiplicity = 2:

       Center              X                  Y                   Z               Mass
    ------------   -----------------  -----------------  -----------------  -----------------
         C           -0.323339698968    -0.000764018357     0.000000000000    12.000000000000
         C            0.061597086232    -1.399597100557    -2.428180778100    12.000000000000
         C            0.060105421832     2.799918279443     0.000000000000    12.000000000000
         C            0.061597086232    -1.399597100557     2.428180778100    12.000000000000
         H            2.086935096632    -1.644578070057    -2.846802856200     1.007825032230
         H           -0.765756426568    -0.388339422957    -4.025158253600     1.007825032230
         H           -0.765558259968    -3.292081418657    -2.348478339300     1.007825032230
         H            2.086797918032     3.288728759943     0.000000000000     1.007825032230
         H           -0.765302601668     3.680872311243     1.676438375000     1.007825032230
         H           -0.765302601668     3.680872311243    -1.676438375000     1.007825032230
         H            2.086935096632    -1.644578070057     2.846802856200     1.007825032230
         H           -0.765558259968    -3.292081418657     2.348478339300     1.007825032230
         H           -0.765756426568    -0.388339422957     4.025158253600     1.007825032230

  Charge       = 0
  Multiplicity = 2
  Basis Set: ANONYMOUS5ADAFA7C
    Blend: 6-31G_2DFP_
  Basis Set: (ANONYMOUS5ADAFA7C AUX)
    Blend: DEF2-UNIVERSAL-JKFIT

    Orbital Energies [Eh]
    ---------------------

    Alpha Occupied:

       1Ap   -10.180342     2Ap   -10.167037     1App  -10.167024
       3Ap   -10.166983     4Ap    -0.797766     2App   -0.686289
       5Ap    -0.686084     6Ap    -0.530776     7Ap    -0.441126
       8Ap    -0.434760     3App   -0.434581     4App   -0.382728
       9Ap    -0.382470     5App   -0.363611     6App   -0.338082
      10Ap    -0.337913    11Ap    -0.168961

    Alpha Virtual:

      12Ap     0.076072    13Ap     0.134099     7App    0.134213
      14Ap     0.142627     8App    0.142628    15Ap     0.154880
      16Ap     0.178746     9App    0.178810    17Ap     0.203546
      10App    0.214802    11App    0.275886    18Ap     0.276086
      19Ap     0.399125    12App    0.399329    20Ap     0.403344
      13App    0.424049    21Ap     0.424148    22Ap     0.456594
      14App    0.495333    23Ap     0.495445    15App    0.512160
      24Ap     0.513981    25Ap     0.578806    16App    0.578825
      26Ap     0.591555    17App    0.591714    27Ap     0.602573
      28Ap     0.624757    18App    0.631775    19App    0.636080
      29Ap     0.636417    30Ap     0.663383    20App    0.663439
      31Ap     0.683843    21App    0.683865    32Ap     0.734994
      33Ap     0.825357    22App    0.825458    23App    0.853916
      24App    0.914903    34Ap     0.915149    25App    0.944126
      35Ap     0.944612    36Ap     0.961204    26App    0.961380
      37Ap     1.003454    27App    1.128026    38Ap     1.128186
      39Ap     1.142213    28App    1.162965    40Ap     1.163590
      41Ap     1.223321    29App    1.274369    42Ap     1.274611
      43Ap     1.279359    30App    1.324346    44Ap     1.324365
      45Ap     1.355994    31App    1.365665    46Ap     1.366453
      32App    1.392405    47Ap     1.403635    33App    1.404501
      48Ap     1.416999    34App    1.417203    35App    1.427947
      36App    1.491488    49Ap     1.499081    50Ap     1.542727
      37App    1.542929    38App    1.573940    51Ap     1.574956
      52Ap     1.669808    53Ap     1.739166    39App    1.739667
      54Ap     1.768340    55Ap     1.830964    40App    1.831832
      41App    1.971719    42App    2.018106    56Ap     2.018286
      57Ap     2.020013    43App    2.051355    58Ap     2.053930
      59Ap     2.738317    44App    2.738654    60Ap     2.790923
      45App    2.811427    61Ap     2.889354    46App    2.890547
      62Ap     2.894942    63Ap     2.929390    47App    2.929605
      48App    2.958987    49App    2.964025    64Ap     2.964741
      65Ap     3.034010    66Ap     3.071019    50App    3.071546
      51App    3.084353    52App    3.168480    67Ap     3.169084
      68Ap     3.180583    69Ap     3.285106    53App    3.285521
      54App    3.326933    70Ap     3.327387    71Ap     3.375619
      55App    3.489845    72Ap     3.490456    56App    3.514021
      73Ap     3.525331    57App    3.568188    74Ap     3.568585
      58App    3.575150    75Ap     3.665496    59App    3.667289
      76Ap     3.679635    77Ap     3.694007    60App    3.694260
      61App    3.776624    78Ap     3.776975    79Ap     3.789120
      62App    3.911832    80Ap     3.912619    81Ap     4.034463
      63App    4.110993    82Ap     4.111747    64App    4.148025
      83Ap     4.148239    84Ap     4.173241    85Ap     4.202583
      65App    4.202688    86Ap     4.203525    66App    4.210859
      87Ap     4.315881    67App    4.316006    68App    4.358969
      69App    4.422954    88Ap     4.425944    70App    4.443452
      71App    4.516373    89Ap     4.517306    90Ap     4.578006
      72App    4.578540    91Ap     4.617526    92Ap     4.709454
      93Ap     4.774427    73App    4.774728    74App    4.836938
      94Ap     4.962816    95Ap     5.002570    75App    5.003373
      96Ap     5.228024    97Ap     5.246796    76App    5.246851
      77App    5.355466    98Ap     5.355538    78App    5.479350

    Beta Occupied:

       1Ap   -10.167793     1App  -10.167776     2Ap   -10.167755
       3Ap   -10.166519     4Ap    -0.781091     2App   -0.684095
       5Ap    -0.683884     6Ap    -0.511748     7Ap    -0.431143
       3App   -0.430943     8Ap    -0.421820     4App   -0.376842
       9Ap    -0.376528     5App   -0.362594     6App   -0.333204
      10Ap    -0.333038

    Beta Virtual:

      11Ap    -0.025742    12Ap     0.077081    13Ap     0.134998
       7App    0.135093     8App    0.144497    14Ap     0.144499
      15Ap     0.163339    16Ap     0.182418     9App    0.182481
      10App    0.215031    17Ap     0.218929    11App    0.282228
      18Ap     0.282439    19Ap     0.400292    12App    0.400502
      20Ap     0.419788    13App    0.426858    21Ap     0.426963
      22Ap     0.468502    14App    0.497590    23Ap     0.497711
      15App    0.513895    24Ap     0.556326    25Ap     0.584361
      16App    0.584369    26Ap     0.597726    17App    0.597904
      27Ap     0.609996    28Ap     0.628133    18App    0.631931
      19App    0.639366    29Ap     0.639701    30Ap     0.666949
      20App    0.667001    21App    0.686486    31Ap     0.686492
      32Ap     0.757517    33Ap     0.830517    22App    0.830635
      23App    0.855269    24App    0.922872    34Ap     0.923123
      25App    0.945963    35Ap     0.953541    36Ap     0.966524
      26App    0.966673    37Ap     1.008694    27App    1.132069
      38Ap     1.132207    39Ap     1.155564    28App    1.168009
      40Ap     1.168712    41Ap     1.232294    29App    1.279989
      42Ap     1.280187    43Ap     1.285111    44Ap     1.329330
      30App    1.329360    45Ap     1.365410    31App    1.370910
      46Ap     1.371693    32App    1.393469    47Ap     1.407143
      33App    1.407915    48Ap     1.422053    34App    1.422235
      35App    1.428234    36App    1.492537    49Ap     1.509524
      50Ap     1.547129    37App    1.547342    38App    1.581813
      51Ap     1.582827    52Ap     1.674655    53Ap     1.744926
      39App    1.745430    54Ap     1.779119    55Ap     1.834828
      40App    1.835679    41App    1.972580    42App    2.024516
      56Ap     2.026399    57Ap     2.039668    43App    2.058046
      58Ap     2.060668    59Ap     2.746682    44App    2.746961
      45App    2.811839    60Ap     2.816058    61Ap     2.902038
      46App    2.903242    62Ap     2.924630    63Ap     2.931838
      47App    2.932134    48App    2.960054    49App    2.968562
      64Ap     2.969287    65Ap     3.041946    66Ap     3.080926
      50App    3.081454    51App    3.086175    52App    3.184198
      67Ap     3.184874    68Ap     3.188258    69Ap     3.289908
      53App    3.290316    54App    3.330733    70Ap     3.331196
      71Ap     3.383438    55App    3.492565    72Ap     3.493193
      56App    3.512390    73Ap     3.528377    57App    3.574975
      58App    3.581590    74Ap     3.581897    75Ap     3.670121
      59App    3.672166    76Ap     3.692930    60App    3.725710
      77Ap     3.725813    61App    3.781166    78Ap     3.781484
      79Ap     3.817666    62App    3.921721    80Ap     3.922364
      81Ap     4.045350    63App    4.117706    82Ap     4.118665
      64App    4.155292    83Ap     4.155386    84Ap     4.187303
      65App    4.208625    85Ap     4.209344    86Ap     4.210667
      66App    4.215335    87Ap     4.323317    67App    4.323449
      68App    4.362333    69App    4.431202    88Ap     4.434127
      70App    4.446337    71App    4.524152    89Ap     4.525106
      90Ap     4.588647    72App    4.589103    91Ap     4.624719
      92Ap     4.719799    93Ap     4.781381    73App    4.781681
      74App    4.839855    94Ap     4.967612    95Ap     5.006624
      75App    5.007396    96Ap     5.233737    97Ap     5.248584
      76App    5.248634    77App    5.361945    98Ap     5.362020
      78App    5.481671

    Final Occupation by Irrep:
             Ap   App
    DOCC [    10,    6 ]
    SOCC [     1,    0 ]

  @DF-UKS Final Energy:  -157.81306968789170

   => Energetics <=

    Nuclear Repulsion Energy =            125.3946132010908059
    One-Electron Energy =                -458.7488911932271094
    Two-Electron Energy =                 195.8483503590363455
    DFT Exchange-Correlation Energy =     -20.3071420547917505
    Empirical Dispersion Energy =           0.0000000000000000
    VV10 Nonlocal Energy =                  0.0000000000000000
    Total Energy =                       -157.8130696878916979

  UHF NO Occupations:
  HONO-2 :    9 Ap 1.9996009
  HONO-1 :   10 Ap 1.9989805
  HONO-0 :   11 Ap 1.0000000
  LUNO+0 :   12 Ap 0.0010195
  LUNO+1 :   13 Ap 0.0003991
  LUNO+2 :   14 Ap 0.0001976
  LUNO+3 :    7App 0.0001975

Computation Completed

Properties will be evaluated at   0.000000,   0.000000,   0.000000 [a0]

Properties computed using the SCF density matrix

  Nuclear Dipole Moment: [e a0]
     X:     0.8272      Y:     0.0002      Z:    -0.0000

  Electronic Dipole Moment: [e a0]
     X:    -0.7493      Y:    -0.0004      Z:     0.0000

  Dipole Moment: [e a0]
     X:     0.0779      Y:    -0.0001      Z:    -0.0000     Total:     0.0779

  Dipole Moment: [D]
     X:     0.1980      Y:    -0.0003      Z:    -0.0000     Total:     0.1980

*** tstop() called on n041 at Fri Nov  5 11:46:05 2021
Module time:
	user time   =     632.35 seconds =      10.54 minutes
	system time =      11.83 seconds =       0.20 minutes
	total time  =        162 seconds =       2.70 minutes
Total time:
	user time   =     632.35 seconds =      10.54 minutes
	system time =      11.83 seconds =       0.20 minutes
	total time  =        162 seconds =       2.70 minutes
Grab this energy -157.8130696878917
    Psi4 stopped on: Friday, 05 November 2021 11:46AM
    Psi4 wall time for execution: 0:02:41.96

*** Psi4 exiting successfully. Buy a developer a beer!
