                               Psi4 1.4a2.dev629

  ==> Input File <==

--------------------------------------------------------------------------
import os
memory 14 GB

molecule {
 C   -0.3233642026   -0.0000020258    0.0000000190
 C    0.0610456673   -1.4012401906   -2.4254108252
 C    0.0609258682    2.8011008679   -0.0007989760
 C    0.0610455934   -1.3998563337    2.4262098147
 H    2.0900898651   -1.6452915142   -2.8463378406
 H   -0.7676046946   -0.3845650311   -4.0226985078
 H   -0.7664193946   -3.2976058540   -2.3511087401
 H    2.0899505789    3.2877442635   -0.0015852773
 H   -0.7678454732    3.6760156851    1.6782746957
 H   -0.7664971180    3.6848940592   -1.6802945325
 H    2.0900896774   -1.6425453588    2.8479222679
 H   -0.7677682467   -3.2914176612    2.3444303151
 H   -0.7662559972   -0.3872552198    4.0313975872
units bohr
0 2
}

basis {

assign 6-31g_2dfp_

[ 6-31g_2dfp_ ]

spherical

!----------------------------------------------------------------------
! Basis Set Exchange
! Version v0.8.13
! https://www.basissetexchange.org
!----------------------------------------------------------------------
!   Basis set: 6-31G(2df,p)
! Description: 6-31G(2df,p)
!        Role: orbital
!     Version: 0  (Data from the original Basis Set Exchange)
!----------------------------------------------------------------------

****
H     0
S    3   1.00
     18.7311370              0.03349460
      2.8253937              0.23472695
      0.6401217              0.81375733
S    1   1.00
      0.1612778              1.00000000
P    1   1.00
      1.5000000              1.0000000
P    1   1.00
      0.3750000              1.0000000
****
B     0
S    6   1.00
   2068.8823000              0.0018663
    310.6495700              0.0142515
     70.6830330              0.0695516
     19.8610800              0.2325729
      6.2993048              0.4670787
      2.1270270              0.3634314
SP   3   1.00
      4.7279710             -0.1303938              0.0745976
      1.1903377             -0.1307889              0.3078467
      0.3594117              1.1309444              0.7434568
SP   1   1.00
      0.1267512              1.0000000              1.0000000
D    1   1.00
      0.8020000              1.0000000
D    1   1.00
      0.2005000              1.0000000
F    1   1.00
      0.5000000              1.0000000
****
C     0
S    6   1.00
   3047.5249000              0.0018347
    457.3695100              0.0140373
    103.9486900              0.0688426
     29.2101550              0.2321844
      9.2866630              0.4679413
      3.1639270              0.3623120
SP   3   1.00
      7.8682724             -0.1193324              0.0689991
      1.8812885             -0.1608542              0.3164240
      0.5442493              1.1434564              0.7443083
SP   1   1.00
      0.1687144              1.0000000              1.0000000
D    1   1.00
      1.2520000              1.0000000
D    1   1.00
      0.3130000              1.0000000
F    1   1.00
      0.8000000              1.0000000
****
N     0
S    6   1.00
   4173.5110000              0.0018348
    627.4579000              0.0139950
    142.9021000              0.0685870
     40.2343300              0.2322410
     12.8202100              0.4690700
      4.3904370              0.3604550
SP   3   1.00
     11.6263580             -0.1149610              0.0675800
      2.7162800             -0.1691180              0.3239070
      0.7722180              1.1458520              0.7408950
SP   1   1.00
      0.2120313              1.0000000              1.0000000
D    1   1.00
      1.8260000              1.0000000
D    1   1.00
      0.4565000              1.0000000
F    1   1.00
      1.0000000              1.0000000
****
O     0
S    6   1.00
   5484.6717000              0.0018311
    825.2349500              0.0139501
    188.0469600              0.0684451
     52.9645000              0.2327143
     16.8975700              0.4701930
      5.7996353              0.3585209
SP   3   1.00
     15.5396160             -0.1107775              0.0708743
      3.5999336             -0.1480263              0.3397528
      1.0137618              1.1307670              0.7271586
SP   1   1.00
      0.2700058              1.0000000              1.0000000
D    1   1.00
      2.5840000              1.0000000
D    1   1.00
      0.6460000              1.0000000
F    1   1.00
      1.4000000              1.0000000
****
F     0
S    6   1.00
   7001.7130900              0.0018196169
   1051.3660900              0.0139160796
    239.2856900              0.0684053245
     67.3974453              0.233185760
     21.5199573              0.471267439
      7.40310130             0.356618546
SP   3   1.00
     20.8479528             -0.108506975            0.0716287243
      4.80830834            -0.146451658            0.3459121030
      1.34406986             1.128688580            0.7224699570
SP   1   1.00
      0.358151393            1.0000000              1.0000000
D    1   1.00
      3.5000000              1.0000000
D    1   1.00
      0.8750000              1.0000000
F    1   1.00
      1.8500000              1.0000000
****
Al     0
S    6   1.00
  13983.1000000              0.00194267
   2098.7500000              0.0148599
    477.7050000              0.0728494
    134.3600000              0.2468300
     42.8709000              0.4872580
     14.5189000              0.3234960
SP   6   1.00
    239.6680000             -0.00292619             0.00460285
     57.4419000             -0.0374080              0.0331990
     18.2859000             -0.1144870              0.1362820
      6.5991400              0.1156350              0.3304760
      2.4904900              0.6125950              0.4491460
      0.9445400              0.3937990              0.2657040
SP   3   1.00
      1.2779000             -0.2276060             -0.0175130
      0.3975900              0.00144583             0.2445330
      0.1600950              1.0927900              0.8049340
SP   1   1.00
      0.0556577              1.0000000              1.0000000
D    1   1.00
      0.6500000              1.0000000
D    1   1.00
      0.1625000              1.0000000
F    1   1.00
      0.2500000              1.0000000
****
Si     0
S    6   1.00
  16115.9000000              0.00195948
   2425.5800000              0.01492880
    553.8670000              0.07284780
    156.3400000              0.24613000
     50.0683000              0.48591400
     17.0178000              0.32500200
SP   6   1.00
    292.7180000             -0.00278094             0.00443826
     69.8731000             -0.03571460             0.03266790
     22.3363000             -0.11498500             0.13472100
      8.1503900              0.09356340             0.32867800
      3.1345800              0.60301700             0.44964000
      1.2254300              0.41895900             0.26137200
SP   3   1.00
      1.7273800             -0.24463000            -0.01779510
      0.5729220              0.00431572             0.25353900
      0.2221920              1.09818000             0.80066900
SP   1   1.00
      0.0778369              1.00000000             1.00000000
D    1   1.00
      0.9000000              1.0000000
D    1   1.00
      0.2250000              1.0000000
F    1   1.00
      0.3200000              1.0000000
****
P     0
S    6   1.00
  19413.3000000              0.0018516
   2909.4200000              0.0142062
    661.3640000              0.0699995
    185.7590000              0.2400790
     59.1943000              0.4847620
     20.0310000              0.3352000
SP   6   1.00
    339.4780000             -0.00278217             0.00456462
     81.0101000             -0.0360499              0.03369360
     25.8780000             -0.1166310              0.13975500
      9.4522100              0.0968328              0.33936200
      3.6656600              0.6144180              0.45092100
      1.4674600              0.4037980              0.23858600
SP   3   1.00
      2.1562300             -0.2529230             -0.01776530
      0.7489970              0.0328517              0.27405800
      0.2831450              1.0812500              0.78542100
SP   1   1.00
      0.0998317              1.0000000              1.00000000
D    1   1.00
      1.1000000              1.0000000
D    1   1.00
      0.2750000              1.0000000
F    1   1.00
      0.4500000              1.0000000
****
S     0
S    6   1.00
  21917.1000000              0.0018690
   3301.4900000              0.0142300
    754.1460000              0.0696960
    212.7110000              0.2384870
     67.9896000              0.4833070
     23.0515000              0.3380740
SP   6   1.00
    423.7350000             -0.0023767              0.0040610
    100.7100000             -0.0316930              0.0306810
     32.1599000             -0.1133170              0.1304520
     11.8079000              0.0560900              0.3272050
      4.6311000              0.5922550              0.4528510
      1.8702500              0.4550060              0.2560420
SP   3   1.00
      2.6158400             -0.2503740             -0.0145110
      0.9221670              0.0669570              0.3102630
      0.3412870              1.0545100              0.7544830
SP   1   1.00
      0.1171670              1.0000000              1.0000000
D    1   1.00
      1.3000000              1.0000000
D    1   1.00
      0.3250000              1.0000000
F    1   1.00
      0.5500000              1.0000000
****
Cl     0
S    6   1.00
  25180.1000000              0.0018330
   3780.3500000              0.0140340
    860.4740000              0.0690970
    242.1450000              0.2374520
     77.3349000              0.4830340
     26.2470000              0.3398560
SP   6   1.00
    491.7650000             -0.0022974              0.0039894
    116.9840000             -0.0307140              0.0303180
     37.4153000             -0.1125280              0.1298800
     13.7834000              0.0450160              0.3279510
      5.4521500              0.5893530              0.4535270
      2.2258800              0.4652060              0.2521540
SP   3   1.00
      3.1864900             -0.2518300             -0.0142990
      1.1442700              0.0615890              0.3235720
      0.4203770              1.0601800              0.7435070
SP   1   1.00
      0.1426570              1.0000000              1.0000000
D    1   1.00
      1.5000000              1.0000000
D    1   1.00
      0.3750000              1.0000000
F    1   1.00
      0.7000000              1.0000000
****
}

set {
reference uhf
freeze_core true
e_convergence 10
d_convergence 10
dft_spherical_points 1202
dft_radial_points 99
}

e = energy('b3lyp')

print_out('Grab this energy {0}'.format(e))
--------------------------------------------------------------------------

    Molecular point group: c1

    Geometry (in Bohr), charge = 0, multiplicity = 2:

       Center              X                  Y                   Z               Mass
    ------------   -----------------  -----------------  -----------------  -----------------
         C           -0.323305055076    -0.000002042865     0.000000012738    12.000000000000
         C            0.061104814824    -1.401240207665    -2.425410831461    12.000000000000
         C            0.060985015724     2.801100850835    -0.000798982262    12.000000000000
         C            0.061104740924    -1.399856350765     2.426209808439    12.000000000000
         H            2.090149012624    -1.645291531265    -2.846337846861     1.007825032230
         H           -0.767545547076    -0.384565048165    -4.022698514062     1.007825032230
         H           -0.766360247076    -3.297605871065    -2.351108746361     1.007825032230
         H            2.090009726424     3.287744246435    -0.001585283562     1.007825032230
         H           -0.767786325676     3.676015668035     1.678274689438     1.007825032230
         H           -0.766437970476     3.684894042135    -1.680294538762     1.007825032230
         H            2.090148824924    -1.642545375865     2.847922261639     1.007825032230
         H           -0.767709099176    -3.291417678265     2.344430308839     1.007825032230
         H           -0.766196849676    -0.387255236865     4.031397580939     1.007825032230

  Charge       = 0
  Multiplicity = 2
  Basis Set: ANONYMOUS8EB28FE7
    Blend: 6-31G_2DFP_
  Basis Set: (ANONYMOUS8EB28FE7 AUX)
    Blend: DEF2-UNIVERSAL-JKFIT

    Orbital Energies [Eh]
    ---------------------

    Alpha Occupied:

       1A    -10.180411     2A    -10.167566     3A    -10.167565
       4A    -10.167520     5A     -0.797807     6A     -0.685828
       7A     -0.685828     8A     -0.530465     9A     -0.441024
      10A     -0.434534    11A     -0.434533    12A     -0.382340
      13A     -0.382338    14A     -0.363295    15A     -0.337993
      16A     -0.337993    17A     -0.169023

    Alpha Virtual:

      18A      0.075740    19A      0.133785    20A      0.133786
      21A      0.142219    22A      0.142219    23A      0.154581
      24A      0.178272    25A      0.178272    26A      0.203638
      27A      0.214365    28A      0.275961    29A      0.275963
      30A      0.399282    31A      0.399286    32A      0.403135
      33A      0.423824    34A      0.423824    35A      0.456459
      36A      0.495166    37A      0.495167    38A      0.511891
      39A      0.513847    40A      0.578477    41A      0.578485
      42A      0.591032    43A      0.591033    44A      0.601921
      45A      0.623718    46A      0.631151    47A      0.635685
      48A      0.635689    49A      0.663078    50A      0.663078
      51A      0.683306    52A      0.683307    53A      0.734683
      54A      0.824589    55A      0.824592    56A      0.853399
      57A      0.914311    58A      0.914317    59A      0.943367
      60A      0.943943    61A      0.960631    62A      0.960647
      63A      1.003368    64A      1.127681    65A      1.127693
      66A      1.141344    67A      1.163007    68A      1.163019
      69A      1.222881    70A      1.273960    71A      1.273963
      72A      1.279799    73A      1.323642    74A      1.323644
      75A      1.355124    76A      1.365544    77A      1.365548
      78A      1.391883    79A      1.403000    80A      1.403002
      81A      1.416189    82A      1.416195    83A      1.427160
      84A      1.490606    85A      1.497726    86A      1.542313
      87A      1.542316    88A      1.574279    89A      1.574282
      90A      1.667669    91A      1.737984    92A      1.737996
      93A      1.766805    94A      1.828922    95A      1.828923
      96A      1.970099    97A      2.017223    98A      2.017846
      99A      2.017850   100A      2.051559   101A      2.051560
     102A      2.737509   103A      2.737510   104A      2.790709
     105A      2.810918   106A      2.889388   107A      2.889394
     108A      2.894863   109A      2.929113   110A      2.929121
     111A      2.958379   112A      2.963724   113A      2.963738
     114A      3.033113   115A      3.070334   116A      3.070347
     117A      3.083425   118A      3.169447   119A      3.169454
     120A      3.180288   121A      3.285341   122A      3.285341
     123A      3.327685   124A      3.327691   125A      3.376310
     126A      3.491135   127A      3.491155   128A      3.514226
     129A      3.526042   130A      3.568189   131A      3.568209
     132A      3.576821   133A      3.665640   134A      3.665649
     135A      3.677821   136A      3.693283   137A      3.693300
     138A      3.776263   139A      3.776289   140A      3.788554
     141A      3.911295   142A      3.911301   143A      4.032109
     144A      4.108898   145A      4.108902   146A      4.144806
     147A      4.144815   148A      4.170278   149A      4.201249
     150A      4.201666   151A      4.201670   152A      4.207175
     153A      4.313716   154A      4.313736   155A      4.356549
     156A      4.421879   157A      4.421882   158A      4.441411
     159A      4.514415   160A      4.514416   161A      4.576784
     162A      4.576796   163A      4.616857   164A      4.707410
     165A      4.772816   166A      4.772824   167A      4.834564
     168A      4.962115   169A      5.001860   170A      5.001873
     171A      5.222750   172A      5.241521   173A      5.241522
     174A      5.350913   175A      5.350925   176A      5.476131

    Beta Occupied:

       1A    -10.168322     2A    -10.168322     3A    -10.168291
       4A    -10.166603     5A     -0.781104     6A     -0.683633
       7A     -0.683632     8A     -0.511494     9A     -0.430896
      10A     -0.430895    11A     -0.421687    12A     -0.376417
      13A     -0.376415    14A     -0.362275    15A     -0.333126
      16A     -0.333126

    Beta Virtual:

      17A     -0.025976    18A      0.076753    19A      0.134667
      20A      0.134668    21A      0.144117    22A      0.144118
      23A      0.163103    24A      0.181952    25A      0.181953
      26A      0.214536    27A      0.219062    28A      0.282299
      29A      0.282302    30A      0.400456    31A      0.400460
      32A      0.419568    33A      0.426633    34A      0.426633
      35A      0.468385    36A      0.497428    37A      0.497429
      38A      0.513633    39A      0.556134    40A      0.584010
      41A      0.584018    42A      0.597191    43A      0.597192
      44A      0.609357    45A      0.627055    46A      0.631362
      47A      0.638993    48A      0.638997    49A      0.666636
      50A      0.666637    51A      0.685977    52A      0.685978
      53A      0.757181    54A      0.829760    55A      0.829762
      56A      0.854776    57A      0.922297    58A      0.922303
      59A      0.945316    60A      0.952741    61A      0.965945
      62A      0.965961    63A      1.008595    64A      1.131721
      65A      1.131733    66A      1.154734    67A      1.168053
      68A      1.168066    69A      1.231871    70A      1.279568
      71A      1.279572    72A      1.285565    73A      1.328605
      74A      1.328607    75A      1.364514    76A      1.370788
      77A      1.370793    78A      1.392947    79A      1.406473
      80A      1.406476    81A      1.421236    82A      1.421242
      83A      1.427439    84A      1.491650    85A      1.508167
      86A      1.546854    87A      1.546854    88A      1.582043
      89A      1.582043    90A      1.672443    91A      1.743739
      92A      1.743751    93A      1.777642    94A      1.832808
      95A      1.832809    96A      1.970965    97A      2.024266
      98A      2.024270    99A      2.038617   100A      2.058275
     101A      2.058275   102A      2.745832   103A      2.745834
     104A      2.811317   105A      2.815828   106A      2.902031
     107A      2.902036   108A      2.924532   109A      2.931642
     110A      2.931651   111A      2.959439   112A      2.968229
     113A      2.968243   114A      3.041128   115A      3.080187
     116A      3.080199   117A      3.085236   118A      3.185248
     119A      3.185252   120A      3.187908   121A      3.290193
     122A      3.290193   123A      3.331484   124A      3.331489
     125A      3.384104   126A      3.493820   127A      3.493840
     128A      3.512606   129A      3.529050   130A      3.576688
     131A      3.581500   132A      3.581522   133A      3.670129
     134A      3.670140   135A      3.691053   136A      3.725061
     137A      3.725077   138A      3.780805   139A      3.780831
     140A      3.817072   141A      3.921126   142A      3.921133
     143A      4.042873   144A      4.115637   145A      4.115638
     146A      4.152053   147A      4.152063   148A      4.184480
     149A      4.207606   150A      4.207610   151A      4.209278
     152A      4.211688   153A      4.321237   154A      4.321257
     155A      4.359923   156A      4.430125   157A      4.430128
     158A      4.444308   159A      4.522217   160A      4.522218
     161A      4.587419   162A      4.587431   163A      4.624057
     164A      4.717757   165A      4.779774   166A      4.779781
     167A      4.837478   168A      4.966935   169A      5.005919
     170A      5.005932   171A      5.228491   172A      5.243312
     173A      5.243312   174A      5.357420   175A      5.357433
     176A      5.478464

    Final Occupation by Irrep:
              A
    DOCC [    16 ]
    SOCC [     1 ]

  @DF-UKS Final Energy:  -157.81308762371967

   => Energetics <=

    Nuclear Repulsion Energy =            125.3572840489214428
    One-Electron Energy =                -458.6780874484314836
    Two-Electron Energy =                 195.8108386609622471
    DFT Exchange-Correlation Energy =     -20.3031228851718701
    Empirical Dispersion Energy =           0.0000000000000000
    VV10 Nonlocal Energy =                  0.0000000000000000
    Total Energy =                       -157.8130876237196674

  UHF NO Occupations:
  HONO-2 :   15  A 1.9995983
  HONO-1 :   16  A 1.9989811
  HONO-0 :   17  A 1.0000000
  LUNO+0 :   18  A 0.0010189
  LUNO+1 :   19  A 0.0004017
  LUNO+2 :   20  A 0.0001972
  LUNO+3 :   21  A 0.0001972

Computation Completed

Properties will be evaluated at   0.000000,   0.000000,   0.000000 [a0]

Properties computed using the SCF density matrix

  Nuclear Dipole Moment: [e a0]
     X:     0.8276      Y:    -0.0000      Z:    -0.0000

  Electronic Dipole Moment: [e a0]
     X:    -0.7503      Y:     0.0000      Z:     0.0000

  Dipole Moment: [e a0]
     X:     0.0773      Y:     0.0000      Z:     0.0000     Total:     0.0773

  Dipole Moment: [D]
     X:     0.1964      Y:     0.0000      Z:     0.0000     Total:     0.1964

*** tstop() called on n031 at Fri Nov  5 14:57:50 2021
Module time:
	user time   =     594.63 seconds =       9.91 minutes
	system time =      11.56 seconds =       0.19 minutes
	total time  =        152 seconds =       2.53 minutes
Total time:
	user time   =     594.63 seconds =       9.91 minutes
	system time =      11.56 seconds =       0.19 minutes
	total time  =        152 seconds =       2.53 minutes
Grab this energy -157.81308762371967
    Psi4 stopped on: Friday, 05 November 2021 02:57PM
    Psi4 wall time for execution: 0:02:32.49

*** Psi4 exiting successfully. Buy a developer a beer!
