                               Psi4 1.4a2.dev629

  ==> Input File <==

--------------------------------------------------------------------------
import os
memory 14 GB

molecule {
 C   -0.3233399698   -0.0002492805    0.0002567813
 C    0.0623606031   -1.4004614555   -2.4266842546
 C    0.0621326634    2.8016345428   -0.0007669650
 C    0.0588099904   -1.4011347146    2.4263117320
 H    2.0851395690   -1.6412905842   -2.8455511632
 H   -0.7676820013   -0.3902875367   -4.0276414808
 H   -0.7660431828   -3.2925945280   -2.3491099787
 H    2.0900346078    3.2942031146    0.0002352616
 H   -0.7638649621    3.6768798792    1.6765519233
 H   -0.7641411237    3.6769696879   -1.6762177074
 H    2.0854882350   -1.6410780512    2.8456595552
 H   -0.7650667821   -3.2927992758    2.3490690143
 H   -0.7664355236   -0.3898161113    4.0278872819
units bohr
0 2
}

basis {

assign 6-31g_2dfp_

[ 6-31g_2dfp_ ]

spherical

!----------------------------------------------------------------------
! Basis Set Exchange
! Version v0.8.13
! https://www.basissetexchange.org
!----------------------------------------------------------------------
!   Basis set: 6-31G(2df,p)
! Description: 6-31G(2df,p)
!        Role: orbital
!     Version: 0  (Data from the original Basis Set Exchange)
!----------------------------------------------------------------------

****
H     0
S    3   1.00
     18.7311370              0.03349460
      2.8253937              0.23472695
      0.6401217              0.81375733
S    1   1.00
      0.1612778              1.00000000
P    1   1.00
      1.5000000              1.0000000
P    1   1.00
      0.3750000              1.0000000
****
B     0
S    6   1.00
   2068.8823000              0.0018663
    310.6495700              0.0142515
     70.6830330              0.0695516
     19.8610800              0.2325729
      6.2993048              0.4670787
      2.1270270              0.3634314
SP   3   1.00
      4.7279710             -0.1303938              0.0745976
      1.1903377             -0.1307889              0.3078467
      0.3594117              1.1309444              0.7434568
SP   1   1.00
      0.1267512              1.0000000              1.0000000
D    1   1.00
      0.8020000              1.0000000
D    1   1.00
      0.2005000              1.0000000
F    1   1.00
      0.5000000              1.0000000
****
C     0
S    6   1.00
   3047.5249000              0.0018347
    457.3695100              0.0140373
    103.9486900              0.0688426
     29.2101550              0.2321844
      9.2866630              0.4679413
      3.1639270              0.3623120
SP   3   1.00
      7.8682724             -0.1193324              0.0689991
      1.8812885             -0.1608542              0.3164240
      0.5442493              1.1434564              0.7443083
SP   1   1.00
      0.1687144              1.0000000              1.0000000
D    1   1.00
      1.2520000              1.0000000
D    1   1.00
      0.3130000              1.0000000
F    1   1.00
      0.8000000              1.0000000
****
N     0
S    6   1.00
   4173.5110000              0.0018348
    627.4579000              0.0139950
    142.9021000              0.0685870
     40.2343300              0.2322410
     12.8202100              0.4690700
      4.3904370              0.3604550
SP   3   1.00
     11.6263580             -0.1149610              0.0675800
      2.7162800             -0.1691180              0.3239070
      0.7722180              1.1458520              0.7408950
SP   1   1.00
      0.2120313              1.0000000              1.0000000
D    1   1.00
      1.8260000              1.0000000
D    1   1.00
      0.4565000              1.0000000
F    1   1.00
      1.0000000              1.0000000
****
O     0
S    6   1.00
   5484.6717000              0.0018311
    825.2349500              0.0139501
    188.0469600              0.0684451
     52.9645000              0.2327143
     16.8975700              0.4701930
      5.7996353              0.3585209
SP   3   1.00
     15.5396160             -0.1107775              0.0708743
      3.5999336             -0.1480263              0.3397528
      1.0137618              1.1307670              0.7271586
SP   1   1.00
      0.2700058              1.0000000              1.0000000
D    1   1.00
      2.5840000              1.0000000
D    1   1.00
      0.6460000              1.0000000
F    1   1.00
      1.4000000              1.0000000
****
F     0
S    6   1.00
   7001.7130900              0.0018196169
   1051.3660900              0.0139160796
    239.2856900              0.0684053245
     67.3974453              0.233185760
     21.5199573              0.471267439
      7.40310130             0.356618546
SP   3   1.00
     20.8479528             -0.108506975            0.0716287243
      4.80830834            -0.146451658            0.3459121030
      1.34406986             1.128688580            0.7224699570
SP   1   1.00
      0.358151393            1.0000000              1.0000000
D    1   1.00
      3.5000000              1.0000000
D    1   1.00
      0.8750000              1.0000000
F    1   1.00
      1.8500000              1.0000000
****
Al     0
S    6   1.00
  13983.1000000              0.00194267
   2098.7500000              0.0148599
    477.7050000              0.0728494
    134.3600000              0.2468300
     42.8709000              0.4872580
     14.5189000              0.3234960
SP   6   1.00
    239.6680000             -0.00292619             0.00460285
     57.4419000             -0.0374080              0.0331990
     18.2859000             -0.1144870              0.1362820
      6.5991400              0.1156350              0.3304760
      2.4904900              0.6125950              0.4491460
      0.9445400              0.3937990              0.2657040
SP   3   1.00
      1.2779000             -0.2276060             -0.0175130
      0.3975900              0.00144583             0.2445330
      0.1600950              1.0927900              0.8049340
SP   1   1.00
      0.0556577              1.0000000              1.0000000
D    1   1.00
      0.6500000              1.0000000
D    1   1.00
      0.1625000              1.0000000
F    1   1.00
      0.2500000              1.0000000
****
Si     0
S    6   1.00
  16115.9000000              0.00195948
   2425.5800000              0.01492880
    553.8670000              0.07284780
    156.3400000              0.24613000
     50.0683000              0.48591400
     17.0178000              0.32500200
SP   6   1.00
    292.7180000             -0.00278094             0.00443826
     69.8731000             -0.03571460             0.03266790
     22.3363000             -0.11498500             0.13472100
      8.1503900              0.09356340             0.32867800
      3.1345800              0.60301700             0.44964000
      1.2254300              0.41895900             0.26137200
SP   3   1.00
      1.7273800             -0.24463000            -0.01779510
      0.5729220              0.00431572             0.25353900
      0.2221920              1.09818000             0.80066900
SP   1   1.00
      0.0778369              1.00000000             1.00000000
D    1   1.00
      0.9000000              1.0000000
D    1   1.00
      0.2250000              1.0000000
F    1   1.00
      0.3200000              1.0000000
****
P     0
S    6   1.00
  19413.3000000              0.0018516
   2909.4200000              0.0142062
    661.3640000              0.0699995
    185.7590000              0.2400790
     59.1943000              0.4847620
     20.0310000              0.3352000
SP   6   1.00
    339.4780000             -0.00278217             0.00456462
     81.0101000             -0.0360499              0.03369360
     25.8780000             -0.1166310              0.13975500
      9.4522100              0.0968328              0.33936200
      3.6656600              0.6144180              0.45092100
      1.4674600              0.4037980              0.23858600
SP   3   1.00
      2.1562300             -0.2529230             -0.01776530
      0.7489970              0.0328517              0.27405800
      0.2831450              1.0812500              0.78542100
SP   1   1.00
      0.0998317              1.0000000              1.00000000
D    1   1.00
      1.1000000              1.0000000
D    1   1.00
      0.2750000              1.0000000
F    1   1.00
      0.4500000              1.0000000
****
S     0
S    6   1.00
  21917.1000000              0.0018690
   3301.4900000              0.0142300
    754.1460000              0.0696960
    212.7110000              0.2384870
     67.9896000              0.4833070
     23.0515000              0.3380740
SP   6   1.00
    423.7350000             -0.0023767              0.0040610
    100.7100000             -0.0316930              0.0306810
     32.1599000             -0.1133170              0.1304520
     11.8079000              0.0560900              0.3272050
      4.6311000              0.5922550              0.4528510
      1.8702500              0.4550060              0.2560420
SP   3   1.00
      2.6158400             -0.2503740             -0.0145110
      0.9221670              0.0669570              0.3102630
      0.3412870              1.0545100              0.7544830
SP   1   1.00
      0.1171670              1.0000000              1.0000000
D    1   1.00
      1.3000000              1.0000000
D    1   1.00
      0.3250000              1.0000000
F    1   1.00
      0.5500000              1.0000000
****
Cl     0
S    6   1.00
  25180.1000000              0.0018330
   3780.3500000              0.0140340
    860.4740000              0.0690970
    242.1450000              0.2374520
     77.3349000              0.4830340
     26.2470000              0.3398560
SP   6   1.00
    491.7650000             -0.0022974              0.0039894
    116.9840000             -0.0307140              0.0303180
     37.4153000             -0.1125280              0.1298800
     13.7834000              0.0450160              0.3279510
      5.4521500              0.5893530              0.4535270
      2.2258800              0.4652060              0.2521540
SP   3   1.00
      3.1864900             -0.2518300             -0.0142990
      1.1442700              0.0615890              0.3235720
      0.4203770              1.0601800              0.7435070
SP   1   1.00
      0.1426570              1.0000000              1.0000000
D    1   1.00
      1.5000000              1.0000000
D    1   1.00
      0.3750000              1.0000000
F    1   1.00
      0.7000000              1.0000000
****
}

set {
reference uhf
freeze_core true
e_convergence 10
d_convergence 10
dft_spherical_points 1202
dft_radial_points 99
}

e = energy('b3lyp')

print_out('Grab this energy {0}'.format(e))
--------------------------------------------------------------------------

    Molecular point group: c1

    Geometry (in Bohr), charge = 0, multiplicity = 2:

       Center              X                  Y                   Z               Mass
    ------------   -----------------  -----------------  -----------------  -----------------
         C           -0.323340600000    -0.000208228782     0.000426796893    12.000000000000
         C            0.062359972900    -1.400420403782    -2.426514239007    12.000000000000
         C            0.062132033200     2.801675594518    -0.000596949407    12.000000000000
         C            0.058809360200    -1.401093662882     2.426481747593    12.000000000000
         H            2.085138938800    -1.641249532482    -2.845381147607     1.007825032230
         H           -0.767682631500    -0.390246484982    -4.027471465207     1.007825032230
         H           -0.766043813000    -3.292553476282    -2.348939963107     1.007825032230
         H            2.090033977600     3.294244166318     0.000405277193     1.007825032230
         H           -0.763865592300     3.676920930918     1.676721938893     1.007825032230
         H           -0.764141753900     3.677010739618    -1.676047691807     1.007825032230
         H            2.085487604800    -1.641036999482     2.845829570793     1.007825032230
         H           -0.765067412300    -3.292758224082     2.349239029893     1.007825032230
         H           -0.766436153800    -0.389775059582     4.028057297493     1.007825032230

  Charge       = 0
  Multiplicity = 2
  Basis Set: ANONYMOUSEB363B14
    Blend: 6-31G_2DFP_
  Basis Set: (ANONYMOUSEB363B14 AUX)
    Blend: DEF2-UNIVERSAL-JKFIT

    Orbital Energies [Eh]
    ---------------------

    Alpha Occupied:

       1A    -10.180342     2A    -10.167066     3A    -10.167010
       4A    -10.166969     5A     -0.797766     6A     -0.686231
       7A     -0.686143     8A     -0.530776     9A     -0.441127
      10A     -0.434803    11A     -0.434539    12A     -0.382868
      13A     -0.382328    14A     -0.363611    15A     -0.338174
      16A     -0.337823    17A     -0.168961

    Alpha Virtual:

      18A      0.076073    19A      0.134095    20A      0.134214
      21A      0.142412    22A      0.142842    23A      0.154880
      24A      0.178597    25A      0.178956    26A      0.203551
      27A      0.214802    28A      0.275927    29A      0.276044
      30A      0.399025    31A      0.399428    32A      0.403347
      33A      0.423984    34A      0.424211    35A      0.456594
      36A      0.495358    37A      0.495419    38A      0.512161
      39A      0.513981    40A      0.578665    41A      0.578958
      42A      0.591336    43A      0.591912    44A      0.602602
      45A      0.624762    46A      0.631749    47A      0.636010
      48A      0.636512    49A      0.663239    50A      0.663589
      51A      0.683665    52A      0.684039    53A      0.734994
      54A      0.825347    55A      0.825466    56A      0.853916
      57A      0.914706    58A      0.915342    59A      0.944110
      60A      0.944614    61A      0.961191    62A      0.961413
      63A      1.003451    64A      1.127698    65A      1.128520
      66A      1.142203    67A      1.163090    68A      1.163462
      69A      1.223324    70A      1.274305    71A      1.274661
      72A      1.279373    73A      1.324090    74A      1.324617
      75A      1.355968    76A      1.365756    77A      1.366366
      78A      1.392448    79A      1.403547    80A      1.404550
      81A      1.416659    82A      1.417550    83A      1.427927
      84A      1.491500    85A      1.499063    86A      1.542782
      87A      1.542886    88A      1.573940    89A      1.574971
      90A      1.669831    91A      1.738999    92A      1.739819
      93A      1.768337    94A      1.830925    95A      1.831872
      96A      1.971724    97A      2.018192    98A      2.018507
      99A      2.019701   100A      2.052048   101A      2.053233
     102A      2.738447   103A      2.738526   104A      2.790928
     105A      2.811429   106A      2.889624   107A      2.890253
     108A      2.894978   109A      2.929186   110A      2.929806
     111A      2.958990   112A      2.964180   113A      2.964578
     114A      3.034003   115A      3.070633   116A      3.071931
     117A      3.084357   118A      3.168527   119A      3.169040
     120A      3.180580   121A      3.285195   122A      3.285436
     123A      3.326276   124A      3.328055   125A      3.375619
     126A      3.489060   127A      3.491261   128A      3.514010
     129A      3.525332   130A      3.568129   131A      3.568503
     132A      3.575290   133A      3.665816   134A      3.666939
     135A      3.679661   136A      3.693462   137A      3.694769
     138A      3.776731   139A      3.776863   140A      3.789172
     141A      3.912076   142A      3.912379   143A      4.034448
     144A      4.111209   145A      4.111527   146A      4.148048
     147A      4.148185   148A      4.173245   149A      4.202118
     150A      4.202940   151A      4.203746   152A      4.210839
     153A      4.315462   154A      4.316449   155A      4.358986
     156A      4.424297   157A      4.424635   158A      4.443399
     159A      4.515606   160A      4.518052   161A      4.578065
     162A      4.578499   163A      4.617582   164A      4.709395
     165A      4.773821   166A      4.775380   167A      4.836920
     168A      4.962864   169A      5.002249   170A      5.003644
     171A      5.228074   172A      5.246261   173A      5.247362
     174A      5.355245   175A      5.355778   176A      5.479346

    Beta Occupied:

       1A    -10.167821     2A    -10.167763     3A    -10.167740
       4A    -10.166520     5A     -0.781091     6A     -0.684031
       7A     -0.683949     8A     -0.511747     9A     -0.431188
      10A     -0.430898    11A     -0.421823    12A     -0.376963
      13A     -0.376403    14A     -0.362595    15A     -0.333288
      16A     -0.332956

    Beta Virtual:

      17A     -0.025743    18A      0.077082    19A      0.134996
      20A      0.135094    21A      0.144306    22A      0.144691
      23A      0.163339    24A      0.182265    25A      0.182632
      26A      0.215031    27A      0.218932    28A      0.282275
      29A      0.282391    30A      0.400198    31A      0.400596
      32A      0.419791    33A      0.426793    34A      0.427024
      35A      0.468502    36A      0.497622    37A      0.497678
      38A      0.513897    39A      0.556325    40A      0.584213
      41A      0.584512    42A      0.597512    43A      0.598099
      44A      0.610020    45A      0.628138    46A      0.631915
      47A      0.639296    48A      0.639787    49A      0.666816
      50A      0.667140    51A      0.686307    52A      0.686667
      53A      0.757517    54A      0.830518    55A      0.830632
      56A      0.855269    57A      0.922705    58A      0.923287
      59A      0.945948    60A      0.953540    61A      0.966502
      62A      0.966714    63A      1.008691    64A      1.131756
      65A      1.132517    66A      1.155575    67A      1.168150
      68A      1.168556    69A      1.232296    70A      1.279908
      71A      1.280255    72A      1.285125    73A      1.329068
      74A      1.329618    75A      1.365370    76A      1.371007
      77A      1.371617    78A      1.393507    79A      1.407001
      80A      1.408025    81A      1.421723    82A      1.422571
      83A      1.428210    84A      1.492549    85A      1.509503
      86A      1.547122    87A      1.547369    88A      1.581736
      89A      1.582913    90A      1.674678    91A      1.744768
      92A      1.745576    93A      1.779115    94A      1.834785
      95A      1.835723    96A      1.972584    97A      2.024809
      98A      2.026089    99A      2.039678   100A      2.058772
     101A      2.059940   102A      2.746782   103A      2.746862
     104A      2.811841   105A      2.816063   106A      2.902320
     107A      2.902962   108A      2.924655   109A      2.931683
     110A      2.932273   111A      2.960057   112A      2.968723
     113A      2.969120   114A      3.041938   115A      3.080492
     116A      3.081884   117A      3.086183   118A      3.184278
     119A      3.184788   120A      3.188264   121A      3.289959
     122A      3.290269   123A      3.330088   124A      3.331852
     125A      3.383437   126A      3.491812   127A      3.493969
     128A      3.512375   129A      3.528378   130A      3.574886
     131A      3.581598   132A      3.581977   133A      3.670612
     134A      3.671640   135A      3.692948   136A      3.725324
     137A      3.726187   138A      3.781285   139A      3.781371
     140A      3.817700   141A      3.921879   142A      3.922208
     143A      4.045336   144A      4.118077   145A      4.118293
     146A      4.155165   147A      4.155483   148A      4.187305
     149A      4.208512   150A      4.209260   151A      4.210877
     152A      4.215311   153A      4.322890   154A      4.323902
     155A      4.362350   156A      4.432512   157A      4.432849
     158A      4.446283   159A      4.523404   160A      4.525835
     161A      4.588679   162A      4.589088   163A      4.624774
     164A      4.719739   165A      4.780765   166A      4.782344
     167A      4.839838   168A      4.967659   169A      5.006312
     170A      5.007660   171A      5.233789   172A      5.248047
     173A      5.249144   174A      5.361728   175A      5.362256
     176A      5.481667

    Final Occupation by Irrep:
              A
    DOCC [    16 ]
    SOCC [     1 ]

  @DF-UKS Final Energy:  -157.81306553462940

   => Energetics <=

    Nuclear Repulsion Energy =            125.3946131189163253
    One-Electron Energy =                -458.7488777972843650
    Two-Electron Energy =                 195.8483424693144741
    DFT Exchange-Correlation Energy =     -20.3071433255758222
    Empirical Dispersion Energy =           0.0000000000000000
    VV10 Nonlocal Energy =                  0.0000000000000000
    Total Energy =                       -157.8130655346294020

  UHF NO Occupations:
  HONO-2 :   15  A 1.9996008
  HONO-1 :   16  A 1.9989805
  HONO-0 :   17  A 1.0000000
  LUNO+0 :   18  A 0.0010195
  LUNO+1 :   19  A 0.0003992
  LUNO+2 :   20  A 0.0001977
  LUNO+3 :   21  A 0.0001974

Computation Completed

Properties will be evaluated at   0.000000,   0.000000,   0.000000 [a0]

Properties computed using the SCF density matrix

  Nuclear Dipole Moment: [e a0]
     X:     0.8272      Y:     0.0003      Z:     0.0012

  Electronic Dipole Moment: [e a0]
     X:    -0.7493      Y:    -0.0010      Z:    -0.0011

  Dipole Moment: [e a0]
     X:     0.0779      Y:    -0.0008      Z:     0.0001     Total:     0.0779

  Dipole Moment: [D]
     X:     0.1980      Y:    -0.0019      Z:     0.0003     Total:     0.1980

*** tstop() called on n079 at Fri Nov  5 12:21:51 2021
Module time:
	user time   =     489.87 seconds =       8.16 minutes
	system time =       4.39 seconds =       0.07 minutes
	total time  =        124 seconds =       2.07 minutes
Total time:
	user time   =     489.87 seconds =       8.16 minutes
	system time =       4.39 seconds =       0.07 minutes
	total time  =        124 seconds =       2.07 minutes
Grab this energy -157.8130655346294
    Psi4 stopped on: Friday, 05 November 2021 12:21PM
    Psi4 wall time for execution: 0:02:04.31

*** Psi4 exiting successfully. Buy a developer a beer!
