                               Psi4 1.4a2.dev629

  ==> Input File <==

--------------------------------------------------------------------------
import os
memory 14 GB

molecule {
 C   -0.3265078601   -0.0000014558   -0.0004342028
 C    0.0600841144   -1.4003194070   -2.4268043009
 C    0.0596964532    2.8019392771   -0.0013894602
 C    0.0595461781   -1.4016141737    2.4262678196
 H    2.0864824350   -1.6427189599   -2.8485498991
 H   -0.7624766089   -0.3878102582   -4.0247658816
 H   -0.7658422488   -3.2941095695   -2.3478590576
 H    2.0871320943    3.2883657004   -0.0034975710
 H   -0.7678248382    3.6809097321    1.6792948714
 H   -0.7614220686    3.6791020080   -1.6745074235
 H    2.0880587912   -1.6457395556    2.8467858642
 H   -0.7632482953   -3.2903372101    2.3492866944
 H   -0.7662860231   -0.3876904414    4.0261725470
units bohr
0 2
}

basis {

assign 6-31g_2dfp_

[ 6-31g_2dfp_ ]

spherical

!----------------------------------------------------------------------
! Basis Set Exchange
! Version v0.8.13
! https://www.basissetexchange.org
!----------------------------------------------------------------------
!   Basis set: 6-31G(2df,p)
! Description: 6-31G(2df,p)
!        Role: orbital
!     Version: 0  (Data from the original Basis Set Exchange)
!----------------------------------------------------------------------

****
H     0
S    3   1.00
     18.7311370              0.03349460
      2.8253937              0.23472695
      0.6401217              0.81375733
S    1   1.00
      0.1612778              1.00000000
P    1   1.00
      1.5000000              1.0000000
P    1   1.00
      0.3750000              1.0000000
****
B     0
S    6   1.00
   2068.8823000              0.0018663
    310.6495700              0.0142515
     70.6830330              0.0695516
     19.8610800              0.2325729
      6.2993048              0.4670787
      2.1270270              0.3634314
SP   3   1.00
      4.7279710             -0.1303938              0.0745976
      1.1903377             -0.1307889              0.3078467
      0.3594117              1.1309444              0.7434568
SP   1   1.00
      0.1267512              1.0000000              1.0000000
D    1   1.00
      0.8020000              1.0000000
D    1   1.00
      0.2005000              1.0000000
F    1   1.00
      0.5000000              1.0000000
****
C     0
S    6   1.00
   3047.5249000              0.0018347
    457.3695100              0.0140373
    103.9486900              0.0688426
     29.2101550              0.2321844
      9.2866630              0.4679413
      3.1639270              0.3623120
SP   3   1.00
      7.8682724             -0.1193324              0.0689991
      1.8812885             -0.1608542              0.3164240
      0.5442493              1.1434564              0.7443083
SP   1   1.00
      0.1687144              1.0000000              1.0000000
D    1   1.00
      1.2520000              1.0000000
D    1   1.00
      0.3130000              1.0000000
F    1   1.00
      0.8000000              1.0000000
****
N     0
S    6   1.00
   4173.5110000              0.0018348
    627.4579000              0.0139950
    142.9021000              0.0685870
     40.2343300              0.2322410
     12.8202100              0.4690700
      4.3904370              0.3604550
SP   3   1.00
     11.6263580             -0.1149610              0.0675800
      2.7162800             -0.1691180              0.3239070
      0.7722180              1.1458520              0.7408950
SP   1   1.00
      0.2120313              1.0000000              1.0000000
D    1   1.00
      1.8260000              1.0000000
D    1   1.00
      0.4565000              1.0000000
F    1   1.00
      1.0000000              1.0000000
****
O     0
S    6   1.00
   5484.6717000              0.0018311
    825.2349500              0.0139501
    188.0469600              0.0684451
     52.9645000              0.2327143
     16.8975700              0.4701930
      5.7996353              0.3585209
SP   3   1.00
     15.5396160             -0.1107775              0.0708743
      3.5999336             -0.1480263              0.3397528
      1.0137618              1.1307670              0.7271586
SP   1   1.00
      0.2700058              1.0000000              1.0000000
D    1   1.00
      2.5840000              1.0000000
D    1   1.00
      0.6460000              1.0000000
F    1   1.00
      1.4000000              1.0000000
****
F     0
S    6   1.00
   7001.7130900              0.0018196169
   1051.3660900              0.0139160796
    239.2856900              0.0684053245
     67.3974453              0.233185760
     21.5199573              0.471267439
      7.40310130             0.356618546
SP   3   1.00
     20.8479528             -0.108506975            0.0716287243
      4.80830834            -0.146451658            0.3459121030
      1.34406986             1.128688580            0.7224699570
SP   1   1.00
      0.358151393            1.0000000              1.0000000
D    1   1.00
      3.5000000              1.0000000
D    1   1.00
      0.8750000              1.0000000
F    1   1.00
      1.8500000              1.0000000
****
Al     0
S    6   1.00
  13983.1000000              0.00194267
   2098.7500000              0.0148599
    477.7050000              0.0728494
    134.3600000              0.2468300
     42.8709000              0.4872580
     14.5189000              0.3234960
SP   6   1.00
    239.6680000             -0.00292619             0.00460285
     57.4419000             -0.0374080              0.0331990
     18.2859000             -0.1144870              0.1362820
      6.5991400              0.1156350              0.3304760
      2.4904900              0.6125950              0.4491460
      0.9445400              0.3937990              0.2657040
SP   3   1.00
      1.2779000             -0.2276060             -0.0175130
      0.3975900              0.00144583             0.2445330
      0.1600950              1.0927900              0.8049340
SP   1   1.00
      0.0556577              1.0000000              1.0000000
D    1   1.00
      0.6500000              1.0000000
D    1   1.00
      0.1625000              1.0000000
F    1   1.00
      0.2500000              1.0000000
****
Si     0
S    6   1.00
  16115.9000000              0.00195948
   2425.5800000              0.01492880
    553.8670000              0.07284780
    156.3400000              0.24613000
     50.0683000              0.48591400
     17.0178000              0.32500200
SP   6   1.00
    292.7180000             -0.00278094             0.00443826
     69.8731000             -0.03571460             0.03266790
     22.3363000             -0.11498500             0.13472100
      8.1503900              0.09356340             0.32867800
      3.1345800              0.60301700             0.44964000
      1.2254300              0.41895900             0.26137200
SP   3   1.00
      1.7273800             -0.24463000            -0.01779510
      0.5729220              0.00431572             0.25353900
      0.2221920              1.09818000             0.80066900
SP   1   1.00
      0.0778369              1.00000000             1.00000000
D    1   1.00
      0.9000000              1.0000000
D    1   1.00
      0.2250000              1.0000000
F    1   1.00
      0.3200000              1.0000000
****
P     0
S    6   1.00
  19413.3000000              0.0018516
   2909.4200000              0.0142062
    661.3640000              0.0699995
    185.7590000              0.2400790
     59.1943000              0.4847620
     20.0310000              0.3352000
SP   6   1.00
    339.4780000             -0.00278217             0.00456462
     81.0101000             -0.0360499              0.03369360
     25.8780000             -0.1166310              0.13975500
      9.4522100              0.0968328              0.33936200
      3.6656600              0.6144180              0.45092100
      1.4674600              0.4037980              0.23858600
SP   3   1.00
      2.1562300             -0.2529230             -0.01776530
      0.7489970              0.0328517              0.27405800
      0.2831450              1.0812500              0.78542100
SP   1   1.00
      0.0998317              1.0000000              1.00000000
D    1   1.00
      1.1000000              1.0000000
D    1   1.00
      0.2750000              1.0000000
F    1   1.00
      0.4500000              1.0000000
****
S     0
S    6   1.00
  21917.1000000              0.0018690
   3301.4900000              0.0142300
    754.1460000              0.0696960
    212.7110000              0.2384870
     67.9896000              0.4833070
     23.0515000              0.3380740
SP   6   1.00
    423.7350000             -0.0023767              0.0040610
    100.7100000             -0.0316930              0.0306810
     32.1599000             -0.1133170              0.1304520
     11.8079000              0.0560900              0.3272050
      4.6311000              0.5922550              0.4528510
      1.8702500              0.4550060              0.2560420
SP   3   1.00
      2.6158400             -0.2503740             -0.0145110
      0.9221670              0.0669570              0.3102630
      0.3412870              1.0545100              0.7544830
SP   1   1.00
      0.1171670              1.0000000              1.0000000
D    1   1.00
      1.3000000              1.0000000
D    1   1.00
      0.3250000              1.0000000
F    1   1.00
      0.5500000              1.0000000
****
Cl     0
S    6   1.00
  25180.1000000              0.0018330
   3780.3500000              0.0140340
    860.4740000              0.0690970
    242.1450000              0.2374520
     77.3349000              0.4830340
     26.2470000              0.3398560
SP   6   1.00
    491.7650000             -0.0022974              0.0039894
    116.9840000             -0.0307140              0.0303180
     37.4153000             -0.1125280              0.1298800
     13.7834000              0.0450160              0.3279510
      5.4521500              0.5893530              0.4535270
      2.2258800              0.4652060              0.2521540
SP   3   1.00
      3.1864900             -0.2518300             -0.0142990
      1.1442700              0.0615890              0.3235720
      0.4203770              1.0601800              0.7435070
SP   1   1.00
      0.1426570              1.0000000              1.0000000
D    1   1.00
      1.5000000              1.0000000
D    1   1.00
      0.3750000              1.0000000
F    1   1.00
      0.7000000              1.0000000
****
}

set {
reference uhf
freeze_core true
e_convergence 10
d_convergence 10
dft_spherical_points 1202
dft_radial_points 99
}

e = energy('b3lyp')

print_out('Grab this energy {0}'.format(e))
--------------------------------------------------------------------------

    Molecular point group: c1

    Geometry (in Bohr), charge = 0, multiplicity = 2:

       Center              X                  Y                   Z               Mass
    ------------   -----------------  -----------------  -----------------  -----------------
         C           -0.325132427111    -0.000001843208     0.000020377993    12.000000000000
         C            0.061459547389    -1.400319794408    -2.426349720107    12.000000000000
         C            0.061071886189     2.801938889692    -0.000934879407    12.000000000000
         C            0.060921611089    -1.401614561108     2.426722400393    12.000000000000
         H            2.087857867989    -1.642719347308    -2.848095318307     1.007825032230
         H           -0.761101175911    -0.387810645608    -4.024311300807     1.007825032230
         H           -0.764466815811    -3.294109956908    -2.347404476807     1.007825032230
         H            2.088507527289     3.288365312992    -0.003042990207     1.007825032230
         H           -0.766449405211     3.680909344692     1.679749452193     1.007825032230
         H           -0.760046635611     3.679101620592    -1.674052842707     1.007825032230
         H            2.089434224189    -1.645739943008     2.847240444993     1.007825032230
         H           -0.761872862311    -3.290337597508     2.349741275193     1.007825032230
         H           -0.764910590111    -0.387690828808     4.026627127793     1.007825032230

  Charge       = 0
  Multiplicity = 2
  Basis Set: ANONYMOUS6F0CC7BC
    Blend: 6-31G_2DFP_
  Basis Set: (ANONYMOUS6F0CC7BC AUX)
    Blend: DEF2-UNIVERSAL-JKFIT

    Orbital Energies [Eh]
    ---------------------

    Alpha Occupied:

       1A    -10.180455     2A    -10.167058     3A    -10.167050
       4A    -10.167008     5A     -0.797712     6A     -0.686235
       7A     -0.686115     8A     -0.530800     9A     -0.440891
      10A     -0.435003    11A     -0.434628    12A     -0.382375
      13A     -0.382329    14A     -0.363894    15A     -0.338209
      16A     -0.337884    17A     -0.169077

    Alpha Virtual:

      18A      0.076087    19A      0.134048    20A      0.134268
      21A      0.142510    22A      0.142911    23A      0.154817
      24A      0.178580    25A      0.178768    26A      0.203501
      27A      0.214936    28A      0.275737    29A      0.275957
      30A      0.398964    31A      0.399456    32A      0.403304
      33A      0.423928    34A      0.424253    35A      0.456589
      36A      0.495391    37A      0.495492    38A      0.512057
      39A      0.513983    40A      0.578849    41A      0.578966
      42A      0.591187    43A      0.591469    44A      0.602261
      45A      0.624859    46A      0.631911    47A      0.636120
      48A      0.636687    49A      0.663029    50A      0.663452
      51A      0.683684    52A      0.684085    53A      0.734865
      54A      0.824981    55A      0.825484    56A      0.853963
      57A      0.914645    58A      0.915076    59A      0.944022
      60A      0.944588    61A      0.961300    62A      0.961471
      63A      1.004335    64A      1.128051    65A      1.128617
      66A      1.141850    67A      1.163073    68A      1.163189
      69A      1.222901    70A      1.273958    71A      1.274447
      72A      1.279204    73A      1.324251    74A      1.324675
      75A      1.354962    76A      1.366097    77A      1.366704
      78A      1.392524    79A      1.403386    80A      1.403458
      81A      1.415812    82A      1.417205    83A      1.427722
      84A      1.491964    85A      1.498569    86A      1.543198
      87A      1.543238    88A      1.574346    89A      1.574749
      90A      1.670365    91A      1.738498    92A      1.739909
      93A      1.768112    94A      1.830941    95A      1.832487
      96A      1.972312    97A      2.017361    98A      2.018539
      99A      2.019600   100A      2.051745   101A      2.052808
     102A      2.737972   103A      2.738335   104A      2.790706
     105A      2.811700   106A      2.889629   107A      2.889923
     108A      2.894976   109A      2.929624   110A      2.929675
     111A      2.959126   112A      2.964302   113A      2.964426
     114A      3.033969   115A      3.070089   116A      3.071185
     117A      3.084495   118A      3.168350   119A      3.169179
     120A      3.180780   121A      3.285497   122A      3.285825
     123A      3.327709   124A      3.328483   125A      3.375328
     126A      3.489706   127A      3.490260   128A      3.513558
     129A      3.525488   130A      3.567533   131A      3.568399
     132A      3.574673   133A      3.665921   134A      3.666872
     135A      3.680670   136A      3.693619   137A      3.694075
     138A      3.775812   139A      3.776023   140A      3.787808
     141A      3.911752   142A      3.912901   143A      4.033273
     144A      4.111190   145A      4.112241   146A      4.148009
     147A      4.148611   148A      4.173201   149A      4.201911
     150A      4.202278   151A      4.203513   152A      4.210867
     153A      4.315107   154A      4.316413   155A      4.359070
     156A      4.423283   157A      4.424363   158A      4.444339
     159A      4.515937   160A      4.518022   161A      4.578356
     162A      4.578380   163A      4.616674   164A      4.709016
     165A      4.773372   166A      4.775353   167A      4.836675
     168A      4.962926   169A      5.001881   170A      5.002621
     171A      5.227518   172A      5.246773   173A      5.247279
     174A      5.354717   175A      5.357224   176A      5.478898

    Beta Occupied:

       1A    -10.167810     2A    -10.167803     3A    -10.167781
       4A    -10.166634     5A     -0.781053     6A     -0.684044
       7A     -0.683920     8A     -0.511776     9A     -0.431386
      10A     -0.431011    11A     -0.421578    12A     -0.376443
      13A     -0.376406    14A     -0.362879    15A     -0.333326
      16A     -0.333009

    Beta Virtual:

      17A     -0.025891    18A      0.077098    19A      0.134945
      20A      0.135219    21A      0.144341    22A      0.144801
      23A      0.163306    24A      0.182241    25A      0.182428
      26A      0.215162    27A      0.218862    28A      0.282098
      29A      0.282316    30A      0.400133    31A      0.400634
      32A      0.419809    33A      0.426736    34A      0.427061
      35A      0.468434    36A      0.497646    37A      0.497758
      38A      0.513797    39A      0.556281    40A      0.584391
      41A      0.584505    42A      0.597358    43A      0.597687
      44A      0.609710    45A      0.628205    46A      0.632068
      47A      0.639408    48A      0.639935    49A      0.666635
      50A      0.667028    51A      0.686338    52A      0.686695
      53A      0.757395    54A      0.830181    55A      0.830661
      56A      0.855318    57A      0.922640    58A      0.923032
      59A      0.945858    60A      0.953481    61A      0.966571
      62A      0.966777    63A      1.009624    64A      1.131979
      65A      1.132536    66A      1.155240    67A      1.168212
      68A      1.168319    69A      1.231867    70A      1.279554
      71A      1.280078    72A      1.284951    73A      1.329300
      74A      1.329722    75A      1.364361    76A      1.371407
      77A      1.371886    78A      1.393594    79A      1.406813
      80A      1.406925    81A      1.420896    82A      1.422190
      83A      1.427972    84A      1.493017    85A      1.508992
      86A      1.547685    87A      1.547786    88A      1.582109
      89A      1.582517    90A      1.675197    91A      1.744255
      92A      1.745695    93A      1.778896    94A      1.834785
      95A      1.836340    96A      1.973171    97A      2.024528
      98A      2.025647    99A      2.039441   100A      2.058476
     101A      2.059565   102A      2.746299   103A      2.746685
     104A      2.812112   105A      2.815790   106A      2.902289
     107A      2.902666   108A      2.924601   109A      2.932084
     110A      2.932123   111A      2.960203   112A      2.968847
     113A      2.968986   114A      3.041944   115A      3.079970
     116A      3.081063   117A      3.086428   118A      3.184055
     119A      3.184817   120A      3.188530   121A      3.290244
     122A      3.290590   123A      3.331495   124A      3.332334
     125A      3.383108   126A      3.492457   127A      3.492987
     128A      3.511924   129A      3.528497   130A      3.574526
     131A      3.580862   132A      3.581888   133A      3.670723
     134A      3.671423   135A      3.693957   136A      3.725455
     137A      3.725546   138A      3.780349   139A      3.780622
     140A      3.816374   141A      3.921504   142A      3.922785
     143A      4.044173   144A      4.117774   145A      4.119247
     146A      4.155014   147A      4.156070   148A      4.187267
     149A      4.207874   150A      4.209408   151A      4.210233
     152A      4.215388   153A      4.322579   154A      4.323801
     155A      4.362445   156A      4.431575   157A      4.432615
     158A      4.447193   159A      4.523723   160A      4.525823
     161A      4.588912   162A      4.588980   163A      4.623793
     164A      4.719450   165A      4.780328   166A      4.782256
     167A      4.839590   168A      4.967737   169A      5.005935
     170A      5.006670   171A      5.233098   172A      5.248555
     173A      5.249155   174A      5.361189   175A      5.363674
     176A      5.481219

    Final Occupation by Irrep:
              A
    DOCC [    16 ]
    SOCC [     1 ]

  @DF-UKS Final Energy:  -157.81305399153834

   => Energetics <=

    Nuclear Repulsion Energy =            125.3859055232312869
    One-Electron Energy =                -458.7313422479848555
    Two-Electron Energy =                 195.8392736132069558
    DFT Exchange-Correlation Energy =     -20.3068908799917445
    Empirical Dispersion Energy =           0.0000000000000000
    VV10 Nonlocal Energy =                  0.0000000000000000
    Total Energy =                       -157.8130539915383395

  UHF NO Occupations:
  HONO-2 :   15  A 1.9995999
  HONO-1 :   16  A 1.9989813
  HONO-0 :   17  A 1.0000000
  LUNO+0 :   18  A 0.0010187
  LUNO+1 :   19  A 0.0004001
  LUNO+2 :   20  A 0.0001976
  LUNO+3 :   21  A 0.0001976

Computation Completed

Properties will be evaluated at   0.000000,   0.000000,   0.000000 [a0]

Properties computed using the SCF density matrix

  Nuclear Dipole Moment: [e a0]
     X:     0.8369      Y:    -0.0000      Z:     0.0032

  Electronic Dipole Moment: [e a0]
     X:    -0.7591      Y:     0.0000      Z:    -0.0049

  Dipole Moment: [e a0]
     X:     0.0778      Y:    -0.0000      Z:    -0.0017     Total:     0.0778

  Dipole Moment: [D]
     X:     0.1977      Y:    -0.0000      Z:    -0.0044     Total:     0.1978

*** tstop() called on n036 at Fri Nov  5 13:33:35 2021
Module time:
	user time   =     597.38 seconds =       9.96 minutes
	system time =      11.48 seconds =       0.19 minutes
	total time  =        153 seconds =       2.55 minutes
Total time:
	user time   =     597.38 seconds =       9.96 minutes
	system time =      11.48 seconds =       0.19 minutes
	total time  =        153 seconds =       2.55 minutes
Grab this energy -157.81305399153834
    Psi4 stopped on: Friday, 05 November 2021 01:33PM
    Psi4 wall time for execution: 0:02:33.13

*** Psi4 exiting successfully. Buy a developer a beer!
