                               Psi4 1.4a2.dev629

  ==> Input File <==

--------------------------------------------------------------------------
import os
memory 14 GB

molecule {
 C   -0.3223169911   -0.0000024529    0.0004962114
 C    0.0633895515   -1.4009254254   -2.4260798514
 C    0.0620799116    2.8016052812    0.0003827070
 C    0.0610079853   -1.4006769641    2.4264149270
 H    2.0800536500   -1.6441734205   -2.8473907658
 H   -0.7633944471   -0.3839274839   -4.0284680581
 H   -0.7623594485   -3.2962394930   -2.3465118369
 H    2.0834871875    3.2876800894    0.0001803293
 H   -0.7634912848    3.6800420981    1.6785483942
 H   -0.7658908640    3.6809705370   -1.6791545452
 H    2.0871976128   -1.6435977511    2.8467529768
 H   -0.7668670991   -3.2920854806    2.3495477580
 H   -0.7655036408   -0.3886938481    4.0252817538
units bohr
0 2
}

basis {

assign 6-31g_2dfp_

[ 6-31g_2dfp_ ]

spherical

!----------------------------------------------------------------------
! Basis Set Exchange
! Version v0.8.13
! https://www.basissetexchange.org
!----------------------------------------------------------------------
!   Basis set: 6-31G(2df,p)
! Description: 6-31G(2df,p)
!        Role: orbital
!     Version: 0  (Data from the original Basis Set Exchange)
!----------------------------------------------------------------------

****
H     0
S    3   1.00
     18.7311370              0.03349460
      2.8253937              0.23472695
      0.6401217              0.81375733
S    1   1.00
      0.1612778              1.00000000
P    1   1.00
      1.5000000              1.0000000
P    1   1.00
      0.3750000              1.0000000
****
B     0
S    6   1.00
   2068.8823000              0.0018663
    310.6495700              0.0142515
     70.6830330              0.0695516
     19.8610800              0.2325729
      6.2993048              0.4670787
      2.1270270              0.3634314
SP   3   1.00
      4.7279710             -0.1303938              0.0745976
      1.1903377             -0.1307889              0.3078467
      0.3594117              1.1309444              0.7434568
SP   1   1.00
      0.1267512              1.0000000              1.0000000
D    1   1.00
      0.8020000              1.0000000
D    1   1.00
      0.2005000              1.0000000
F    1   1.00
      0.5000000              1.0000000
****
C     0
S    6   1.00
   3047.5249000              0.0018347
    457.3695100              0.0140373
    103.9486900              0.0688426
     29.2101550              0.2321844
      9.2866630              0.4679413
      3.1639270              0.3623120
SP   3   1.00
      7.8682724             -0.1193324              0.0689991
      1.8812885             -0.1608542              0.3164240
      0.5442493              1.1434564              0.7443083
SP   1   1.00
      0.1687144              1.0000000              1.0000000
D    1   1.00
      1.2520000              1.0000000
D    1   1.00
      0.3130000              1.0000000
F    1   1.00
      0.8000000              1.0000000
****
N     0
S    6   1.00
   4173.5110000              0.0018348
    627.4579000              0.0139950
    142.9021000              0.0685870
     40.2343300              0.2322410
     12.8202100              0.4690700
      4.3904370              0.3604550
SP   3   1.00
     11.6263580             -0.1149610              0.0675800
      2.7162800             -0.1691180              0.3239070
      0.7722180              1.1458520              0.7408950
SP   1   1.00
      0.2120313              1.0000000              1.0000000
D    1   1.00
      1.8260000              1.0000000
D    1   1.00
      0.4565000              1.0000000
F    1   1.00
      1.0000000              1.0000000
****
O     0
S    6   1.00
   5484.6717000              0.0018311
    825.2349500              0.0139501
    188.0469600              0.0684451
     52.9645000              0.2327143
     16.8975700              0.4701930
      5.7996353              0.3585209
SP   3   1.00
     15.5396160             -0.1107775              0.0708743
      3.5999336             -0.1480263              0.3397528
      1.0137618              1.1307670              0.7271586
SP   1   1.00
      0.2700058              1.0000000              1.0000000
D    1   1.00
      2.5840000              1.0000000
D    1   1.00
      0.6460000              1.0000000
F    1   1.00
      1.4000000              1.0000000
****
F     0
S    6   1.00
   7001.7130900              0.0018196169
   1051.3660900              0.0139160796
    239.2856900              0.0684053245
     67.3974453              0.233185760
     21.5199573              0.471267439
      7.40310130             0.356618546
SP   3   1.00
     20.8479528             -0.108506975            0.0716287243
      4.80830834            -0.146451658            0.3459121030
      1.34406986             1.128688580            0.7224699570
SP   1   1.00
      0.358151393            1.0000000              1.0000000
D    1   1.00
      3.5000000              1.0000000
D    1   1.00
      0.8750000              1.0000000
F    1   1.00
      1.8500000              1.0000000
****
Al     0
S    6   1.00
  13983.1000000              0.00194267
   2098.7500000              0.0148599
    477.7050000              0.0728494
    134.3600000              0.2468300
     42.8709000              0.4872580
     14.5189000              0.3234960
SP   6   1.00
    239.6680000             -0.00292619             0.00460285
     57.4419000             -0.0374080              0.0331990
     18.2859000             -0.1144870              0.1362820
      6.5991400              0.1156350              0.3304760
      2.4904900              0.6125950              0.4491460
      0.9445400              0.3937990              0.2657040
SP   3   1.00
      1.2779000             -0.2276060             -0.0175130
      0.3975900              0.00144583             0.2445330
      0.1600950              1.0927900              0.8049340
SP   1   1.00
      0.0556577              1.0000000              1.0000000
D    1   1.00
      0.6500000              1.0000000
D    1   1.00
      0.1625000              1.0000000
F    1   1.00
      0.2500000              1.0000000
****
Si     0
S    6   1.00
  16115.9000000              0.00195948
   2425.5800000              0.01492880
    553.8670000              0.07284780
    156.3400000              0.24613000
     50.0683000              0.48591400
     17.0178000              0.32500200
SP   6   1.00
    292.7180000             -0.00278094             0.00443826
     69.8731000             -0.03571460             0.03266790
     22.3363000             -0.11498500             0.13472100
      8.1503900              0.09356340             0.32867800
      3.1345800              0.60301700             0.44964000
      1.2254300              0.41895900             0.26137200
SP   3   1.00
      1.7273800             -0.24463000            -0.01779510
      0.5729220              0.00431572             0.25353900
      0.2221920              1.09818000             0.80066900
SP   1   1.00
      0.0778369              1.00000000             1.00000000
D    1   1.00
      0.9000000              1.0000000
D    1   1.00
      0.2250000              1.0000000
F    1   1.00
      0.3200000              1.0000000
****
P     0
S    6   1.00
  19413.3000000              0.0018516
   2909.4200000              0.0142062
    661.3640000              0.0699995
    185.7590000              0.2400790
     59.1943000              0.4847620
     20.0310000              0.3352000
SP   6   1.00
    339.4780000             -0.00278217             0.00456462
     81.0101000             -0.0360499              0.03369360
     25.8780000             -0.1166310              0.13975500
      9.4522100              0.0968328              0.33936200
      3.6656600              0.6144180              0.45092100
      1.4674600              0.4037980              0.23858600
SP   3   1.00
      2.1562300             -0.2529230             -0.01776530
      0.7489970              0.0328517              0.27405800
      0.2831450              1.0812500              0.78542100
SP   1   1.00
      0.0998317              1.0000000              1.00000000
D    1   1.00
      1.1000000              1.0000000
D    1   1.00
      0.2750000              1.0000000
F    1   1.00
      0.4500000              1.0000000
****
S     0
S    6   1.00
  21917.1000000              0.0018690
   3301.4900000              0.0142300
    754.1460000              0.0696960
    212.7110000              0.2384870
     67.9896000              0.4833070
     23.0515000              0.3380740
SP   6   1.00
    423.7350000             -0.0023767              0.0040610
    100.7100000             -0.0316930              0.0306810
     32.1599000             -0.1133170              0.1304520
     11.8079000              0.0560900              0.3272050
      4.6311000              0.5922550              0.4528510
      1.8702500              0.4550060              0.2560420
SP   3   1.00
      2.6158400             -0.2503740             -0.0145110
      0.9221670              0.0669570              0.3102630
      0.3412870              1.0545100              0.7544830
SP   1   1.00
      0.1171670              1.0000000              1.0000000
D    1   1.00
      1.3000000              1.0000000
D    1   1.00
      0.3250000              1.0000000
F    1   1.00
      0.5500000              1.0000000
****
Cl     0
S    6   1.00
  25180.1000000              0.0018330
   3780.3500000              0.0140340
    860.4740000              0.0690970
    242.1450000              0.2374520
     77.3349000              0.4830340
     26.2470000              0.3398560
SP   6   1.00
    491.7650000             -0.0022974              0.0039894
    116.9840000             -0.0307140              0.0303180
     37.4153000             -0.1125280              0.1298800
     13.7834000              0.0450160              0.3279510
      5.4521500              0.5893530              0.4535270
      2.2258800              0.4652060              0.2521540
SP   3   1.00
      3.1864900             -0.2518300             -0.0142990
      1.1442700              0.0615890              0.3235720
      0.4203770              1.0601800              0.7435070
SP   1   1.00
      0.1426570              1.0000000              1.0000000
D    1   1.00
      1.5000000              1.0000000
D    1   1.00
      0.3750000              1.0000000
F    1   1.00
      0.7000000              1.0000000
****
}

set {
reference uhf
freeze_core true
e_convergence 10
d_convergence 10
dft_spherical_points 1202
dft_radial_points 99
}

e = energy('b3lyp')

print_out('Grab this energy {0}'.format(e))
--------------------------------------------------------------------------

    Molecular point group: c1

    Geometry (in Bohr), charge = 0, multiplicity = 2:

       Center              X                  Y                   Z               Mass
    ------------   -----------------  -----------------  -----------------  -----------------
         C           -0.323126026511    -0.000002108049     0.000262387410    12.000000000000
         C            0.062580516089    -1.400925080549    -2.426313675390    12.000000000000
         C            0.061270876189     2.801605626051     0.000148883010    12.000000000000
         C            0.060198949889    -1.400676619249     2.426181103010    12.000000000000
         H            2.079244614589    -1.644173075649    -2.847624589790     1.007825032230
         H           -0.764203482511    -0.383927139049    -4.028701882090     1.007825032230
         H           -0.763168483911    -3.296239148149    -2.346745660890     1.007825032230
         H            2.082678152089     3.287680434251    -0.000053494690     1.007825032230
         H           -0.764300320211     3.680042442951     1.678314570210     1.007825032230
         H           -0.766699899411     3.680970881851    -1.679388369190     1.007825032230
         H            2.086388577389    -1.643597406249     2.846519152810     1.007825032230
         H           -0.767676134511    -3.292085135749     2.349313934010     1.007825032230
         H           -0.766312676211    -0.388693503249     4.025047929810     1.007825032230

  Charge       = 0
  Multiplicity = 2
  Basis Set: ANONYMOUSBF8C1915
    Blend: 6-31G_2DFP_
  Basis Set: (ANONYMOUSBF8C1915 AUX)
    Blend: DEF2-UNIVERSAL-JKFIT

    Orbital Energies [Eh]
    ---------------------

    Alpha Occupied:

       1A    -10.180284     2A    -10.167043     3A    -10.167018
       4A    -10.166974     5A     -0.797804     6A     -0.686197
       7A     -0.686192     8A     -0.530789     9A     -0.441222
      10A     -0.434651    11A     -0.434604    12A     -0.382756
      13A     -0.382712    14A     -0.363433    15A     -0.337978
      16A     -0.337913    17A     -0.168924

    Alpha Virtual:

      18A      0.075985    19A      0.133980    20A      0.134312
      21A      0.142504    22A      0.142618    23A      0.155046
      24A      0.178869    25A      0.179045    26A      0.203590
      27A      0.214529    28A      0.275936    29A      0.276086
      30A      0.399315    31A      0.399381    32A      0.403427
      33A      0.423825    34A      0.423993    35A      0.456669
      36A      0.495065    37A      0.495354    38A      0.512279
      39A      0.514135    40A      0.578811    41A      0.579147
      42A      0.591746    43A      0.592054    44A      0.603332
      45A      0.624261    46A      0.631369    47A      0.635779
      48A      0.635989    49A      0.663536    50A      0.664294
      51A      0.683433    52A      0.683779    53A      0.734934
      54A      0.825416    55A      0.825453    56A      0.854201
      57A      0.915033    58A      0.915461    59A      0.943839
      60A      0.944467    61A      0.961270    62A      0.961524
      63A      1.003639    64A      1.127813    65A      1.127908
      66A      1.142933    67A      1.162881    68A      1.163129
      69A      1.222913    70A      1.274577    71A      1.274872
      72A      1.279532    73A      1.324518    74A      1.324613
      75A      1.355421    76A      1.366100    77A      1.366127
      78A      1.392501    79A      1.404629    80A      1.405520
      81A      1.415643    82A      1.416661    83A      1.428124
      84A      1.491509    85A      1.500029    86A      1.542746
      87A      1.543681    88A      1.573914    89A      1.574231
      90A      1.668554    91A      1.740099    92A      1.740401
      93A      1.770204    94A      1.829198    95A      1.830800
      96A      1.970695    97A      2.018144    98A      2.018694
      99A      2.019444   100A      2.053054   101A      2.055001
     102A      2.737757   103A      2.738579   104A      2.791318
     105A      2.810968   106A      2.890300   107A      2.890334
     108A      2.895300   109A      2.929282   110A      2.929298
     111A      2.959136   112A      2.964474   113A      2.965132
     114A      3.034718   115A      3.071292   116A      3.071330
     117A      3.082970   118A      3.168691   119A      3.169122
     120A      3.180656   121A      3.285088   122A      3.285739
     123A      3.326320   124A      3.326742   125A      3.375446
     126A      3.490234   127A      3.490552   128A      3.515228
     129A      3.524140   130A      3.568674   131A      3.568910
     132A      3.575986   133A      3.666055   134A      3.667472
     135A      3.679038   136A      3.693803   137A      3.694089
     138A      3.776370   139A      3.776402   140A      3.789912
     141A      3.911579   142A      3.911766   143A      4.033967
     144A      4.110952   145A      4.111832   146A      4.148107
     147A      4.149227   148A      4.174898   149A      4.201301
     150A      4.202502   151A      4.203453   152A      4.212037
     153A      4.315594   154A      4.317325   155A      4.357769
     156A      4.424860   157A      4.425534   158A      4.443196
     159A      4.516790   160A      4.518227   161A      4.577455
     162A      4.577711   163A      4.617653   164A      4.710008
     165A      4.774023   166A      4.774950   167A      4.835532
     168A      4.962564   169A      5.003510   170A      5.004991
     171A      5.230757   172A      5.241746   173A      5.245867
     174A      5.356286   175A      5.358774   176A      5.477429

    Beta Occupied:

       1A    -10.167798     2A    -10.167771     3A    -10.167740
       4A    -10.166456     5A     -0.781122     6A     -0.683988
       7A     -0.683983     8A     -0.511711     9A     -0.430993
      10A     -0.430959    11A     -0.421974    12A     -0.376888
      13A     -0.376800    14A     -0.362408    15A     -0.333098
      16A     -0.333046

    Beta Virtual:

      17A     -0.025616    18A      0.076979    19A      0.134814
      20A      0.135126    21A      0.144422    22A      0.144485
      23A      0.163483    24A      0.182550    25A      0.182763
      26A      0.214766    27A      0.218974    28A      0.282276
      29A      0.282432    30A      0.400483    31A      0.400546
      32A      0.419778    33A      0.426637    34A      0.426805
      35A      0.468676    36A      0.497310    37A      0.497614
      38A      0.514007    39A      0.556517    40A      0.584349
      41A      0.584653    42A      0.597912    43A      0.598268
      44A      0.610614    45A      0.627778    46A      0.631535
      47A      0.639099    48A      0.639307    49A      0.667100
      50A      0.667797    51A      0.686099    52A      0.686408
      53A      0.757460    54A      0.830561    55A      0.830601
      56A      0.855546    57A      0.923001    58A      0.923400
      59A      0.945684    60A      0.953346    61A      0.966581
      62A      0.966893    63A      1.008919    64A      1.131838
      65A      1.131865    66A      1.156229    67A      1.167945
      68A      1.168265    69A      1.231901    70A      1.280183
      71A      1.280502    72A      1.285344    73A      1.329461
      74A      1.329553    75A      1.364851    76A      1.371257
      77A      1.371323    78A      1.393543    79A      1.408106
      80A      1.409074    81A      1.420719    82A      1.421766
      83A      1.428385    84A      1.492584    85A      1.510464
      86A      1.547136    87A      1.548039    88A      1.581820
      89A      1.582107    90A      1.673351    91A      1.745870
      92A      1.746171    93A      1.780989    94A      1.833045
      95A      1.834662    96A      1.971569    97A      2.025026
      98A      2.025937    99A      2.039774   100A      2.059691
     101A      2.061556   102A      2.746093   103A      2.746897
     104A      2.811377   105A      2.816492   106A      2.902979
     107A      2.903106   108A      2.925181   109A      2.931729
     110A      2.931807   111A      2.960201   112A      2.969042
     113A      2.969728   114A      3.042439   115A      3.081105
     116A      3.081331   117A      3.084819   118A      3.184312
     119A      3.184959   120A      3.188362   121A      3.289846
     122A      3.290515   123A      3.330138   124A      3.330608
     125A      3.383289   126A      3.493044   127A      3.493284
     128A      3.513595   129A      3.527200   130A      3.575832
     131A      3.581804   132A      3.582129   133A      3.670845
     134A      3.672380   135A      3.692357   136A      3.725405
     137A      3.725735   138A      3.780926   139A      3.781037
     140A      3.818427   141A      3.921316   142A      3.921547
     143A      4.044792   144A      4.117782   145A      4.118623
     146A      4.155378   147A      4.156395   148A      4.188918
     149A      4.207181   150A      4.208768   151A      4.211007
     152A      4.216386   153A      4.323098   154A      4.324819
     155A      4.361176   156A      4.433077   157A      4.433749
     158A      4.446127   159A      4.524544   160A      4.525982
     161A      4.588086   162A      4.588365   163A      4.624941
     164A      4.720235   165A      4.781026   166A      4.781955
     167A      4.838460   168A      4.967348   169A      5.007542
     170A      5.008987   171A      5.236503   172A      5.243558
     173A      5.247656   174A      5.362784   175A      5.365290
     176A      5.479762

    Final Occupation by Irrep:
              A
    DOCC [    16 ]
    SOCC [     1 ]

  @DF-UKS Final Energy:  -157.81304927520944

   => Energetics <=

    Nuclear Repulsion Energy =            125.4000385343246933
    One-Electron Energy =                -458.7597022020282793
    Two-Electron Energy =                 195.8538746104950121
    DFT Exchange-Correlation Energy =     -20.3072602180008985
    Empirical Dispersion Energy =           0.0000000000000000
    VV10 Nonlocal Energy =                  0.0000000000000000
    Total Energy =                       -157.8130492752094369

  UHF NO Occupations:
  HONO-2 :   15  A 1.9996032
  HONO-1 :   16  A 1.9989813
  HONO-0 :   17  A 1.0000000
  LUNO+0 :   18  A 0.0010187
  LUNO+1 :   19  A 0.0003968
  LUNO+2 :   20  A 0.0001975
  LUNO+3 :   21  A 0.0001975

Computation Completed

Properties will be evaluated at   0.000000,   0.000000,   0.000000 [a0]

Properties computed using the SCF density matrix

  Nuclear Dipole Moment: [e a0]
     X:     0.8215      Y:    -0.0000      Z:    -0.0016

  Electronic Dipole Moment: [e a0]
     X:    -0.7404      Y:     0.0000      Z:     0.0023

  Dipole Moment: [e a0]
     X:     0.0811      Y:     0.0000      Z:     0.0007     Total:     0.0811

  Dipole Moment: [D]
     X:     0.2061      Y:     0.0000      Z:     0.0017     Total:     0.2061

*** tstop() called on n049 at Fri Nov  5 14:05:14 2021
Module time:
	user time   =     512.32 seconds =       8.54 minutes
	system time =      11.48 seconds =       0.19 minutes
	total time  =        132 seconds =       2.20 minutes
Total time:
	user time   =     512.32 seconds =       8.54 minutes
	system time =      11.48 seconds =       0.19 minutes
	total time  =        132 seconds =       2.20 minutes
Grab this energy -157.81304927520944
    Psi4 stopped on: Friday, 05 November 2021 02:05PM
    Psi4 wall time for execution: 0:02:11.89

*** Psi4 exiting successfully. Buy a developer a beer!
