                               Psi4 1.4a2.dev629

  ==> Input File <==

--------------------------------------------------------------------------
import os
memory 14 GB

molecule {
 C   -0.3233321592    0.0049896213    0.0019963395
 C    0.0615748790   -1.4044393613   -2.4205909179
 C    0.0604188154    2.8096665587    0.0011583287
 C    0.0613092359   -1.4026986613    2.4198969383
 H    2.0871233597   -1.6539226322   -2.8410476368
 H   -0.7622471883   -0.3942789541   -4.0215178980
 H   -0.7685528444   -3.2952620576   -2.3379475301
 H    2.0860186006    3.2972613585    0.0040959048
 H   -0.7680732224    3.6937897286    1.6758978638
 H   -0.7653270190    3.6825503032   -1.6774772455
 H    2.0875184019   -1.6463842324    2.8362248752
 H   -0.7663023615   -3.2921621411    2.3336743988
 H   -0.7627363743   -0.3991338439    4.0256365791
units bohr
0 2
}

basis {

assign 6-31g_2dfp_

[ 6-31g_2dfp_ ]

spherical

!----------------------------------------------------------------------
! Basis Set Exchange
! Version v0.8.13
! https://www.basissetexchange.org
!----------------------------------------------------------------------
!   Basis set: 6-31G(2df,p)
! Description: 6-31G(2df,p)
!        Role: orbital
!     Version: 0  (Data from the original Basis Set Exchange)
!----------------------------------------------------------------------

****
H     0
S    3   1.00
     18.7311370              0.03349460
      2.8253937              0.23472695
      0.6401217              0.81375733
S    1   1.00
      0.1612778              1.00000000
P    1   1.00
      1.5000000              1.0000000
P    1   1.00
      0.3750000              1.0000000
****
B     0
S    6   1.00
   2068.8823000              0.0018663
    310.6495700              0.0142515
     70.6830330              0.0695516
     19.8610800              0.2325729
      6.2993048              0.4670787
      2.1270270              0.3634314
SP   3   1.00
      4.7279710             -0.1303938              0.0745976
      1.1903377             -0.1307889              0.3078467
      0.3594117              1.1309444              0.7434568
SP   1   1.00
      0.1267512              1.0000000              1.0000000
D    1   1.00
      0.8020000              1.0000000
D    1   1.00
      0.2005000              1.0000000
F    1   1.00
      0.5000000              1.0000000
****
C     0
S    6   1.00
   3047.5249000              0.0018347
    457.3695100              0.0140373
    103.9486900              0.0688426
     29.2101550              0.2321844
      9.2866630              0.4679413
      3.1639270              0.3623120
SP   3   1.00
      7.8682724             -0.1193324              0.0689991
      1.8812885             -0.1608542              0.3164240
      0.5442493              1.1434564              0.7443083
SP   1   1.00
      0.1687144              1.0000000              1.0000000
D    1   1.00
      1.2520000              1.0000000
D    1   1.00
      0.3130000              1.0000000
F    1   1.00
      0.8000000              1.0000000
****
N     0
S    6   1.00
   4173.5110000              0.0018348
    627.4579000              0.0139950
    142.9021000              0.0685870
     40.2343300              0.2322410
     12.8202100              0.4690700
      4.3904370              0.3604550
SP   3   1.00
     11.6263580             -0.1149610              0.0675800
      2.7162800             -0.1691180              0.3239070
      0.7722180              1.1458520              0.7408950
SP   1   1.00
      0.2120313              1.0000000              1.0000000
D    1   1.00
      1.8260000              1.0000000
D    1   1.00
      0.4565000              1.0000000
F    1   1.00
      1.0000000              1.0000000
****
O     0
S    6   1.00
   5484.6717000              0.0018311
    825.2349500              0.0139501
    188.0469600              0.0684451
     52.9645000              0.2327143
     16.8975700              0.4701930
      5.7996353              0.3585209
SP   3   1.00
     15.5396160             -0.1107775              0.0708743
      3.5999336             -0.1480263              0.3397528
      1.0137618              1.1307670              0.7271586
SP   1   1.00
      0.2700058              1.0000000              1.0000000
D    1   1.00
      2.5840000              1.0000000
D    1   1.00
      0.6460000              1.0000000
F    1   1.00
      1.4000000              1.0000000
****
F     0
S    6   1.00
   7001.7130900              0.0018196169
   1051.3660900              0.0139160796
    239.2856900              0.0684053245
     67.3974453              0.233185760
     21.5199573              0.471267439
      7.40310130             0.356618546
SP   3   1.00
     20.8479528             -0.108506975            0.0716287243
      4.80830834            -0.146451658            0.3459121030
      1.34406986             1.128688580            0.7224699570
SP   1   1.00
      0.358151393            1.0000000              1.0000000
D    1   1.00
      3.5000000              1.0000000
D    1   1.00
      0.8750000              1.0000000
F    1   1.00
      1.8500000              1.0000000
****
Al     0
S    6   1.00
  13983.1000000              0.00194267
   2098.7500000              0.0148599
    477.7050000              0.0728494
    134.3600000              0.2468300
     42.8709000              0.4872580
     14.5189000              0.3234960
SP   6   1.00
    239.6680000             -0.00292619             0.00460285
     57.4419000             -0.0374080              0.0331990
     18.2859000             -0.1144870              0.1362820
      6.5991400              0.1156350              0.3304760
      2.4904900              0.6125950              0.4491460
      0.9445400              0.3937990              0.2657040
SP   3   1.00
      1.2779000             -0.2276060             -0.0175130
      0.3975900              0.00144583             0.2445330
      0.1600950              1.0927900              0.8049340
SP   1   1.00
      0.0556577              1.0000000              1.0000000
D    1   1.00
      0.6500000              1.0000000
D    1   1.00
      0.1625000              1.0000000
F    1   1.00
      0.2500000              1.0000000
****
Si     0
S    6   1.00
  16115.9000000              0.00195948
   2425.5800000              0.01492880
    553.8670000              0.07284780
    156.3400000              0.24613000
     50.0683000              0.48591400
     17.0178000              0.32500200
SP   6   1.00
    292.7180000             -0.00278094             0.00443826
     69.8731000             -0.03571460             0.03266790
     22.3363000             -0.11498500             0.13472100
      8.1503900              0.09356340             0.32867800
      3.1345800              0.60301700             0.44964000
      1.2254300              0.41895900             0.26137200
SP   3   1.00
      1.7273800             -0.24463000            -0.01779510
      0.5729220              0.00431572             0.25353900
      0.2221920              1.09818000             0.80066900
SP   1   1.00
      0.0778369              1.00000000             1.00000000
D    1   1.00
      0.9000000              1.0000000
D    1   1.00
      0.2250000              1.0000000
F    1   1.00
      0.3200000              1.0000000
****
P     0
S    6   1.00
  19413.3000000              0.0018516
   2909.4200000              0.0142062
    661.3640000              0.0699995
    185.7590000              0.2400790
     59.1943000              0.4847620
     20.0310000              0.3352000
SP   6   1.00
    339.4780000             -0.00278217             0.00456462
     81.0101000             -0.0360499              0.03369360
     25.8780000             -0.1166310              0.13975500
      9.4522100              0.0968328              0.33936200
      3.6656600              0.6144180              0.45092100
      1.4674600              0.4037980              0.23858600
SP   3   1.00
      2.1562300             -0.2529230             -0.01776530
      0.7489970              0.0328517              0.27405800
      0.2831450              1.0812500              0.78542100
SP   1   1.00
      0.0998317              1.0000000              1.00000000
D    1   1.00
      1.1000000              1.0000000
D    1   1.00
      0.2750000              1.0000000
F    1   1.00
      0.4500000              1.0000000
****
S     0
S    6   1.00
  21917.1000000              0.0018690
   3301.4900000              0.0142300
    754.1460000              0.0696960
    212.7110000              0.2384870
     67.9896000              0.4833070
     23.0515000              0.3380740
SP   6   1.00
    423.7350000             -0.0023767              0.0040610
    100.7100000             -0.0316930              0.0306810
     32.1599000             -0.1133170              0.1304520
     11.8079000              0.0560900              0.3272050
      4.6311000              0.5922550              0.4528510
      1.8702500              0.4550060              0.2560420
SP   3   1.00
      2.6158400             -0.2503740             -0.0145110
      0.9221670              0.0669570              0.3102630
      0.3412870              1.0545100              0.7544830
SP   1   1.00
      0.1171670              1.0000000              1.0000000
D    1   1.00
      1.3000000              1.0000000
D    1   1.00
      0.3250000              1.0000000
F    1   1.00
      0.5500000              1.0000000
****
Cl     0
S    6   1.00
  25180.1000000              0.0018330
   3780.3500000              0.0140340
    860.4740000              0.0690970
    242.1450000              0.2374520
     77.3349000              0.4830340
     26.2470000              0.3398560
SP   6   1.00
    491.7650000             -0.0022974              0.0039894
    116.9840000             -0.0307140              0.0303180
     37.4153000             -0.1125280              0.1298800
     13.7834000              0.0450160              0.3279510
      5.4521500              0.5893530              0.4535270
      2.2258800              0.4652060              0.2521540
SP   3   1.00
      3.1864900             -0.2518300             -0.0142990
      1.1442700              0.0615890              0.3235720
      0.4203770              1.0601800              0.7435070
SP   1   1.00
      0.1426570              1.0000000              1.0000000
D    1   1.00
      1.5000000              1.0000000
D    1   1.00
      0.3750000              1.0000000
F    1   1.00
      0.7000000              1.0000000
****
}

set {
reference uhf
freeze_core true
e_convergence 10
d_convergence 10
dft_spherical_points 1202
dft_radial_points 99
}

e = energy('b3lyp')

print_out('Grab this energy {0}'.format(e))
--------------------------------------------------------------------------

    Molecular point group: c1

    Geometry (in Bohr), charge = 0, multiplicity = 2:

       Center              X                  Y                   Z               Mass
    ------------   -----------------  -----------------  -----------------  -----------------
         C           -0.323334230874     0.003541999396     0.001522393154    12.000000000000
         C            0.061572807326    -1.405886983204    -2.421064864246    12.000000000000
         C            0.060416743726     2.808218936796     0.000684382354    12.000000000000
         C            0.061307164226    -1.404146283204     2.419422991954    12.000000000000
         H            2.087121288026    -1.655370254104    -2.841521583146     1.007825032230
         H           -0.762249259974    -0.395726576004    -4.021991844346     1.007825032230
         H           -0.768554916074    -3.296709679504    -2.338421476446     1.007825032230
         H            2.086016528926     3.295813736596     0.003621958454     1.007825032230
         H           -0.768075294074     3.692342106696     1.675423917454     1.007825032230
         H           -0.765329090674     3.681102681296    -1.677951191846     1.007825032230
         H            2.087516330226    -1.647831854304     2.835750928854     1.007825032230
         H           -0.766304433174    -3.293609763004     2.333200452454     1.007825032230
         H           -0.762738445974    -0.400581465804     4.025162632754     1.007825032230

  Charge       = 0
  Multiplicity = 2
  Basis Set: ANONYMOUS28335D49
    Blend: 6-31G_2DFP_
  Basis Set: (ANONYMOUS28335D49 AUX)
    Blend: DEF2-UNIVERSAL-JKFIT

    Orbital Energies [Eh]
    ---------------------

    Alpha Occupied:

       1A    -10.180342     2A    -10.167329     3A    -10.167017
       4A    -10.166700     5A     -0.797770     6A     -0.686438
       7A     -0.685933     8A     -0.530776     9A     -0.441131
      10A     -0.434946    11A     -0.434393    12A     -0.382749
      13A     -0.382447    14A     -0.363611    15A     -0.338281
      16A     -0.337712    17A     -0.168961

    Alpha Virtual:

      18A      0.076072    19A      0.133913    20A      0.134398
      21A      0.142474    22A      0.142778    23A      0.154880
      24A      0.178550    25A      0.179007    26A      0.203545
      27A      0.214809    28A      0.275669    29A      0.276303
      30A      0.399023    31A      0.399363    32A      0.403419
      33A      0.423956    34A      0.424251    35A      0.456595
      36A      0.494979    37A      0.495791    38A      0.512171
      39A      0.513987    40A      0.578419    41A      0.579189
      42A      0.591338    43A      0.591933    44A      0.602579
      45A      0.624764    46A      0.631769    47A      0.636032
      48A      0.636478    49A      0.663192    50A      0.663634
      51A      0.683609    52A      0.684102    53A      0.734993
      54A      0.824552    55A      0.826247    56A      0.853914
      57A      0.914741    58A      0.915301    59A      0.944045
      60A      0.944519    61A      0.960659    62A      0.962141
      63A      1.003480    64A      1.126919    65A      1.129305
      66A      1.142213    67A      1.162771    68A      1.163779
      69A      1.223334    70A      1.273947    71A      1.275046
      72A      1.279347    73A      1.324264    74A      1.324444
      75A      1.355994    76A      1.365315    77A      1.366731
      78A      1.392439    79A      1.403215    80A      1.404959
      81A      1.416497    82A      1.417747    83A      1.427929
      84A      1.491437    85A      1.499062    86A      1.542371
      87A      1.543296    88A      1.572593    89A      1.576407
      90A      1.669827    91A      1.738261    92A      1.740545
      93A      1.768342    94A      1.830688    95A      1.832123
      96A      1.971725    97A      2.017582    98A      2.018176
      99A      2.020604   100A      2.050009   101A      2.055371
     102A      2.738098   103A      2.738867   104A      2.790927
     105A      2.811429   106A      2.889662   107A      2.890200
     108A      2.894994   109A      2.929313   110A      2.929676
     111A      2.958990   112A      2.963460   113A      2.965320
     114A      3.034011   115A      3.070286   116A      3.072250
     117A      3.084383   118A      3.167985   119A      3.169628
     120A      3.180559   121A      3.284599   122A      3.286014
     123A      3.326159   124A      3.328170   125A      3.375666
     126A      3.489629   127A      3.490594   128A      3.514044
     129A      3.525279   130A      3.567217   131A      3.569334
     132A      3.575487   133A      3.666160   134A      3.666572
     135A      3.679632   136A      3.693532   137A      3.694729
     138A      3.775316   139A      3.778195   140A      3.789334
     141A      3.910783   142A      3.913690   143A      4.034470
     144A      4.109506   145A      4.113236   146A      4.146229
     147A      4.149941   148A      4.173274   149A      4.201376
     150A      4.202692   151A      4.204655   152A      4.210996
     153A      4.315109   154A      4.316746   155A      4.359051
     156A      4.424147   157A      4.424646   158A      4.443560
     159A      4.515893   160A      4.517799   161A      4.577143
     162A      4.579365   163A      4.617530   164A      4.709442
     165A      4.772929   166A      4.776270   167A      4.836993
     168A      4.962856   169A      5.001917   170A      5.004008
     171A      5.228022   172A      5.246341   173A      5.247308
     174A      5.354491   175A      5.356508   176A      5.479338

    Beta Occupied:

       1A    -10.168085     2A    -10.167777     3A    -10.167463
       4A    -10.166518     5A     -0.781096     6A     -0.684240
       7A     -0.683736     8A     -0.511748     9A     -0.431323
      10A     -0.430767    11A     -0.421819    12A     -0.376843
      13A     -0.376524    14A     -0.362594    15A     -0.333407
      16A     -0.332833

    Beta Virtual:

      17A     -0.025743    18A      0.077081    19A      0.134793
      20A      0.135297    21A      0.144350    22A      0.144644
      23A      0.163340    24A      0.182214    25A      0.182686
      26A      0.215038    27A      0.218927    28A      0.282019
      29A      0.282649    30A      0.400268    31A      0.400520
      32A      0.419797    33A      0.426752    34A      0.427079
      35A      0.468505    36A      0.497240    37A      0.498055
      38A      0.513907    39A      0.556328    40A      0.583987
      41A      0.584722    42A      0.597528    43A      0.598100
      44A      0.609997    45A      0.628147    46A      0.631927
      47A      0.639294    48A      0.639785    49A      0.666729
      50A      0.667222    51A      0.686190    52A      0.686793
      53A      0.757515    54A      0.829705    55A      0.831430
      56A      0.855268    57A      0.922712    58A      0.923270
      59A      0.945907    60A      0.953430    61A      0.965972
      62A      0.967439    63A      1.008718    64A      1.130943
      65A      1.133341    66A      1.155585    67A      1.167827
      68A      1.168873    69A      1.232303    70A      1.279542
      71A      1.280646    72A      1.285101    73A      1.329236
      74A      1.329452    75A      1.365411    76A      1.370462
      77A      1.372060    78A      1.393504    79A      1.406701
      80A      1.408410    81A      1.421547    82A      1.422788
      83A      1.428203    84A      1.492488    85A      1.509506
      86A      1.546686    87A      1.547792    88A      1.580619
      89A      1.584127    90A      1.674673    91A      1.744026
      92A      1.746305    93A      1.779119    94A      1.834532
      95A      1.835990    96A      1.972587    97A      2.023941
      98A      2.026933    99A      2.039656   100A      2.056809
     101A      2.062007   102A      2.746413   103A      2.747226
     104A      2.811842   105A      2.816059   106A      2.902430
     107A      2.902844   108A      2.924663   109A      2.931890
     110A      2.932068   111A      2.960056   112A      2.968038
     113A      2.969826   114A      3.041947   115A      3.080088
     116A      3.082108   117A      3.086369   118A      3.183831
     119A      3.185267   120A      3.188241   121A      3.289462
     122A      3.290754   123A      3.329962   124A      3.331977
     125A      3.383483   126A      3.492370   127A      3.493303
     128A      3.512423   129A      3.528340   130A      3.574724
     131A      3.580637   132A      3.583198   133A      3.670974
     134A      3.671288   135A      3.692930   136A      3.725335
     137A      3.726147   138A      3.779887   139A      3.782761
     140A      3.817795   141A      3.920602   142A      3.923504
     143A      4.045357   144A      4.116400   145A      4.119973
     146A      4.153475   147A      4.157123   148A      4.187325
     149A      4.207308   150A      4.210501   151A      4.210715
     152A      4.215514   153A      4.322521   154A      4.324208
     155A      4.362419   156A      4.432412   157A      4.432763
     158A      4.446497   159A      4.523774   160A      4.525488
     161A      4.587668   162A      4.590040   163A      4.624726
     164A      4.719787   165A      4.779881   166A      4.783223
     167A      4.839914   168A      4.967649   169A      5.005954
     170A      5.008050   171A      5.233735   172A      5.248116
     173A      5.249104   174A      5.360943   175A      5.363016
     176A      5.481659

    Final Occupation by Irrep:
              A
    DOCC [    16 ]
    SOCC [     1 ]

  @DF-UKS Final Energy:  -157.81306017365955

   => Energetics <=

    Nuclear Repulsion Energy =            125.3948762274316522
    One-Electron Energy =                -458.7493936081333459
    Two-Electron Energy =                 195.8486034730634344
    DFT Exchange-Correlation Energy =     -20.3071462660212987
    Empirical Dispersion Energy =           0.0000000000000000
    VV10 Nonlocal Energy =                  0.0000000000000000
    Total Energy =                       -157.8130601736595509

  UHF NO Occupations:
  HONO-2 :   15  A 1.9996009
  HONO-1 :   16  A 1.9989804
  HONO-0 :   17  A 1.0000000
  LUNO+0 :   18  A 0.0010196
  LUNO+1 :   19  A 0.0003991
  LUNO+2 :   20  A 0.0001980
  LUNO+3 :   21  A 0.0001971

Computation Completed

Properties will be evaluated at   0.000000,   0.000000,   0.000000 [a0]

Properties computed using the SCF density matrix

  Nuclear Dipole Moment: [e a0]
     X:     0.8272      Y:    -0.0102      Z:    -0.0033

  Electronic Dipole Moment: [e a0]
     X:    -0.7493      Y:     0.0110      Z:     0.0034

  Dipole Moment: [e a0]
     X:     0.0779      Y:     0.0008      Z:     0.0000     Total:     0.0779

  Dipole Moment: [D]
     X:     0.1980      Y:     0.0019      Z:     0.0001     Total:     0.1981

*** tstop() called on n082 at Fri Nov  5 15:37:53 2021
Module time:
	user time   =     496.70 seconds =       8.28 minutes
	system time =       4.38 seconds =       0.07 minutes
	total time  =        126 seconds =       2.10 minutes
Total time:
	user time   =     496.70 seconds =       8.28 minutes
	system time =       4.38 seconds =       0.07 minutes
	total time  =        126 seconds =       2.10 minutes
Grab this energy -157.81306017365955
    Psi4 stopped on: Friday, 05 November 2021 03:37PM
    Psi4 wall time for execution: 0:02:05.99

*** Psi4 exiting successfully. Buy a developer a beer!
