                               Psi4 1.4a2.dev629

  ==> Input File <==

--------------------------------------------------------------------------
import os
memory 14 GB

molecule {
 C   -0.3201720129   -0.0000019789    0.0000000139
 C    0.0624668214   -1.3999511192   -2.4267070975
 C    0.0623470479    2.8015789210    0.0009655635
 C    0.0624668336   -1.4016234275    2.4257415813
 H    2.0866068832   -1.6417134302   -2.8485103756
 H   -0.7640664198   -0.3899608834   -4.0241674484
 H   -0.7689600802   -3.2935482685   -2.3489566748
 H    2.0864676488    3.2878369890    0.0025997744
 H   -0.7643070427    3.6799856836    1.6743367413
 H   -0.7690379020    3.6810012282   -1.6778571810
 H    2.0866062410   -1.6462161766    2.8459107555
 H   -0.7642292489   -3.2899922131    2.3498369482
 H   -0.7687966462   -0.3874196380    4.0268073992
units bohr
0 2
}

basis {

assign 6-31g_2dfp_

[ 6-31g_2dfp_ ]

spherical

!----------------------------------------------------------------------
! Basis Set Exchange
! Version v0.8.13
! https://www.basissetexchange.org
!----------------------------------------------------------------------
!   Basis set: 6-31G(2df,p)
! Description: 6-31G(2df,p)
!        Role: orbital
!     Version: 0  (Data from the original Basis Set Exchange)
!----------------------------------------------------------------------

****
H     0
S    3   1.00
     18.7311370              0.03349460
      2.8253937              0.23472695
      0.6401217              0.81375733
S    1   1.00
      0.1612778              1.00000000
P    1   1.00
      1.5000000              1.0000000
P    1   1.00
      0.3750000              1.0000000
****
B     0
S    6   1.00
   2068.8823000              0.0018663
    310.6495700              0.0142515
     70.6830330              0.0695516
     19.8610800              0.2325729
      6.2993048              0.4670787
      2.1270270              0.3634314
SP   3   1.00
      4.7279710             -0.1303938              0.0745976
      1.1903377             -0.1307889              0.3078467
      0.3594117              1.1309444              0.7434568
SP   1   1.00
      0.1267512              1.0000000              1.0000000
D    1   1.00
      0.8020000              1.0000000
D    1   1.00
      0.2005000              1.0000000
F    1   1.00
      0.5000000              1.0000000
****
C     0
S    6   1.00
   3047.5249000              0.0018347
    457.3695100              0.0140373
    103.9486900              0.0688426
     29.2101550              0.2321844
      9.2866630              0.4679413
      3.1639270              0.3623120
SP   3   1.00
      7.8682724             -0.1193324              0.0689991
      1.8812885             -0.1608542              0.3164240
      0.5442493              1.1434564              0.7443083
SP   1   1.00
      0.1687144              1.0000000              1.0000000
D    1   1.00
      1.2520000              1.0000000
D    1   1.00
      0.3130000              1.0000000
F    1   1.00
      0.8000000              1.0000000
****
N     0
S    6   1.00
   4173.5110000              0.0018348
    627.4579000              0.0139950
    142.9021000              0.0685870
     40.2343300              0.2322410
     12.8202100              0.4690700
      4.3904370              0.3604550
SP   3   1.00
     11.6263580             -0.1149610              0.0675800
      2.7162800             -0.1691180              0.3239070
      0.7722180              1.1458520              0.7408950
SP   1   1.00
      0.2120313              1.0000000              1.0000000
D    1   1.00
      1.8260000              1.0000000
D    1   1.00
      0.4565000              1.0000000
F    1   1.00
      1.0000000              1.0000000
****
O     0
S    6   1.00
   5484.6717000              0.0018311
    825.2349500              0.0139501
    188.0469600              0.0684451
     52.9645000              0.2327143
     16.8975700              0.4701930
      5.7996353              0.3585209
SP   3   1.00
     15.5396160             -0.1107775              0.0708743
      3.5999336             -0.1480263              0.3397528
      1.0137618              1.1307670              0.7271586
SP   1   1.00
      0.2700058              1.0000000              1.0000000
D    1   1.00
      2.5840000              1.0000000
D    1   1.00
      0.6460000              1.0000000
F    1   1.00
      1.4000000              1.0000000
****
F     0
S    6   1.00
   7001.7130900              0.0018196169
   1051.3660900              0.0139160796
    239.2856900              0.0684053245
     67.3974453              0.233185760
     21.5199573              0.471267439
      7.40310130             0.356618546
SP   3   1.00
     20.8479528             -0.108506975            0.0716287243
      4.80830834            -0.146451658            0.3459121030
      1.34406986             1.128688580            0.7224699570
SP   1   1.00
      0.358151393            1.0000000              1.0000000
D    1   1.00
      3.5000000              1.0000000
D    1   1.00
      0.8750000              1.0000000
F    1   1.00
      1.8500000              1.0000000
****
Al     0
S    6   1.00
  13983.1000000              0.00194267
   2098.7500000              0.0148599
    477.7050000              0.0728494
    134.3600000              0.2468300
     42.8709000              0.4872580
     14.5189000              0.3234960
SP   6   1.00
    239.6680000             -0.00292619             0.00460285
     57.4419000             -0.0374080              0.0331990
     18.2859000             -0.1144870              0.1362820
      6.5991400              0.1156350              0.3304760
      2.4904900              0.6125950              0.4491460
      0.9445400              0.3937990              0.2657040
SP   3   1.00
      1.2779000             -0.2276060             -0.0175130
      0.3975900              0.00144583             0.2445330
      0.1600950              1.0927900              0.8049340
SP   1   1.00
      0.0556577              1.0000000              1.0000000
D    1   1.00
      0.6500000              1.0000000
D    1   1.00
      0.1625000              1.0000000
F    1   1.00
      0.2500000              1.0000000
****
Si     0
S    6   1.00
  16115.9000000              0.00195948
   2425.5800000              0.01492880
    553.8670000              0.07284780
    156.3400000              0.24613000
     50.0683000              0.48591400
     17.0178000              0.32500200
SP   6   1.00
    292.7180000             -0.00278094             0.00443826
     69.8731000             -0.03571460             0.03266790
     22.3363000             -0.11498500             0.13472100
      8.1503900              0.09356340             0.32867800
      3.1345800              0.60301700             0.44964000
      1.2254300              0.41895900             0.26137200
SP   3   1.00
      1.7273800             -0.24463000            -0.01779510
      0.5729220              0.00431572             0.25353900
      0.2221920              1.09818000             0.80066900
SP   1   1.00
      0.0778369              1.00000000             1.00000000
D    1   1.00
      0.9000000              1.0000000
D    1   1.00
      0.2250000              1.0000000
F    1   1.00
      0.3200000              1.0000000
****
P     0
S    6   1.00
  19413.3000000              0.0018516
   2909.4200000              0.0142062
    661.3640000              0.0699995
    185.7590000              0.2400790
     59.1943000              0.4847620
     20.0310000              0.3352000
SP   6   1.00
    339.4780000             -0.00278217             0.00456462
     81.0101000             -0.0360499              0.03369360
     25.8780000             -0.1166310              0.13975500
      9.4522100              0.0968328              0.33936200
      3.6656600              0.6144180              0.45092100
      1.4674600              0.4037980              0.23858600
SP   3   1.00
      2.1562300             -0.2529230             -0.01776530
      0.7489970              0.0328517              0.27405800
      0.2831450              1.0812500              0.78542100
SP   1   1.00
      0.0998317              1.0000000              1.00000000
D    1   1.00
      1.1000000              1.0000000
D    1   1.00
      0.2750000              1.0000000
F    1   1.00
      0.4500000              1.0000000
****
S     0
S    6   1.00
  21917.1000000              0.0018690
   3301.4900000              0.0142300
    754.1460000              0.0696960
    212.7110000              0.2384870
     67.9896000              0.4833070
     23.0515000              0.3380740
SP   6   1.00
    423.7350000             -0.0023767              0.0040610
    100.7100000             -0.0316930              0.0306810
     32.1599000             -0.1133170              0.1304520
     11.8079000              0.0560900              0.3272050
      4.6311000              0.5922550              0.4528510
      1.8702500              0.4550060              0.2560420
SP   3   1.00
      2.6158400             -0.2503740             -0.0145110
      0.9221670              0.0669570              0.3102630
      0.3412870              1.0545100              0.7544830
SP   1   1.00
      0.1171670              1.0000000              1.0000000
D    1   1.00
      1.3000000              1.0000000
D    1   1.00
      0.3250000              1.0000000
F    1   1.00
      0.5500000              1.0000000
****
Cl     0
S    6   1.00
  25180.1000000              0.0018330
   3780.3500000              0.0140340
    860.4740000              0.0690970
    242.1450000              0.2374520
     77.3349000              0.4830340
     26.2470000              0.3398560
SP   6   1.00
    491.7650000             -0.0022974              0.0039894
    116.9840000             -0.0307140              0.0303180
     37.4153000             -0.1125280              0.1298800
     13.7834000              0.0450160              0.3279510
      5.4521500              0.5893530              0.4535270
      2.2258800              0.4652060              0.2521540
SP   3   1.00
      3.1864900             -0.2518300             -0.0142990
      1.1442700              0.0615890              0.3235720
      0.4203770              1.0601800              0.7435070
SP   1   1.00
      0.1426570              1.0000000              1.0000000
D    1   1.00
      1.5000000              1.0000000
D    1   1.00
      0.3750000              1.0000000
F    1   1.00
      0.7000000              1.0000000
****
}

set {
reference uhf
freeze_core true
e_convergence 10
d_convergence 10
dft_spherical_points 1202
dft_radial_points 99
}

e = energy('b3lyp')

print_out('Grab this energy {0}'.format(e))
--------------------------------------------------------------------------

    Molecular point group: c1

    Geometry (in Bohr), charge = 0, multiplicity = 2:

       Center              X                  Y                   Z               Mass
    ------------   -----------------  -----------------  -----------------  -----------------
         C           -0.321548899162    -0.000002010910     0.000000002112    12.000000000000
         C            0.061089935138    -1.399951151210    -2.426707109288    12.000000000000
         C            0.060970161638     2.801578888990     0.000965551712    12.000000000000
         C            0.061089947338    -1.401623459510     2.425741569512    12.000000000000
         H            2.085229996938    -1.641713462210    -2.848510387388     1.007825032230
         H           -0.765443306062    -0.389960915410    -4.024167460188     1.007825032230
         H           -0.770336966462    -3.293548300510    -2.348956686588     1.007825032230
         H            2.085090762538     3.287836956990     0.002599762612     1.007825032230
         H           -0.765683928962     3.679985651590     1.674336729512     1.007825032230
         H           -0.770414788262     3.681001196190    -1.677857192788     1.007825032230
         H            2.085229354738    -1.646216208610     2.845910743712     1.007825032230
         H           -0.765606135162    -3.289992245110     2.349836936412     1.007825032230
         H           -0.770173532462    -0.387419670010     4.026807387412     1.007825032230

  Charge       = 0
  Multiplicity = 2
  Basis Set: ANONYMOUS9C820FAA
    Blend: 6-31G_2DFP_
  Basis Set: (ANONYMOUS9C820FAA AUX)
    Blend: DEF2-UNIVERSAL-JKFIT

    Orbital Energies [Eh]
    ---------------------

    Alpha Occupied:

       1A    -10.180229     2A    -10.167006     3A    -10.167006
       4A    -10.166961     5A     -0.797820     6A     -0.686201
       7A     -0.686200     8A     -0.530756     9A     -0.441359
      10A     -0.434526    11A     -0.434526    12A     -0.382848
      13A     -0.382846    14A     -0.363328    15A     -0.337949
      16A     -0.337949    17A     -0.168846

    Alpha Virtual:

      18A      0.076055    19A      0.134136    20A      0.134137
      21A      0.142554    22A      0.142555    23A      0.154943
      24A      0.178886    25A      0.178886    26A      0.203591
      27A      0.214672    28A      0.276123    29A      0.276125
      30A      0.399245    31A      0.399249    32A      0.403383
      33A      0.424102    34A      0.424103    35A      0.456595
      36A      0.495339    37A      0.495339    38A      0.512263
      39A      0.513977    40A      0.578723    41A      0.578731
      42A      0.591938    43A      0.591939    44A      0.602880
      45A      0.624576    46A      0.631688    47A      0.636108
      48A      0.636111    49A      0.663584    50A      0.663584
      51A      0.683838    52A      0.683839    53A      0.735123
      54A      0.825579    55A      0.825582    56A      0.853868
      57A      0.915190    58A      0.915196    59A      0.944199
      60A      0.944661    61A      0.961189    62A      0.961206
      63A      1.002576    64A      1.127867    65A      1.127880
      66A      1.142589    67A      1.163419    68A      1.163432
      69A      1.223740    70A      1.274776    71A      1.274779
      72A      1.279499    73A      1.324227    74A      1.324229
      75A      1.357019    76A      1.365704    77A      1.365708
      78A      1.392389    79A      1.404673    80A      1.404675
      81A      1.417723    82A      1.417729    83A      1.428094
      84A      1.490995    85A      1.499604    86A      1.542420
      87A      1.542421    88A      1.574378    89A      1.574380
      90A      1.669301    91A      1.739614    92A      1.739626
      93A      1.768522    94A      1.831079    95A      1.831080
      96A      1.971141    97A      2.018615    98A      2.019343
      99A      2.019347   100A      2.053022   101A      2.053023
     102A      2.738814   103A      2.738815   104A      2.791144
     105A      2.811153   106A      2.890127   107A      2.890133
     108A      2.894902   109A      2.929342   110A      2.929350
     111A      2.958830   112A      2.964407   113A      2.964421
     114A      3.034037   115A      3.071904   116A      3.071917
     117A      3.084308   118A      3.168797   119A      3.168805
     120A      3.180393   121A      3.284954   122A      3.284955
     123A      3.326241   124A      3.326247   125A      3.375913
     126A      3.490347   127A      3.490367   128A      3.514462
     129A      3.525181   130A      3.568802   131A      3.568823
     132A      3.575591   133A      3.666389   134A      3.666397
     135A      3.678641   136A      3.694401   137A      3.694417
     138A      3.777673   139A      3.777699   140A      3.790435
     141A      3.912122   142A      3.912128   143A      4.035619
     144A      4.110932   145A      4.110936   146A      4.147941
     147A      4.147949   148A      4.173249   149A      4.203009
     150A      4.203402   151A      4.203405   152A      4.211107
     153A      4.316153   154A      4.316173   155A      4.358852
     156A      4.425070   157A      4.425073   158A      4.442569
     159A      4.516717   160A      4.516719   161A      4.578176
     162A      4.578188   163A      4.618361   164A      4.709900
     165A      4.774847   166A      4.774855   167A      4.837131
     168A      4.962809   169A      5.003655   170A      5.003667
     171A      5.228110   172A      5.246718   173A      5.246719
     174A      5.355141   175A      5.355154   176A      5.479892

    Beta Occupied:

       1A    -10.167760     2A    -10.167760     3A    -10.167734
       4A    -10.166404     5A     -0.781129     6A     -0.683999
       7A     -0.683999     8A     -0.511723     9A     -0.430886
      10A     -0.430885    11A     -0.422063    12A     -0.376945
      13A     -0.376943    14A     -0.362311    15A     -0.333075
      16A     -0.333075

    Beta Virtual:

      17A     -0.025594    18A      0.077062    19A      0.134994
      20A      0.134995    21A      0.144434    22A      0.144434
      23A      0.163371    24A      0.182567    25A      0.182568
      26A      0.214899    27A      0.219003    28A      0.282459
      29A      0.282461    30A      0.400410    31A      0.400414
      32A      0.419771    33A      0.426917    34A      0.426917
      35A      0.468567    36A      0.497599    37A      0.497599
      38A      0.513995    39A      0.556368    40A      0.584282
      41A      0.584290    42A      0.598101    43A      0.598102
      44A      0.610276    45A      0.627955    46A      0.631875
      47A      0.639411    48A      0.639415    49A      0.667121
      50A      0.667122    51A      0.686475    52A      0.686476
      53A      0.757640    54A      0.830727    55A      0.830729
      56A      0.855219    57A      0.923157    58A      0.923164
      59A      0.946063    60A      0.953598    61A      0.966513
      62A      0.966529    63A      1.007768    64A      1.132001
      65A      1.132013    66A      1.155958    67A      1.168430
      68A      1.168443    69A      1.232720    70A      1.280356
      71A      1.280359    72A      1.285260    73A      1.329158
      74A      1.329160    75A      1.366452    76A      1.370943
      77A      1.370948    78A      1.393437    79A      1.408157
      80A      1.408160    81A      1.422787    82A      1.422794
      83A      1.428381    84A      1.492050    85A      1.510057
      86A      1.546726    87A      1.546727    88A      1.582347
      89A      1.582348    90A      1.674162    91A      1.745367
      92A      1.745378    93A      1.779296    94A      1.834941
      95A      1.834942    96A      1.972015    97A      2.025784
      98A      2.025787    99A      2.039953   100A      2.059713
     101A      2.059713   102A      2.747147   103A      2.747148
     104A      2.811561   105A      2.816335   106A      2.902801
     107A      2.902807   108A      2.924697   109A      2.931847
     110A      2.931856   111A      2.959893   112A      2.968936
     113A      2.968950   114A      3.041929   115A      3.081791
     116A      3.081802   117A      3.086122   118A      3.184629
     119A      3.184634   120A      3.188002   121A      3.289797
     122A      3.289797   123A      3.330030   124A      3.330035
     125A      3.383769   126A      3.493069   127A      3.493089
     128A      3.512828   129A      3.528258   130A      3.575464
     131A      3.582070   132A      3.582091   133A      3.671205
     134A      3.671216   135A      3.691952   136A      3.726007
     137A      3.726023   138A      3.782160   139A      3.782186
     140A      3.818955   141A      3.921936   142A      3.921943
     143A      4.046495   144A      4.117765   145A      4.117768
     146A      4.155141   147A      4.155150   148A      4.187235
     149A      4.209341   150A      4.209345   151A      4.210960
     152A      4.215620   153A      4.323607   154A      4.323628
     155A      4.362200   156A      4.433227   157A      4.433229
     158A      4.445478   159A      4.524506   160A      4.524508
     161A      4.588801   162A      4.588813   163A      4.625628
     164A      4.720154   165A      4.781823   166A      4.781831
     167A      4.840050   168A      4.967588   169A      5.007682
     170A      5.007694   171A      5.233857   172A      5.248517
     173A      5.248517   174A      5.361633   175A      5.361647
     176A      5.482214

    Final Occupation by Irrep:
              A
    DOCC [    16 ]
    SOCC [     1 ]

  @DF-UKS Final Energy:  -157.81306334805302

   => Energetics <=

    Nuclear Repulsion Energy =            125.4033837688171786
    One-Electron Energy =                -458.7665035793343691
    Two-Electron Energy =                 195.8574577327591726
    DFT Exchange-Correlation Energy =     -20.3074012702949673
    Empirical Dispersion Energy =           0.0000000000000000
    VV10 Nonlocal Energy =                  0.0000000000000000
    Total Energy =                       -157.8130633480530207

  UHF NO Occupations:
  HONO-2 :   15  A 1.9996019
  HONO-1 :   16  A 1.9989796
  HONO-0 :   17  A 1.0000000
  LUNO+0 :   18  A 0.0010204
  LUNO+1 :   19  A 0.0003981
  LUNO+2 :   20  A 0.0001975
  LUNO+3 :   21  A 0.0001975

Computation Completed

Properties will be evaluated at   0.000000,   0.000000,   0.000000 [a0]

Properties computed using the SCF density matrix

  Nuclear Dipole Moment: [e a0]
     X:     0.8175      Y:    -0.0000      Z:    -0.0000

  Electronic Dipole Moment: [e a0]
     X:    -0.7395      Y:     0.0000      Z:     0.0000

  Dipole Moment: [e a0]
     X:     0.0780      Y:     0.0000      Z:     0.0000     Total:     0.0780

  Dipole Moment: [D]
     X:     0.1984      Y:     0.0000      Z:     0.0000     Total:     0.1984

*** tstop() called on n071 at Fri Nov  5 13:33:41 2021
Module time:
	user time   =     544.85 seconds =       9.08 minutes
	system time =      13.19 seconds =       0.22 minutes
	total time  =        140 seconds =       2.33 minutes
Total time:
	user time   =     544.85 seconds =       9.08 minutes
	system time =      13.19 seconds =       0.22 minutes
	total time  =        140 seconds =       2.33 minutes
Grab this energy -157.81306334805302
    Psi4 stopped on: Friday, 05 November 2021 01:33PM
    Psi4 wall time for execution: 0:02:20.80

*** Psi4 exiting successfully. Buy a developer a beer!
