                               Psi4 1.4a2.dev629

  ==> Input File <==

--------------------------------------------------------------------------
import os
memory 14 GB

molecule {
 C   -0.3233627645    0.0002438316   -0.0000000000
 C    0.0616032732   -1.4006287010   -2.4256926491
 C    0.0598152481    2.8012241287    0.0000000000
 C    0.0616032732   -1.4006287010    2.4256926491
 H    2.0917112322   -1.6468367564   -2.8489687718
 H   -0.7652739314   -0.3840764501   -4.0247604754
 H   -0.7671083446   -3.2938172685   -2.3476649179
 H    2.0866991065    3.2816468053    0.0000000000
 H   -0.7688119628    3.6837896363    1.6793984165
 H   -0.7688119628    3.6837896363   -1.6793984165
 H    2.0917112322   -1.6468367564    2.8489687718
 H   -0.7671083446   -3.2938172685    2.3476649179
 H   -0.7652739314   -0.3840764501    4.0247604754
units bohr
0 2
}

basis {

assign 6-31g_2dfp_

[ 6-31g_2dfp_ ]

spherical

!----------------------------------------------------------------------
! Basis Set Exchange
! Version v0.8.13
! https://www.basissetexchange.org
!----------------------------------------------------------------------
!   Basis set: 6-31G(2df,p)
! Description: 6-31G(2df,p)
!        Role: orbital
!     Version: 0  (Data from the original Basis Set Exchange)
!----------------------------------------------------------------------

****
H     0
S    3   1.00
     18.7311370              0.03349460
      2.8253937              0.23472695
      0.6401217              0.81375733
S    1   1.00
      0.1612778              1.00000000
P    1   1.00
      1.5000000              1.0000000
P    1   1.00
      0.3750000              1.0000000
****
B     0
S    6   1.00
   2068.8823000              0.0018663
    310.6495700              0.0142515
     70.6830330              0.0695516
     19.8610800              0.2325729
      6.2993048              0.4670787
      2.1270270              0.3634314
SP   3   1.00
      4.7279710             -0.1303938              0.0745976
      1.1903377             -0.1307889              0.3078467
      0.3594117              1.1309444              0.7434568
SP   1   1.00
      0.1267512              1.0000000              1.0000000
D    1   1.00
      0.8020000              1.0000000
D    1   1.00
      0.2005000              1.0000000
F    1   1.00
      0.5000000              1.0000000
****
C     0
S    6   1.00
   3047.5249000              0.0018347
    457.3695100              0.0140373
    103.9486900              0.0688426
     29.2101550              0.2321844
      9.2866630              0.4679413
      3.1639270              0.3623120
SP   3   1.00
      7.8682724             -0.1193324              0.0689991
      1.8812885             -0.1608542              0.3164240
      0.5442493              1.1434564              0.7443083
SP   1   1.00
      0.1687144              1.0000000              1.0000000
D    1   1.00
      1.2520000              1.0000000
D    1   1.00
      0.3130000              1.0000000
F    1   1.00
      0.8000000              1.0000000
****
N     0
S    6   1.00
   4173.5110000              0.0018348
    627.4579000              0.0139950
    142.9021000              0.0685870
     40.2343300              0.2322410
     12.8202100              0.4690700
      4.3904370              0.3604550
SP   3   1.00
     11.6263580             -0.1149610              0.0675800
      2.7162800             -0.1691180              0.3239070
      0.7722180              1.1458520              0.7408950
SP   1   1.00
      0.2120313              1.0000000              1.0000000
D    1   1.00
      1.8260000              1.0000000
D    1   1.00
      0.4565000              1.0000000
F    1   1.00
      1.0000000              1.0000000
****
O     0
S    6   1.00
   5484.6717000              0.0018311
    825.2349500              0.0139501
    188.0469600              0.0684451
     52.9645000              0.2327143
     16.8975700              0.4701930
      5.7996353              0.3585209
SP   3   1.00
     15.5396160             -0.1107775              0.0708743
      3.5999336             -0.1480263              0.3397528
      1.0137618              1.1307670              0.7271586
SP   1   1.00
      0.2700058              1.0000000              1.0000000
D    1   1.00
      2.5840000              1.0000000
D    1   1.00
      0.6460000              1.0000000
F    1   1.00
      1.4000000              1.0000000
****
F     0
S    6   1.00
   7001.7130900              0.0018196169
   1051.3660900              0.0139160796
    239.2856900              0.0684053245
     67.3974453              0.233185760
     21.5199573              0.471267439
      7.40310130             0.356618546
SP   3   1.00
     20.8479528             -0.108506975            0.0716287243
      4.80830834            -0.146451658            0.3459121030
      1.34406986             1.128688580            0.7224699570
SP   1   1.00
      0.358151393            1.0000000              1.0000000
D    1   1.00
      3.5000000              1.0000000
D    1   1.00
      0.8750000              1.0000000
F    1   1.00
      1.8500000              1.0000000
****
Al     0
S    6   1.00
  13983.1000000              0.00194267
   2098.7500000              0.0148599
    477.7050000              0.0728494
    134.3600000              0.2468300
     42.8709000              0.4872580
     14.5189000              0.3234960
SP   6   1.00
    239.6680000             -0.00292619             0.00460285
     57.4419000             -0.0374080              0.0331990
     18.2859000             -0.1144870              0.1362820
      6.5991400              0.1156350              0.3304760
      2.4904900              0.6125950              0.4491460
      0.9445400              0.3937990              0.2657040
SP   3   1.00
      1.2779000             -0.2276060             -0.0175130
      0.3975900              0.00144583             0.2445330
      0.1600950              1.0927900              0.8049340
SP   1   1.00
      0.0556577              1.0000000              1.0000000
D    1   1.00
      0.6500000              1.0000000
D    1   1.00
      0.1625000              1.0000000
F    1   1.00
      0.2500000              1.0000000
****
Si     0
S    6   1.00
  16115.9000000              0.00195948
   2425.5800000              0.01492880
    553.8670000              0.07284780
    156.3400000              0.24613000
     50.0683000              0.48591400
     17.0178000              0.32500200
SP   6   1.00
    292.7180000             -0.00278094             0.00443826
     69.8731000             -0.03571460             0.03266790
     22.3363000             -0.11498500             0.13472100
      8.1503900              0.09356340             0.32867800
      3.1345800              0.60301700             0.44964000
      1.2254300              0.41895900             0.26137200
SP   3   1.00
      1.7273800             -0.24463000            -0.01779510
      0.5729220              0.00431572             0.25353900
      0.2221920              1.09818000             0.80066900
SP   1   1.00
      0.0778369              1.00000000             1.00000000
D    1   1.00
      0.9000000              1.0000000
D    1   1.00
      0.2250000              1.0000000
F    1   1.00
      0.3200000              1.0000000
****
P     0
S    6   1.00
  19413.3000000              0.0018516
   2909.4200000              0.0142062
    661.3640000              0.0699995
    185.7590000              0.2400790
     59.1943000              0.4847620
     20.0310000              0.3352000
SP   6   1.00
    339.4780000             -0.00278217             0.00456462
     81.0101000             -0.0360499              0.03369360
     25.8780000             -0.1166310              0.13975500
      9.4522100              0.0968328              0.33936200
      3.6656600              0.6144180              0.45092100
      1.4674600              0.4037980              0.23858600
SP   3   1.00
      2.1562300             -0.2529230             -0.01776530
      0.7489970              0.0328517              0.27405800
      0.2831450              1.0812500              0.78542100
SP   1   1.00
      0.0998317              1.0000000              1.00000000
D    1   1.00
      1.1000000              1.0000000
D    1   1.00
      0.2750000              1.0000000
F    1   1.00
      0.4500000              1.0000000
****
S     0
S    6   1.00
  21917.1000000              0.0018690
   3301.4900000              0.0142300
    754.1460000              0.0696960
    212.7110000              0.2384870
     67.9896000              0.4833070
     23.0515000              0.3380740
SP   6   1.00
    423.7350000             -0.0023767              0.0040610
    100.7100000             -0.0316930              0.0306810
     32.1599000             -0.1133170              0.1304520
     11.8079000              0.0560900              0.3272050
      4.6311000              0.5922550              0.4528510
      1.8702500              0.4550060              0.2560420
SP   3   1.00
      2.6158400             -0.2503740             -0.0145110
      0.9221670              0.0669570              0.3102630
      0.3412870              1.0545100              0.7544830
SP   1   1.00
      0.1171670              1.0000000              1.0000000
D    1   1.00
      1.3000000              1.0000000
D    1   1.00
      0.3250000              1.0000000
F    1   1.00
      0.5500000              1.0000000
****
Cl     0
S    6   1.00
  25180.1000000              0.0018330
   3780.3500000              0.0140340
    860.4740000              0.0690970
    242.1450000              0.2374520
     77.3349000              0.4830340
     26.2470000              0.3398560
SP   6   1.00
    491.7650000             -0.0022974              0.0039894
    116.9840000             -0.0307140              0.0303180
     37.4153000             -0.1125280              0.1298800
     13.7834000              0.0450160              0.3279510
      5.4521500              0.5893530              0.4535270
      2.2258800              0.4652060              0.2521540
SP   3   1.00
      3.1864900             -0.2518300             -0.0142990
      1.1442700              0.0615890              0.3235720
      0.4203770              1.0601800              0.7435070
SP   1   1.00
      0.1426570              1.0000000              1.0000000
D    1   1.00
      1.5000000              1.0000000
D    1   1.00
      0.3750000              1.0000000
F    1   1.00
      0.7000000              1.0000000
****
}

set {
reference uhf
freeze_core true
e_convergence 10
d_convergence 10
dft_spherical_points 1202
dft_radial_points 99
}

e = energy('b3lyp')

print_out('Grab this energy {0}'.format(e))
--------------------------------------------------------------------------

    Molecular point group: cs

    Geometry (in Bohr), charge = 0, multiplicity = 2:

       Center              X                  Y                   Z               Mass
    ------------   -----------------  -----------------  -----------------  -----------------
         C           -0.323304792591     0.000203705920     0.000000000000    12.000000000000
         C            0.061661245109    -1.400668826680    -2.425692649100    12.000000000000
         C            0.059873220009     2.801184003020     0.000000000000    12.000000000000
         C            0.061661245109    -1.400668826680     2.425692649100    12.000000000000
         H            2.091769204109    -1.646876882080    -2.848968771800     1.007825032230
         H           -0.765215959491    -0.384116575780    -4.024760475400     1.007825032230
         H           -0.767050372691    -3.293857394180    -2.347664917900     1.007825032230
         H            2.086757078409     3.281606679620     0.000000000000     1.007825032230
         H           -0.768753990891     3.683749510620     1.679398416500     1.007825032230
         H           -0.768753990891     3.683749510620    -1.679398416500     1.007825032230
         H            2.091769204109    -1.646876882080     2.848968771800     1.007825032230
         H           -0.767050372691    -3.293857394180     2.347664917900     1.007825032230
         H           -0.765215959491    -0.384116575780     4.024760475400     1.007825032230

  Charge       = 0
  Multiplicity = 2
  Basis Set: ANONYMOUS8203E333
    Blend: 6-31G_2DFP_
  Basis Set: (ANONYMOUS8203E333 AUX)
    Blend: DEF2-UNIVERSAL-JKFIT

    Orbital Energies [Eh]
    ---------------------

    Alpha Occupied:

       1Ap   -10.180410     2Ap   -10.167591     1App  -10.167549
       3Ap   -10.167512     4Ap    -0.797807     5Ap    -0.685858
       2App   -0.685798     6Ap    -0.530465     7Ap    -0.441025
       8Ap    -0.434618     3App   -0.434447     9Ap    -0.382564
       4App   -0.382115     5App   -0.363295    10Ap    -0.338147
       6App   -0.337841    11Ap    -0.169023

    Alpha Virtual:

      12Ap     0.075740     7App    0.133738    13Ap     0.133836
       8App    0.142012    14Ap     0.142424    15Ap     0.154582
       9App    0.178137    16Ap     0.178402    17Ap     0.203660
      10App    0.214347    11App    0.275941    18Ap     0.275984
      19Ap     0.399154    12App    0.399412    20Ap     0.403136
      21Ap     0.423721    13App    0.423926    22Ap     0.456461
      23Ap     0.495154    14App    0.495177    15App    0.511892
      24Ap     0.513848    25Ap     0.578343    16App    0.578608
      17App    0.590779    26Ap     0.591265    27Ap     0.601954
      28Ap     0.623791    18App    0.631049    19App    0.635495
      29Ap     0.635906    30Ap     0.663037    20App    0.663122
      31Ap     0.683193    21App    0.683419    32Ap     0.734683
      22App    0.824530    33Ap     0.824649    23App    0.853398
      24App    0.913995    34Ap     0.914631    25App    0.943485
      35Ap     0.943823    26App    0.960572    36Ap     0.960729
      37Ap     1.003352    38Ap     1.127276    27App    1.128104
      39Ap     1.141332    40Ap     1.162864    28App    1.163174
      41Ap     1.222882    42Ap     1.273841    29App    1.274058
      43Ap     1.279816    30App    1.323565    44Ap     1.323719
      45Ap     1.355123    31App    1.365551    46Ap     1.365565
      32App    1.391867    33App    1.402529    47Ap     1.403509
      34App    1.415816    48Ap     1.416513    35App    1.427170
      36App    1.490613    49Ap     1.497704    37App    1.542290
      50Ap     1.542349    38App    1.573824    51Ap     1.574752
      52Ap     1.667666    39App    1.737897    53Ap     1.738060
      54Ap     1.766817    55Ap     1.828504    40App    1.829347
      41App    1.970093    56Ap     2.017218    42App    2.017773
      57Ap     2.017927    43App    2.051102    58Ap     2.052019
      44App    2.737499    59Ap     2.737525    60Ap     2.790715
      45App    2.810918    61Ap     2.889199    46App    2.889553
      62Ap     2.894897    47App    2.928809    63Ap     2.929420
      48App    2.958371    64Ap     2.963537    49App    2.963933
      65Ap     3.033102    50App    3.069688    66Ap     3.070993
      51App    3.083431    67Ap     3.169216    52App    3.169688
      68Ap     3.180283    69Ap     3.285236    53App    3.285471
      70Ap     3.326798    54App    3.328557    71Ap     3.376313
      55App    3.490089    72Ap     3.492215    56App    3.514302
      73Ap     3.525962    74Ap     3.568124    57App    3.568164
      58App    3.576937    59App    3.665200    75Ap     3.666055
      76Ap     3.677836    60App    3.692662    77Ap     3.693938
      78Ap     3.776178    61App    3.776330    79Ap     3.788608
      80Ap     3.911155    62App    3.911419    81Ap     4.032096
      63App    4.108782    82Ap     4.109012    64App    4.144758
      83Ap     4.144843    84Ap     4.170295    85Ap     4.200717
      86Ap     4.201888    65App    4.202012    66App    4.207156
      67App    4.313540    87Ap     4.313916    68App    4.356567
      69App    4.421819    88Ap     4.421965    70App    4.441382
      71App    4.513813    89Ap     4.514985    90Ap     4.576789
      72App    4.576807    91Ap     4.616895    92Ap     4.707381
      73App    4.772225    93Ap     4.773437    74App    4.834558
      94Ap     4.962091    75App    5.001309    95Ap     5.002424
      96Ap     5.222776    76App    5.240970    97Ap     5.242063
      98Ap     5.350866    77App    5.350981    78App    5.476128

    Beta Occupied:

       1Ap   -10.168345     1App  -10.168307     2Ap   -10.168283
       3Ap   -10.166603     4Ap    -0.781104     5Ap    -0.683657
       2App   -0.683608     6Ap    -0.511494     7Ap    -0.430992
       3App   -0.430798     8Ap    -0.421688     9Ap    -0.376646
       4App   -0.376185     5App   -0.362276    10Ap    -0.333268
       6App   -0.332985

    Beta Virtual:

      11Ap    -0.025976    12Ap     0.076753     7App    0.134626
      13Ap     0.134711     8App    0.143934    14Ap     0.144299
      15Ap     0.163104     9App    0.181813    16Ap     0.182088
      10App    0.214578    17Ap     0.219022    11App    0.282274
      18Ap     0.282328    19Ap     0.400332    12App    0.400581
      20Ap     0.419569    21Ap     0.426529    13App    0.426736
      22Ap     0.468386    23Ap     0.497416    14App    0.497440
      15App    0.513633    24Ap     0.556134    25Ap     0.583872
      16App    0.584147    17App    0.596933    26Ap     0.597432
      27Ap     0.609384    28Ap     0.627179    18App    0.631222
      19App    0.638795    29Ap     0.639212    30Ap     0.666587
      20App    0.666689    31Ap     0.685880    21App    0.686073
      32Ap     0.757181    22App    0.829703    33Ap     0.829817
      23App    0.854775    24App    0.922006    34Ap     0.922593
      25App    0.945325    35Ap     0.952727    26App    0.965897
      36Ap     0.966032    37Ap     1.008580    38Ap     1.131362
      27App    1.132099    39Ap     1.154715    40Ap     1.167882
      28App    1.168251    41Ap     1.231871    42Ap     1.279465
      29App    1.279655    43Ap     1.285582    30App    1.328523
      44Ap     1.328686    45Ap     1.364502    46Ap     1.370807
      31App    1.370814    32App    1.392931    33App    1.405991
      47Ap     1.406983    34App    1.420857    48Ap     1.421560
      35App    1.427462    36App    1.491655    49Ap     1.508144
      50Ap     1.546789    37App    1.546937    38App    1.581490
      51Ap     1.582608    52Ap     1.672440    39App    1.743655
      53Ap     1.743815    54Ap     1.777651    55Ap     1.832395
      40App    1.833228    41App    1.970957    42App    2.024213
      56Ap     2.024327    57Ap     2.038610    43App    2.057805
      58Ap     2.058750    44App    2.745810    59Ap     2.745860
      45App    2.811326    60Ap     2.815825    61Ap     2.901841
      46App    2.902219    62Ap     2.924542    47App    2.931352
      63Ap     2.931942    48App    2.959432    64Ap     2.968041
      49App    2.968432    65Ap     3.041118    50App    3.079500
      66Ap     3.080887    51App    3.085242    67Ap     3.185016
      52App    3.185485    68Ap     3.187902    69Ap     3.290052
      53App    3.290362    70Ap     3.330606    54App    3.332342
      71Ap     3.384107    55App    3.492796    72Ap     3.494878
      56App    3.512661    73Ap     3.528992    57App    3.576519
      58App    3.581550    74Ap     3.581651    59App    3.669706
      75Ap     3.670537    76Ap     3.691060    60App    3.724682
      77Ap     3.725479    78Ap     3.780755    61App    3.780843
      79Ap     3.817111    80Ap     3.920979    62App    3.921257
      81Ap     4.042861    63App    4.115547    82Ap     4.115723
      64App    4.151924    83Ap     4.152173    84Ap     4.184497
      85Ap     4.207123    65App    4.207948    86Ap     4.209465
      66App    4.211656    67App    4.321091    87Ap     4.321409
      68App    4.359938    69App    4.430053    88Ap     4.430221
      70App    4.444281    71App    4.521622    89Ap     4.522780
      90Ap     4.587407    72App    4.587457    91Ap     4.624096
      92Ap     4.717729    73App    4.779151    93Ap     4.780426
      74App    4.837470    94Ap     4.966912    75App    5.005384
      95Ap     5.006468    96Ap     5.228517    76App    5.242761
      97Ap     5.243851    98Ap     5.357381    77App    5.357482
      78App    5.478461

    Final Occupation by Irrep:
             Ap   App
    DOCC [    10,    6 ]
    SOCC [     1,    0 ]

  @DF-UKS Final Energy:  -157.81308710735624

   => Energetics <=

    Nuclear Repulsion Energy =            125.3572867731136000
    One-Electron Energy =                -458.6780893190638722
    Two-Electron Energy =                 195.8108388503275705
    DFT Exchange-Correlation Energy =     -20.3031234117335018
    Empirical Dispersion Energy =           0.0000000000000000
    VV10 Nonlocal Energy =                  0.0000000000000000
    Total Energy =                       -157.8130871073562389

  UHF NO Occupations:
  HONO-2 :    9 Ap 1.9995983
  HONO-1 :   10 Ap 1.9989811
  HONO-0 :   11 Ap 1.0000000
  LUNO+0 :   12 Ap 0.0010189
  LUNO+1 :   13 Ap 0.0004017
  LUNO+2 :    7App 0.0001973
  LUNO+3 :   14 Ap 0.0001970

Computation Completed

Properties will be evaluated at   0.000000,   0.000000,   0.000000 [a0]

Properties computed using the SCF density matrix

  Nuclear Dipole Moment: [e a0]
     X:     0.8276      Y:    -0.0003      Z:     0.0000

  Electronic Dipole Moment: [e a0]
     X:    -0.7503      Y:     0.0011      Z:     0.0000

  Dipole Moment: [e a0]
     X:     0.0773      Y:     0.0008      Z:     0.0000     Total:     0.0773

  Dipole Moment: [D]
     X:     0.1964      Y:     0.0019      Z:     0.0000     Total:     0.1964

*** tstop() called on n091 at Fri Nov  5 14:56:52 2021
Module time:
	user time   =     495.26 seconds =       8.25 minutes
	system time =       4.49 seconds =       0.07 minutes
	total time  =        125 seconds =       2.08 minutes
Total time:
	user time   =     495.26 seconds =       8.25 minutes
	system time =       4.49 seconds =       0.07 minutes
	total time  =        125 seconds =       2.08 minutes
Grab this energy -157.81308710735624
    Psi4 stopped on: Friday, 05 November 2021 02:56PM
    Psi4 wall time for execution: 0:02:05.67

*** Psi4 exiting successfully. Buy a developer a beer!
