                               Psi4 1.4a2.dev629

  ==> Input File <==

--------------------------------------------------------------------------
import os
memory 14 GB

molecule {
 C   -0.3233417898   -0.0024951028   -0.0000000000
 C    0.0603743734   -1.4018426164   -2.4253896772
 C    0.0625494787    2.8025107173   -0.0000000000
 C    0.0603743734   -1.4018426164    2.4253896772
 H    2.0891092640   -1.6460382664   -2.8433860680
 H   -0.7659548359   -0.3869226823   -4.0212322174
 H   -0.7664153419   -3.2917827167   -2.3544173288
 H    2.0824438655    3.2931678302    0.0000000000
 H   -0.7642431751    3.6799824026    1.6803937453
 H   -0.7642431751    3.6799824026   -1.6803937453
 H    2.0891092640   -1.6460382664    2.8433860680
 H   -0.7664153419   -3.2917827167    2.3544173288
 H   -0.7659548359   -0.3869226823    4.0212322174
units bohr
0 2
}

basis {

assign 6-31g_2dfp_

[ 6-31g_2dfp_ ]

spherical

!----------------------------------------------------------------------
! Basis Set Exchange
! Version v0.8.13
! https://www.basissetexchange.org
!----------------------------------------------------------------------
!   Basis set: 6-31G(2df,p)
! Description: 6-31G(2df,p)
!        Role: orbital
!     Version: 0  (Data from the original Basis Set Exchange)
!----------------------------------------------------------------------

****
H     0
S    3   1.00
     18.7311370              0.03349460
      2.8253937              0.23472695
      0.6401217              0.81375733
S    1   1.00
      0.1612778              1.00000000
P    1   1.00
      1.5000000              1.0000000
P    1   1.00
      0.3750000              1.0000000
****
B     0
S    6   1.00
   2068.8823000              0.0018663
    310.6495700              0.0142515
     70.6830330              0.0695516
     19.8610800              0.2325729
      6.2993048              0.4670787
      2.1270270              0.3634314
SP   3   1.00
      4.7279710             -0.1303938              0.0745976
      1.1903377             -0.1307889              0.3078467
      0.3594117              1.1309444              0.7434568
SP   1   1.00
      0.1267512              1.0000000              1.0000000
D    1   1.00
      0.8020000              1.0000000
D    1   1.00
      0.2005000              1.0000000
F    1   1.00
      0.5000000              1.0000000
****
C     0
S    6   1.00
   3047.5249000              0.0018347
    457.3695100              0.0140373
    103.9486900              0.0688426
     29.2101550              0.2321844
      9.2866630              0.4679413
      3.1639270              0.3623120
SP   3   1.00
      7.8682724             -0.1193324              0.0689991
      1.8812885             -0.1608542              0.3164240
      0.5442493              1.1434564              0.7443083
SP   1   1.00
      0.1687144              1.0000000              1.0000000
D    1   1.00
      1.2520000              1.0000000
D    1   1.00
      0.3130000              1.0000000
F    1   1.00
      0.8000000              1.0000000
****
N     0
S    6   1.00
   4173.5110000              0.0018348
    627.4579000              0.0139950
    142.9021000              0.0685870
     40.2343300              0.2322410
     12.8202100              0.4690700
      4.3904370              0.3604550
SP   3   1.00
     11.6263580             -0.1149610              0.0675800
      2.7162800             -0.1691180              0.3239070
      0.7722180              1.1458520              0.7408950
SP   1   1.00
      0.2120313              1.0000000              1.0000000
D    1   1.00
      1.8260000              1.0000000
D    1   1.00
      0.4565000              1.0000000
F    1   1.00
      1.0000000              1.0000000
****
O     0
S    6   1.00
   5484.6717000              0.0018311
    825.2349500              0.0139501
    188.0469600              0.0684451
     52.9645000              0.2327143
     16.8975700              0.4701930
      5.7996353              0.3585209
SP   3   1.00
     15.5396160             -0.1107775              0.0708743
      3.5999336             -0.1480263              0.3397528
      1.0137618              1.1307670              0.7271586
SP   1   1.00
      0.2700058              1.0000000              1.0000000
D    1   1.00
      2.5840000              1.0000000
D    1   1.00
      0.6460000              1.0000000
F    1   1.00
      1.4000000              1.0000000
****
F     0
S    6   1.00
   7001.7130900              0.0018196169
   1051.3660900              0.0139160796
    239.2856900              0.0684053245
     67.3974453              0.233185760
     21.5199573              0.471267439
      7.40310130             0.356618546
SP   3   1.00
     20.8479528             -0.108506975            0.0716287243
      4.80830834            -0.146451658            0.3459121030
      1.34406986             1.128688580            0.7224699570
SP   1   1.00
      0.358151393            1.0000000              1.0000000
D    1   1.00
      3.5000000              1.0000000
D    1   1.00
      0.8750000              1.0000000
F    1   1.00
      1.8500000              1.0000000
****
Al     0
S    6   1.00
  13983.1000000              0.00194267
   2098.7500000              0.0148599
    477.7050000              0.0728494
    134.3600000              0.2468300
     42.8709000              0.4872580
     14.5189000              0.3234960
SP   6   1.00
    239.6680000             -0.00292619             0.00460285
     57.4419000             -0.0374080              0.0331990
     18.2859000             -0.1144870              0.1362820
      6.5991400              0.1156350              0.3304760
      2.4904900              0.6125950              0.4491460
      0.9445400              0.3937990              0.2657040
SP   3   1.00
      1.2779000             -0.2276060             -0.0175130
      0.3975900              0.00144583             0.2445330
      0.1600950              1.0927900              0.8049340
SP   1   1.00
      0.0556577              1.0000000              1.0000000
D    1   1.00
      0.6500000              1.0000000
D    1   1.00
      0.1625000              1.0000000
F    1   1.00
      0.2500000              1.0000000
****
Si     0
S    6   1.00
  16115.9000000              0.00195948
   2425.5800000              0.01492880
    553.8670000              0.07284780
    156.3400000              0.24613000
     50.0683000              0.48591400
     17.0178000              0.32500200
SP   6   1.00
    292.7180000             -0.00278094             0.00443826
     69.8731000             -0.03571460             0.03266790
     22.3363000             -0.11498500             0.13472100
      8.1503900              0.09356340             0.32867800
      3.1345800              0.60301700             0.44964000
      1.2254300              0.41895900             0.26137200
SP   3   1.00
      1.7273800             -0.24463000            -0.01779510
      0.5729220              0.00431572             0.25353900
      0.2221920              1.09818000             0.80066900
SP   1   1.00
      0.0778369              1.00000000             1.00000000
D    1   1.00
      0.9000000              1.0000000
D    1   1.00
      0.2250000              1.0000000
F    1   1.00
      0.3200000              1.0000000
****
P     0
S    6   1.00
  19413.3000000              0.0018516
   2909.4200000              0.0142062
    661.3640000              0.0699995
    185.7590000              0.2400790
     59.1943000              0.4847620
     20.0310000              0.3352000
SP   6   1.00
    339.4780000             -0.00278217             0.00456462
     81.0101000             -0.0360499              0.03369360
     25.8780000             -0.1166310              0.13975500
      9.4522100              0.0968328              0.33936200
      3.6656600              0.6144180              0.45092100
      1.4674600              0.4037980              0.23858600
SP   3   1.00
      2.1562300             -0.2529230             -0.01776530
      0.7489970              0.0328517              0.27405800
      0.2831450              1.0812500              0.78542100
SP   1   1.00
      0.0998317              1.0000000              1.00000000
D    1   1.00
      1.1000000              1.0000000
D    1   1.00
      0.2750000              1.0000000
F    1   1.00
      0.4500000              1.0000000
****
S     0
S    6   1.00
  21917.1000000              0.0018690
   3301.4900000              0.0142300
    754.1460000              0.0696960
    212.7110000              0.2384870
     67.9896000              0.4833070
     23.0515000              0.3380740
SP   6   1.00
    423.7350000             -0.0023767              0.0040610
    100.7100000             -0.0316930              0.0306810
     32.1599000             -0.1133170              0.1304520
     11.8079000              0.0560900              0.3272050
      4.6311000              0.5922550              0.4528510
      1.8702500              0.4550060              0.2560420
SP   3   1.00
      2.6158400             -0.2503740             -0.0145110
      0.9221670              0.0669570              0.3102630
      0.3412870              1.0545100              0.7544830
SP   1   1.00
      0.1171670              1.0000000              1.0000000
D    1   1.00
      1.3000000              1.0000000
D    1   1.00
      0.3250000              1.0000000
F    1   1.00
      0.5500000              1.0000000
****
Cl     0
S    6   1.00
  25180.1000000              0.0018330
   3780.3500000              0.0140340
    860.4740000              0.0690970
    242.1450000              0.2374520
     77.3349000              0.4830340
     26.2470000              0.3398560
SP   6   1.00
    491.7650000             -0.0022974              0.0039894
    116.9840000             -0.0307140              0.0303180
     37.4153000             -0.1125280              0.1298800
     13.7834000              0.0450160              0.3279510
      5.4521500              0.5893530              0.4535270
      2.2258800              0.4652060              0.2521540
SP   3   1.00
      3.1864900             -0.2518300             -0.0142990
      1.1442700              0.0615890              0.3235720
      0.4203770              1.0601800              0.7435070
SP   1   1.00
      0.1426570              1.0000000              1.0000000
D    1   1.00
      1.5000000              1.0000000
D    1   1.00
      0.3750000              1.0000000
F    1   1.00
      0.7000000              1.0000000
****
}

set {
reference uhf
freeze_core true
e_convergence 10
d_convergence 10
dft_spherical_points 1202
dft_radial_points 99
}

e = energy('b3lyp')

print_out('Grab this energy {0}'.format(e))
--------------------------------------------------------------------------

    Molecular point group: cs

    Geometry (in Bohr), charge = 0, multiplicity = 2:

       Center              X                  Y                   Z               Mass
    ------------   -----------------  -----------------  -----------------  -----------------
         C           -0.323341100373    -0.001787878521     0.000000000000    12.000000000000
         C            0.060375062827    -1.401135392121    -2.425389677200    12.000000000000
         C            0.062550168127     2.803217941579     0.000000000000    12.000000000000
         C            0.060375062827    -1.401135392121     2.425389677200    12.000000000000
         H            2.089109953427    -1.645331042121    -2.843386068000     1.007825032230
         H           -0.765954146473    -0.386215458021    -4.021232217400     1.007825032230
         H           -0.766414652473    -3.291075492421    -2.354417328800     1.007825032230
         H            2.082444554927     3.293875054479     0.000000000000     1.007825032230
         H           -0.764242485673     3.680689626879     1.680393745300     1.007825032230
         H           -0.764242485673     3.680689626879    -1.680393745300     1.007825032230
         H            2.089109953427    -1.645331042121     2.843386068000     1.007825032230
         H           -0.766414652473    -3.291075492421     2.354417328800     1.007825032230
         H           -0.765954146473    -0.386215458021     4.021232217400     1.007825032230

  Charge       = 0
  Multiplicity = 2
  Basis Set: ANONYMOUSD8AD9E49
    Blend: 6-31G_2DFP_
  Basis Set: (ANONYMOUSD8AD9E49 AUX)
    Blend: DEF2-UNIVERSAL-JKFIT

    Orbital Energies [Eh]
    ---------------------

    Alpha Occupied:

       1Ap   -10.180342     2Ap   -10.167173     1App  -10.166952
       3Ap   -10.166919     4Ap    -0.797767     2App   -0.686308
       5Ap    -0.686067     6Ap    -0.530778     7Ap    -0.441139
       3App   -0.434721     8Ap    -0.434609     4App   -0.382610
       9Ap    -0.382586     5App   -0.363611     6App   -0.338095
      10Ap    -0.337900    11Ap    -0.168960

    Alpha Virtual:

      12Ap     0.076071     7App    0.134020    13Ap     0.134285
       8App    0.142507    14Ap     0.142747    15Ap     0.154882
       9App    0.178653    16Ap     0.178903    17Ap     0.203550
      10App    0.214803    18Ap     0.275642    11App    0.276329
      19Ap     0.399153    12App    0.399299    20Ap     0.403349
      13App    0.423957    21Ap     0.424238    22Ap     0.456592
      23Ap     0.495300    14App    0.495475    15App    0.512160
      24Ap     0.513983    25Ap     0.578698    16App    0.578934
      26Ap     0.591493    17App    0.591782    27Ap     0.602567
      28Ap     0.624761    18App    0.631743    19App    0.636214
      29Ap     0.636316    20App    0.663010    30Ap     0.663828
      31Ap     0.683651    21App    0.684058    32Ap     0.734995
      22App    0.825200    33Ap     0.825599    23App    0.853924
      24App    0.914949    34Ap     0.915086    25App    0.944125
      35Ap     0.944604    26App    0.960472    36Ap     0.962134
      37Ap     1.003460    27App    1.127853    38Ap     1.128368
      39Ap     1.142211    28App    1.163048    40Ap     1.163490
      41Ap     1.223336    42Ap     1.274461    29App    1.274498
      43Ap     1.279368    30App    1.324305    44Ap     1.324414
      45Ap     1.355968    46Ap     1.365922    31App    1.366184
      32App    1.392456    33App    1.403896    47Ap     1.404211
      48Ap     1.416194    34App    1.418042    35App    1.427913
      36App    1.491486    49Ap     1.499078    37App    1.542103
      50Ap     1.543576    51Ap     1.574292    38App    1.574595
      52Ap     1.669825    53Ap     1.739128    39App    1.739649
      54Ap     1.768370    55Ap     1.830106    40App    1.832693
      41App    1.971698    56Ap     2.018272    42App    2.018578
      57Ap     2.019547    43App    2.052523    58Ap     2.052809
      44App    2.737801    59Ap     2.739171    60Ap     2.790926
      45App    2.811410    61Ap     2.889538    46App    2.890249
      62Ap     2.895081    63Ap     2.929482    47App    2.929512
      48App    2.958998    49App    2.963908    64Ap     2.964842
      65Ap     3.034022    50App    3.071119    66Ap     3.071438
      51App    3.084348    67Ap     3.168355    52App    3.169223
      68Ap     3.180606    69Ap     3.284944    53App    3.285684
      70Ap     3.326626    54App    3.327701    71Ap     3.375608
      72Ap     3.489844    55App    3.490433    56App    3.514041
      73Ap     3.525307    74Ap     3.567982    57App    3.568615
      58App    3.575332    59App    3.665522    75Ap     3.667272
      76Ap     3.679631    77Ap     3.693545    60App    3.694707
      61App    3.775591    78Ap     3.778017    79Ap     3.789147
      80Ap     3.911872    62App    3.912603    81Ap     4.034419
      82Ap     4.110547    63App    4.112156    83Ap     4.146566
      64App    4.149553    84Ap     4.173312    85Ap     4.201576
      86Ap     4.203382    65App    4.203840    66App    4.210882
      67App    4.315898    87Ap     4.316089    68App    4.359035
      88Ap     4.424386    69App    4.424540    70App    4.443429
      71App    4.516557    89Ap     4.517148    90Ap     4.577741
      72App    4.578714    91Ap     4.617592    92Ap     4.709446
      73App    4.773007    93Ap     4.776156    74App    4.836975
      94Ap     4.962866    75App    5.002547    95Ap     5.003348
      96Ap     5.228016    76App    5.244225    97Ap     5.249348
      77App    5.355012    98Ap     5.356038    78App    5.479401

    Beta Occupied:

       1Ap   -10.167929     1App  -10.167706     2Ap   -10.167689
       3Ap   -10.166519     4Ap    -0.781092     2App   -0.684108
       5Ap    -0.683872     6Ap    -0.511750     3App   -0.431088
       7Ap    -0.431009     8Ap    -0.421810     9Ap    -0.376698
       4App   -0.376670     5App   -0.362595     6App   -0.333206
      10Ap    -0.333034

    Beta Virtual:

      11Ap    -0.025743    12Ap     0.077080     7App    0.134912
      13Ap     0.135174     8App    0.144402    14Ap     0.144595
      15Ap     0.163338     9App    0.182324    16Ap     0.182575
      10App    0.215032    17Ap     0.218931    18Ap     0.281997
      11App    0.282670    19Ap     0.400328    12App    0.400467
      20Ap     0.419791    13App    0.426767    21Ap     0.427051
      22Ap     0.468499    23Ap     0.497554    14App    0.497746
      15App    0.513895    24Ap     0.556326    25Ap     0.584232
      16App    0.584500    26Ap     0.597709    17App    0.597924
      27Ap     0.609989    28Ap     0.628137    18App    0.631911
      19App    0.639505    29Ap     0.639583    20App    0.666605
      30Ap     0.667363    31Ap     0.686282    21App    0.686696
      32Ap     0.757518    22App    0.830348    33Ap     0.830787
      23App    0.855277    24App    0.922899    34Ap     0.923077
      25App    0.945962    35Ap     0.953528    26App    0.965805
      36Ap     0.967419    37Ap     1.008702    27App    1.131866
      38Ap     1.132410    39Ap     1.155585    28App    1.168166
      40Ap     1.168524    41Ap     1.232306    42Ap     1.280068
      29App    1.280083    43Ap     1.285125    30App    1.329314
      44Ap     1.329384    45Ap     1.365378    46Ap     1.371148
      31App    1.371446    32App    1.393515    33App    1.407340
      47Ap     1.407696    48Ap     1.421236    34App    1.423106
      35App    1.428183    36App    1.492534    49Ap     1.509520
      37App    1.546523    50Ap     1.547969    51Ap     1.582181
      38App    1.582454    52Ap     1.674671    53Ap     1.744893
      39App    1.745418    54Ap     1.779138    55Ap     1.833959
      40App    1.836553    41App    1.972560    42App    2.024930
      56Ap     2.025984    57Ap     2.039647    43App    2.059306
      58Ap     2.059466    44App    2.746161    59Ap     2.747483
      45App    2.811824    60Ap     2.816060    61Ap     2.902337
      46App    2.902927    62Ap     2.924684    47App    2.931947
      63Ap     2.932011    48App    2.960060    49App    2.968457
      64Ap     2.969386    65Ap     3.041955    50App    3.080932
      66Ap     3.081431    51App    3.086180    67Ap     3.183964
      52App    3.185115    68Ap     3.188286    69Ap     3.289708
      53App    3.290518    70Ap     3.330424    54App    3.331511
      71Ap     3.383427    72Ap     3.492630    55App    3.493100
      56App    3.512410    73Ap     3.528360    57App    3.574854
      74Ap     3.581230    58App    3.582376    59App    3.670453
      75Ap     3.671840    76Ap     3.692924    77Ap     3.725480
      60App    3.726034    61App    3.780097    78Ap     3.782568
      79Ap     3.817689    80Ap     3.921683    62App    3.922425
      81Ap     4.045304    82Ap     4.117455    63App    4.118880
      83Ap     4.153831    64App    4.156730    84Ap     4.187346
      85Ap     4.207917    65App    4.209856    86Ap     4.210883
      66App    4.215350    67App    4.323358    87Ap     4.323503
      68App    4.362400    88Ap     4.432556    69App    4.432801
      70App    4.446312    71App    4.524334    89Ap     4.524949
      90Ap     4.588323    72App    4.589324    91Ap     4.624795
      92Ap     4.719790    73App    4.780000    93Ap     4.783069
      74App    4.839894    94Ap     4.967661    75App    5.006614
      95Ap     5.007361    96Ap     5.233732    76App    5.246012
      97Ap     5.251129    77App    5.361505    98Ap     5.362506
      78App    5.481722

    Final Occupation by Irrep:
             Ap   App
    DOCC [    10,    6 ]
    SOCC [     1,    0 ]

  @DF-UKS Final Energy:  -157.81305848159053

   => Energetics <=

    Nuclear Repulsion Energy =            125.3946675295601239
    One-Electron Energy =                -458.7489676362773139
    Two-Electron Energy =                 195.8483873673762616
    DFT Exchange-Correlation Energy =     -20.3071457422496131
    Empirical Dispersion Energy =           0.0000000000000000
    VV10 Nonlocal Energy =                  0.0000000000000000
    Total Energy =                       -157.8130584815905308

  UHF NO Occupations:
  HONO-2 :    9 Ap 1.9996008
  HONO-1 :   10 Ap 1.9989804
  HONO-0 :   11 Ap 1.0000000
  LUNO+0 :   12 Ap 0.0010196
  LUNO+1 :   13 Ap 0.0003992
  LUNO+2 :   14 Ap 0.0001979
  LUNO+3 :    7App 0.0001972

Computation Completed

Properties will be evaluated at   0.000000,   0.000000,   0.000000 [a0]

Properties computed using the SCF density matrix

  Nuclear Dipole Moment: [e a0]
     X:     0.8272      Y:     0.0050      Z:     0.0000

  Electronic Dipole Moment: [e a0]
     X:    -0.7493      Y:    -0.0056      Z:     0.0000

  Dipole Moment: [e a0]
     X:     0.0779      Y:    -0.0007      Z:     0.0000     Total:     0.0779

  Dipole Moment: [D]
     X:     0.1980      Y:    -0.0017      Z:     0.0000     Total:     0.1980

*** tstop() called on n036 at Fri Nov  5 14:18:45 2021
Module time:
	user time   =     635.88 seconds =      10.60 minutes
	system time =      12.20 seconds =       0.20 minutes
	total time  =        163 seconds =       2.72 minutes
Total time:
	user time   =     635.88 seconds =      10.60 minutes
	system time =      12.20 seconds =       0.20 minutes
	total time  =        163 seconds =       2.72 minutes
Grab this energy -157.81305848159053
    Psi4 stopped on: Friday, 05 November 2021 02:18PM
    Psi4 wall time for execution: 0:02:42.94

*** Psi4 exiting successfully. Buy a developer a beer!
