                               Psi4 1.4a2.dev629

  ==> Input File <==

--------------------------------------------------------------------------
import os
memory 14 GB

molecule {
 C   -0.3233413289   -0.0000031594   -0.0024282776
 C    0.0604510196   -1.3984083118   -2.4265531240
 C    0.0610167291    2.8017575217    0.0003490693
 C    0.0618302915   -1.4033502600    2.4262071516
 H    2.0847069538   -1.6464329164   -2.8469089125
 H   -0.7646554290   -0.3863680825   -4.0254150125
 H   -0.7687703162   -3.2889916887   -2.3460932689
 H    2.0867943236    3.2880998717    0.0027326548
 H   -0.7701956728    3.6774249362    1.6728506789
 H   -0.7610842077    3.6830834161   -1.6801359106
 H    2.0891596595   -1.6417521045    2.8479706964
 H   -0.7623605479   -3.2950061054    2.3518798334
 H   -0.7661593512   -0.3900774307    4.0255444215
units bohr
0 2
}

basis {

assign 6-31g_2dfp_

[ 6-31g_2dfp_ ]

spherical

!----------------------------------------------------------------------
! Basis Set Exchange
! Version v0.8.13
! https://www.basissetexchange.org
!----------------------------------------------------------------------
!   Basis set: 6-31G(2df,p)
! Description: 6-31G(2df,p)
!        Role: orbital
!     Version: 0  (Data from the original Basis Set Exchange)
!----------------------------------------------------------------------

****
H     0
S    3   1.00
     18.7311370              0.03349460
      2.8253937              0.23472695
      0.6401217              0.81375733
S    1   1.00
      0.1612778              1.00000000
P    1   1.00
      1.5000000              1.0000000
P    1   1.00
      0.3750000              1.0000000
****
B     0
S    6   1.00
   2068.8823000              0.0018663
    310.6495700              0.0142515
     70.6830330              0.0695516
     19.8610800              0.2325729
      6.2993048              0.4670787
      2.1270270              0.3634314
SP   3   1.00
      4.7279710             -0.1303938              0.0745976
      1.1903377             -0.1307889              0.3078467
      0.3594117              1.1309444              0.7434568
SP   1   1.00
      0.1267512              1.0000000              1.0000000
D    1   1.00
      0.8020000              1.0000000
D    1   1.00
      0.2005000              1.0000000
F    1   1.00
      0.5000000              1.0000000
****
C     0
S    6   1.00
   3047.5249000              0.0018347
    457.3695100              0.0140373
    103.9486900              0.0688426
     29.2101550              0.2321844
      9.2866630              0.4679413
      3.1639270              0.3623120
SP   3   1.00
      7.8682724             -0.1193324              0.0689991
      1.8812885             -0.1608542              0.3164240
      0.5442493              1.1434564              0.7443083
SP   1   1.00
      0.1687144              1.0000000              1.0000000
D    1   1.00
      1.2520000              1.0000000
D    1   1.00
      0.3130000              1.0000000
F    1   1.00
      0.8000000              1.0000000
****
N     0
S    6   1.00
   4173.5110000              0.0018348
    627.4579000              0.0139950
    142.9021000              0.0685870
     40.2343300              0.2322410
     12.8202100              0.4690700
      4.3904370              0.3604550
SP   3   1.00
     11.6263580             -0.1149610              0.0675800
      2.7162800             -0.1691180              0.3239070
      0.7722180              1.1458520              0.7408950
SP   1   1.00
      0.2120313              1.0000000              1.0000000
D    1   1.00
      1.8260000              1.0000000
D    1   1.00
      0.4565000              1.0000000
F    1   1.00
      1.0000000              1.0000000
****
O     0
S    6   1.00
   5484.6717000              0.0018311
    825.2349500              0.0139501
    188.0469600              0.0684451
     52.9645000              0.2327143
     16.8975700              0.4701930
      5.7996353              0.3585209
SP   3   1.00
     15.5396160             -0.1107775              0.0708743
      3.5999336             -0.1480263              0.3397528
      1.0137618              1.1307670              0.7271586
SP   1   1.00
      0.2700058              1.0000000              1.0000000
D    1   1.00
      2.5840000              1.0000000
D    1   1.00
      0.6460000              1.0000000
F    1   1.00
      1.4000000              1.0000000
****
F     0
S    6   1.00
   7001.7130900              0.0018196169
   1051.3660900              0.0139160796
    239.2856900              0.0684053245
     67.3974453              0.233185760
     21.5199573              0.471267439
      7.40310130             0.356618546
SP   3   1.00
     20.8479528             -0.108506975            0.0716287243
      4.80830834            -0.146451658            0.3459121030
      1.34406986             1.128688580            0.7224699570
SP   1   1.00
      0.358151393            1.0000000              1.0000000
D    1   1.00
      3.5000000              1.0000000
D    1   1.00
      0.8750000              1.0000000
F    1   1.00
      1.8500000              1.0000000
****
Al     0
S    6   1.00
  13983.1000000              0.00194267
   2098.7500000              0.0148599
    477.7050000              0.0728494
    134.3600000              0.2468300
     42.8709000              0.4872580
     14.5189000              0.3234960
SP   6   1.00
    239.6680000             -0.00292619             0.00460285
     57.4419000             -0.0374080              0.0331990
     18.2859000             -0.1144870              0.1362820
      6.5991400              0.1156350              0.3304760
      2.4904900              0.6125950              0.4491460
      0.9445400              0.3937990              0.2657040
SP   3   1.00
      1.2779000             -0.2276060             -0.0175130
      0.3975900              0.00144583             0.2445330
      0.1600950              1.0927900              0.8049340
SP   1   1.00
      0.0556577              1.0000000              1.0000000
D    1   1.00
      0.6500000              1.0000000
D    1   1.00
      0.1625000              1.0000000
F    1   1.00
      0.2500000              1.0000000
****
Si     0
S    6   1.00
  16115.9000000              0.00195948
   2425.5800000              0.01492880
    553.8670000              0.07284780
    156.3400000              0.24613000
     50.0683000              0.48591400
     17.0178000              0.32500200
SP   6   1.00
    292.7180000             -0.00278094             0.00443826
     69.8731000             -0.03571460             0.03266790
     22.3363000             -0.11498500             0.13472100
      8.1503900              0.09356340             0.32867800
      3.1345800              0.60301700             0.44964000
      1.2254300              0.41895900             0.26137200
SP   3   1.00
      1.7273800             -0.24463000            -0.01779510
      0.5729220              0.00431572             0.25353900
      0.2221920              1.09818000             0.80066900
SP   1   1.00
      0.0778369              1.00000000             1.00000000
D    1   1.00
      0.9000000              1.0000000
D    1   1.00
      0.2250000              1.0000000
F    1   1.00
      0.3200000              1.0000000
****
P     0
S    6   1.00
  19413.3000000              0.0018516
   2909.4200000              0.0142062
    661.3640000              0.0699995
    185.7590000              0.2400790
     59.1943000              0.4847620
     20.0310000              0.3352000
SP   6   1.00
    339.4780000             -0.00278217             0.00456462
     81.0101000             -0.0360499              0.03369360
     25.8780000             -0.1166310              0.13975500
      9.4522100              0.0968328              0.33936200
      3.6656600              0.6144180              0.45092100
      1.4674600              0.4037980              0.23858600
SP   3   1.00
      2.1562300             -0.2529230             -0.01776530
      0.7489970              0.0328517              0.27405800
      0.2831450              1.0812500              0.78542100
SP   1   1.00
      0.0998317              1.0000000              1.00000000
D    1   1.00
      1.1000000              1.0000000
D    1   1.00
      0.2750000              1.0000000
F    1   1.00
      0.4500000              1.0000000
****
S     0
S    6   1.00
  21917.1000000              0.0018690
   3301.4900000              0.0142300
    754.1460000              0.0696960
    212.7110000              0.2384870
     67.9896000              0.4833070
     23.0515000              0.3380740
SP   6   1.00
    423.7350000             -0.0023767              0.0040610
    100.7100000             -0.0316930              0.0306810
     32.1599000             -0.1133170              0.1304520
     11.8079000              0.0560900              0.3272050
      4.6311000              0.5922550              0.4528510
      1.8702500              0.4550060              0.2560420
SP   3   1.00
      2.6158400             -0.2503740             -0.0145110
      0.9221670              0.0669570              0.3102630
      0.3412870              1.0545100              0.7544830
SP   1   1.00
      0.1171670              1.0000000              1.0000000
D    1   1.00
      1.3000000              1.0000000
D    1   1.00
      0.3250000              1.0000000
F    1   1.00
      0.5500000              1.0000000
****
Cl     0
S    6   1.00
  25180.1000000              0.0018330
   3780.3500000              0.0140340
    860.4740000              0.0690970
    242.1450000              0.2374520
     77.3349000              0.4830340
     26.2470000              0.3398560
SP   6   1.00
    491.7650000             -0.0022974              0.0039894
    116.9840000             -0.0307140              0.0303180
     37.4153000             -0.1125280              0.1298800
     13.7834000              0.0450160              0.3279510
      5.4521500              0.5893530              0.4535270
      2.2258800              0.4652060              0.2521540
SP   3   1.00
      3.1864900             -0.2518300             -0.0142990
      1.1442700              0.0615890              0.3235720
      0.4203770              1.0601800              0.7435070
SP   1   1.00
      0.1426570              1.0000000              1.0000000
D    1   1.00
      1.5000000              1.0000000
D    1   1.00
      0.3750000              1.0000000
F    1   1.00
      0.7000000              1.0000000
****
}

set {
reference uhf
freeze_core true
e_convergence 10
d_convergence 10
dft_spherical_points 1202
dft_radial_points 99
}

e = energy('b3lyp')

print_out('Grab this energy {0}'.format(e))
--------------------------------------------------------------------------

    Molecular point group: c1

    Geometry (in Bohr), charge = 0, multiplicity = 2:

       Center              X                  Y                   Z               Mass
    ------------   -----------------  -----------------  -----------------  -----------------
         C           -0.323340692555    -0.000001919257    -0.001961170326    12.000000000000
         C            0.060451655945    -1.398407071657    -2.426086016726    12.000000000000
         C            0.061017365445     2.801758761843     0.000816176574    12.000000000000
         C            0.061830927845    -1.403349019857     2.426674258874    12.000000000000
         H            2.084707590145    -1.646431676257    -2.846441805226     1.007825032230
         H           -0.764654792655    -0.386366842357    -4.024947905226     1.007825032230
         H           -0.768769679855    -3.288990448557    -2.345626161626     1.007825032230
         H            2.086794959945     3.288101111843     0.003199762074     1.007825032230
         H           -0.770195036455     3.677426176343     1.673317786174     1.007825032230
         H           -0.761083571355     3.683084656243    -1.679668803326     1.007825032230
         H            2.089160295845    -1.641750864357     2.848437803674     1.007825032230
         H           -0.762359911555    -3.295004865257     2.352346940674     1.007825032230
         H           -0.766158714855    -0.390076190557     4.026011528774     1.007825032230

  Charge       = 0
  Multiplicity = 2
  Basis Set: ANONYMOUSDDFF62B8
    Blend: 6-31G_2DFP_
  Basis Set: (ANONYMOUSDDFF62B8 AUX)
    Blend: DEF2-UNIVERSAL-JKFIT

    Orbital Energies [Eh]
    ---------------------

    Alpha Occupied:

       1A    -10.180341     2A    -10.167204     3A    -10.167015
       4A    -10.166825     5A     -0.797767     6A     -0.686329
       7A     -0.686044     8A     -0.530776     9A     -0.441125
      10A     -0.434744    11A     -0.434600    12A     -0.382644
      13A     -0.382554    14A     -0.363610    15A     -0.338147
      16A     -0.337849    17A     -0.168960

    Alpha Virtual:

      18A      0.076072    19A      0.134093    20A      0.134219
      21A      0.142615    22A      0.142640    23A      0.154878
      24A      0.178775    25A      0.178781    26A      0.203545
      27A      0.214804    28A      0.275650    29A      0.276321
      30A      0.399215    31A      0.399230    32A      0.403356
      33A      0.424064    34A      0.424132    35A      0.456594
      36A      0.495339    37A      0.495440    38A      0.512153
      39A      0.513986    40A      0.578627    41A      0.579002
      42A      0.591408    43A      0.591863    44A      0.602574
      45A      0.624751    46A      0.631783    47A      0.636160
      48A      0.636340    49A      0.663208    50A      0.663616
      51A      0.683834    52A      0.683874    53A      0.734994
      54A      0.825377    55A      0.825437    56A      0.853917
      57A      0.914894    58A      0.915160    59A      0.944122
      60A      0.944615    61A      0.961252    62A      0.961335
      63A      1.003454    64A      1.128055    65A      1.128142
      66A      1.142207    67A      1.163162    68A      1.163404
      69A      1.223324    70A      1.274304    71A      1.274670
      72A      1.279359    73A      1.324233    74A      1.324477
      75A      1.355987    76A      1.365758    77A      1.366350
      78A      1.392454    79A      1.403735    80A      1.404374
      81A      1.416840    82A      1.417372    83A      1.427912
      84A      1.491454    85A      1.499129    86A      1.542690
      87A      1.542964    88A      1.574228    89A      1.574673
      90A      1.669829    91A      1.739154    92A      1.739688
      93A      1.768321    94A      1.830978    95A      1.831805
      96A      1.971730    97A      2.018192    98A      2.019026
      99A      2.019165   100A      2.051678   101A      2.053617
     102A      2.738430   103A      2.738536   104A      2.790921
     105A      2.811428   106A      2.889506   107A      2.890340
     108A      2.894997   109A      2.929328   110A      2.929671
     111A      2.958995   112A      2.964116   113A      2.964642
     114A      3.034008   115A      3.070991   116A      3.071579
     117A      3.084345   118A      3.168718   119A      3.168825
     120A      3.180614   121A      3.285268   122A      3.285358
     123A      3.326719   124A      3.327605   125A      3.375619
     126A      3.489926   127A      3.490396   128A      3.513972
     129A      3.525340   130A      3.567562   131A      3.569230
     132A      3.575152   133A      3.666155   134A      3.666567
     135A      3.679676   136A      3.693785   137A      3.694472
     138A      3.775456   139A      3.778121   140A      3.789167
     141A      3.911737   142A      3.912718   143A      4.034451
     144A      4.110347   145A      4.112395   146A      4.147572
     147A      4.148678   148A      4.173244   149A      4.202331
     150A      4.202851   151A      4.203595   152A      4.210877
     153A      4.315438   154A      4.316469   155A      4.358976
     156A      4.423951   157A      4.424949   158A      4.443431
     159A      4.516081   160A      4.517600   161A      4.577596
     162A      4.578927   163A      4.617529   164A      4.709455
     165A      4.774002   166A      4.775229   167A      4.836918
     168A      4.962850   169A      5.002330   170A      5.003577
     171A      5.228029   172A      5.246697   173A      5.246940
     174A      5.354556   175A      5.356464   176A      5.479354

    Beta Occupied:

       1A    -10.167960     2A    -10.167775     3A    -10.167589
       4A    -10.166518     5A     -0.781092     6A     -0.684121
       7A     -0.683858     8A     -0.511747     9A     -0.431122
      10A     -0.430964    11A     -0.421823    12A     -0.376717
      13A     -0.376651    14A     -0.362594    15A     -0.333270
      16A     -0.332972

    Beta Virtual:

      17A     -0.025742    18A      0.077081    19A      0.134978
      20A      0.135112    21A      0.144476    22A      0.144521
      23A      0.163337    24A      0.182445    25A      0.182454
      26A      0.215027    27A      0.218934    28A      0.282008
      29A      0.282658    30A      0.400395    31A      0.400398
      32A      0.419793    33A      0.426862    34A      0.426956
      35A      0.468502    36A      0.497607    37A      0.497693
      38A      0.513895    39A      0.556324    40A      0.584166
      41A      0.584564    42A      0.597608    43A      0.598021
      44A      0.609996    45A      0.628120    46A      0.631948
      47A      0.639425    48A      0.639647    49A      0.666783
      50A      0.667169    51A      0.686481    52A      0.686498
      53A      0.757517    54A      0.830573    55A      0.830579
      56A      0.855270    57A      0.922862    58A      0.923135
      59A      0.945960    60A      0.953542    61A      0.966529
      62A      0.966670    63A      1.008694    64A      1.132031
      65A      1.132223    66A      1.155581    67A      1.168298
      68A      1.168416    69A      1.232298    70A      1.279894
      71A      1.280271    72A      1.285116    73A      1.329236
      74A      1.329454    75A      1.365400    76A      1.371039
      77A      1.371554    78A      1.393516    79A      1.407173
      80A      1.407867    81A      1.421898    82A      1.422414
      83A      1.428184    84A      1.492521    85A      1.509552
      86A      1.547128    87A      1.547341    88A      1.582144
      89A      1.582502    90A      1.674676    91A      1.744901
      92A      1.745463    93A      1.779101    94A      1.834827
      95A      1.835667    96A      1.972590    97A      2.025363
      98A      2.025519    99A      2.039675   100A      2.058429
     101A      2.060301   102A      2.746739   103A      2.746899
     104A      2.811799   105A      2.816097   106A      2.902273
     107A      2.902995   108A      2.924637   109A      2.931821
     110A      2.932160   111A      2.960058   112A      2.968676
     113A      2.969172   114A      3.041943   115A      3.080943
     116A      3.081448   117A      3.086162   118A      3.184365
     119A      3.184625   120A      3.188349   121A      3.290063
     122A      3.290159   123A      3.330530   124A      3.331402
     125A      3.383438   126A      3.492636   127A      3.493148
     128A      3.512349   129A      3.528379   130A      3.574998
     131A      3.580937   132A      3.582540   133A      3.671041
     134A      3.671198   135A      3.692952   136A      3.725571
     137A      3.725947   138A      3.780037   139A      3.782616
     140A      3.817688   141A      3.921598   142A      3.922492
     143A      4.045338   144A      4.117165   145A      4.119208
     146A      4.154847   147A      4.155821   148A      4.187304
     149A      4.208491   150A      4.209421   151A      4.210702
     152A      4.215355   153A      4.322847   154A      4.323941
     155A      4.362339   156A      4.432186   157A      4.433141
     158A      4.446319   159A      4.523882   160A      4.525377
     161A      4.588192   162A      4.589531   163A      4.624725
     164A      4.719799   165A      4.780997   166A      4.782143
     167A      4.839835   168A      4.967644   169A      5.006351
     170A      5.007635   171A      5.233744   172A      5.248469
     173A      5.248736   174A      5.361015   175A      5.362966
     176A      5.481675

    Final Occupation by Irrep:
              A
    DOCC [    16 ]
    SOCC [     1 ]

  @DF-UKS Final Energy:  -157.81306666807811

   => Energetics <=

    Nuclear Repulsion Energy =            125.3946353912752159
    One-Electron Energy =                -458.7489295962000710
    Two-Electron Energy =                 195.8483716215434072
    DFT Exchange-Correlation Energy =     -20.3071440846966773
    Empirical Dispersion Energy =           0.0000000000000000
    VV10 Nonlocal Energy =                  0.0000000000000000
    Total Energy =                       -157.8130666680781076

  UHF NO Occupations:
  HONO-2 :   15  A 1.9996009
  HONO-1 :   16  A 1.9989805
  HONO-0 :   17  A 1.0000000
  LUNO+0 :   18  A 0.0010195
  LUNO+1 :   19  A 0.0003991
  LUNO+2 :   20  A 0.0001981
  LUNO+3 :   21  A 0.0001970

Computation Completed

Properties will be evaluated at   0.000000,   0.000000,   0.000000 [a0]

Properties computed using the SCF density matrix

  Nuclear Dipole Moment: [e a0]
     X:     0.8272      Y:    -0.0000      Z:     0.0033

  Electronic Dipole Moment: [e a0]
     X:    -0.7493      Y:     0.0000      Z:    -0.0033

  Dipole Moment: [e a0]
     X:     0.0779      Y:    -0.0000      Z:     0.0000     Total:     0.0779

  Dipole Moment: [D]
     X:     0.1980      Y:    -0.0000      Z:     0.0001     Total:     0.1980

*** tstop() called on n061 at Fri Nov  5 12:52:07 2021
Module time:
	user time   =     544.57 seconds =       9.08 minutes
	system time =      11.99 seconds =       0.20 minutes
	total time  =        140 seconds =       2.33 minutes
Total time:
	user time   =     544.57 seconds =       9.08 minutes
	system time =      11.99 seconds =       0.20 minutes
	total time  =        140 seconds =       2.33 minutes
Grab this energy -157.8130666680781
    Psi4 stopped on: Friday, 05 November 2021 12:52PM
    Psi4 wall time for execution: 0:02:20.09

*** Psi4 exiting successfully. Buy a developer a beer!
