                               Psi4 1.4a2.dev629

  ==> Input File <==

--------------------------------------------------------------------------
import os
memory 14 GB

molecule {
 C   -0.3233339138    0.0063657599    0.0000000000
 C    0.0608392464   -1.4014852402   -2.4262167972
 C    0.0616214662    2.8014252160   -0.0000000000
 C    0.0608392464   -1.4014852402    2.4262167972
 H    2.0868582740   -1.6444516719   -2.8475253261
 H   -0.7659255787   -0.3884667147   -4.0248175008
 H   -0.7648923353   -3.2928099624   -2.3498898945
 H    2.0869554181    3.2876019669    0.0000000000
 H   -0.7658050300    3.6795049610    1.6767962766
 H   -0.7658050300    3.6795049610   -1.6767962766
 H    2.0868582740   -1.6444516719    2.8475253261
 H   -0.7648923353   -3.2928099624    2.3498898945
 H   -0.7659255787   -0.3884667147    4.0248175008
units bohr
0 2
}

basis {

assign 6-31g_2dfp_

[ 6-31g_2dfp_ ]

spherical

!----------------------------------------------------------------------
! Basis Set Exchange
! Version v0.8.13
! https://www.basissetexchange.org
!----------------------------------------------------------------------
!   Basis set: 6-31G(2df,p)
! Description: 6-31G(2df,p)
!        Role: orbital
!     Version: 0  (Data from the original Basis Set Exchange)
!----------------------------------------------------------------------

****
H     0
S    3   1.00
     18.7311370              0.03349460
      2.8253937              0.23472695
      0.6401217              0.81375733
S    1   1.00
      0.1612778              1.00000000
P    1   1.00
      1.5000000              1.0000000
P    1   1.00
      0.3750000              1.0000000
****
B     0
S    6   1.00
   2068.8823000              0.0018663
    310.6495700              0.0142515
     70.6830330              0.0695516
     19.8610800              0.2325729
      6.2993048              0.4670787
      2.1270270              0.3634314
SP   3   1.00
      4.7279710             -0.1303938              0.0745976
      1.1903377             -0.1307889              0.3078467
      0.3594117              1.1309444              0.7434568
SP   1   1.00
      0.1267512              1.0000000              1.0000000
D    1   1.00
      0.8020000              1.0000000
D    1   1.00
      0.2005000              1.0000000
F    1   1.00
      0.5000000              1.0000000
****
C     0
S    6   1.00
   3047.5249000              0.0018347
    457.3695100              0.0140373
    103.9486900              0.0688426
     29.2101550              0.2321844
      9.2866630              0.4679413
      3.1639270              0.3623120
SP   3   1.00
      7.8682724             -0.1193324              0.0689991
      1.8812885             -0.1608542              0.3164240
      0.5442493              1.1434564              0.7443083
SP   1   1.00
      0.1687144              1.0000000              1.0000000
D    1   1.00
      1.2520000              1.0000000
D    1   1.00
      0.3130000              1.0000000
F    1   1.00
      0.8000000              1.0000000
****
N     0
S    6   1.00
   4173.5110000              0.0018348
    627.4579000              0.0139950
    142.9021000              0.0685870
     40.2343300              0.2322410
     12.8202100              0.4690700
      4.3904370              0.3604550
SP   3   1.00
     11.6263580             -0.1149610              0.0675800
      2.7162800             -0.1691180              0.3239070
      0.7722180              1.1458520              0.7408950
SP   1   1.00
      0.2120313              1.0000000              1.0000000
D    1   1.00
      1.8260000              1.0000000
D    1   1.00
      0.4565000              1.0000000
F    1   1.00
      1.0000000              1.0000000
****
O     0
S    6   1.00
   5484.6717000              0.0018311
    825.2349500              0.0139501
    188.0469600              0.0684451
     52.9645000              0.2327143
     16.8975700              0.4701930
      5.7996353              0.3585209
SP   3   1.00
     15.5396160             -0.1107775              0.0708743
      3.5999336             -0.1480263              0.3397528
      1.0137618              1.1307670              0.7271586
SP   1   1.00
      0.2700058              1.0000000              1.0000000
D    1   1.00
      2.5840000              1.0000000
D    1   1.00
      0.6460000              1.0000000
F    1   1.00
      1.4000000              1.0000000
****
F     0
S    6   1.00
   7001.7130900              0.0018196169
   1051.3660900              0.0139160796
    239.2856900              0.0684053245
     67.3974453              0.233185760
     21.5199573              0.471267439
      7.40310130             0.356618546
SP   3   1.00
     20.8479528             -0.108506975            0.0716287243
      4.80830834            -0.146451658            0.3459121030
      1.34406986             1.128688580            0.7224699570
SP   1   1.00
      0.358151393            1.0000000              1.0000000
D    1   1.00
      3.5000000              1.0000000
D    1   1.00
      0.8750000              1.0000000
F    1   1.00
      1.8500000              1.0000000
****
Al     0
S    6   1.00
  13983.1000000              0.00194267
   2098.7500000              0.0148599
    477.7050000              0.0728494
    134.3600000              0.2468300
     42.8709000              0.4872580
     14.5189000              0.3234960
SP   6   1.00
    239.6680000             -0.00292619             0.00460285
     57.4419000             -0.0374080              0.0331990
     18.2859000             -0.1144870              0.1362820
      6.5991400              0.1156350              0.3304760
      2.4904900              0.6125950              0.4491460
      0.9445400              0.3937990              0.2657040
SP   3   1.00
      1.2779000             -0.2276060             -0.0175130
      0.3975900              0.00144583             0.2445330
      0.1600950              1.0927900              0.8049340
SP   1   1.00
      0.0556577              1.0000000              1.0000000
D    1   1.00
      0.6500000              1.0000000
D    1   1.00
      0.1625000              1.0000000
F    1   1.00
      0.2500000              1.0000000
****
Si     0
S    6   1.00
  16115.9000000              0.00195948
   2425.5800000              0.01492880
    553.8670000              0.07284780
    156.3400000              0.24613000
     50.0683000              0.48591400
     17.0178000              0.32500200
SP   6   1.00
    292.7180000             -0.00278094             0.00443826
     69.8731000             -0.03571460             0.03266790
     22.3363000             -0.11498500             0.13472100
      8.1503900              0.09356340             0.32867800
      3.1345800              0.60301700             0.44964000
      1.2254300              0.41895900             0.26137200
SP   3   1.00
      1.7273800             -0.24463000            -0.01779510
      0.5729220              0.00431572             0.25353900
      0.2221920              1.09818000             0.80066900
SP   1   1.00
      0.0778369              1.00000000             1.00000000
D    1   1.00
      0.9000000              1.0000000
D    1   1.00
      0.2250000              1.0000000
F    1   1.00
      0.3200000              1.0000000
****
P     0
S    6   1.00
  19413.3000000              0.0018516
   2909.4200000              0.0142062
    661.3640000              0.0699995
    185.7590000              0.2400790
     59.1943000              0.4847620
     20.0310000              0.3352000
SP   6   1.00
    339.4780000             -0.00278217             0.00456462
     81.0101000             -0.0360499              0.03369360
     25.8780000             -0.1166310              0.13975500
      9.4522100              0.0968328              0.33936200
      3.6656600              0.6144180              0.45092100
      1.4674600              0.4037980              0.23858600
SP   3   1.00
      2.1562300             -0.2529230             -0.01776530
      0.7489970              0.0328517              0.27405800
      0.2831450              1.0812500              0.78542100
SP   1   1.00
      0.0998317              1.0000000              1.00000000
D    1   1.00
      1.1000000              1.0000000
D    1   1.00
      0.2750000              1.0000000
F    1   1.00
      0.4500000              1.0000000
****
S     0
S    6   1.00
  21917.1000000              0.0018690
   3301.4900000              0.0142300
    754.1460000              0.0696960
    212.7110000              0.2384870
     67.9896000              0.4833070
     23.0515000              0.3380740
SP   6   1.00
    423.7350000             -0.0023767              0.0040610
    100.7100000             -0.0316930              0.0306810
     32.1599000             -0.1133170              0.1304520
     11.8079000              0.0560900              0.3272050
      4.6311000              0.5922550              0.4528510
      1.8702500              0.4550060              0.2560420
SP   3   1.00
      2.6158400             -0.2503740             -0.0145110
      0.9221670              0.0669570              0.3102630
      0.3412870              1.0545100              0.7544830
SP   1   1.00
      0.1171670              1.0000000              1.0000000
D    1   1.00
      1.3000000              1.0000000
D    1   1.00
      0.3250000              1.0000000
F    1   1.00
      0.5500000              1.0000000
****
Cl     0
S    6   1.00
  25180.1000000              0.0018330
   3780.3500000              0.0140340
    860.4740000              0.0690970
    242.1450000              0.2374520
     77.3349000              0.4830340
     26.2470000              0.3398560
SP   6   1.00
    491.7650000             -0.0022974              0.0039894
    116.9840000             -0.0307140              0.0303180
     37.4153000             -0.1125280              0.1298800
     13.7834000              0.0450160              0.3279510
      5.4521500              0.5893530              0.4535270
      2.2258800              0.4652060              0.2521540
SP   3   1.00
      3.1864900             -0.2518300             -0.0142990
      1.1442700              0.0615890              0.3235720
      0.4203770              1.0601800              0.7435070
SP   1   1.00
      0.1426570              1.0000000              1.0000000
D    1   1.00
      1.5000000              1.0000000
D    1   1.00
      0.3750000              1.0000000
F    1   1.00
      0.7000000              1.0000000
****
}

set {
reference uhf
freeze_core true
e_convergence 10
d_convergence 10
dft_spherical_points 1202
dft_radial_points 99
}

e = energy('b3lyp')

print_out('Grab this energy {0}'.format(e))
--------------------------------------------------------------------------

    Molecular point group: cs

    Geometry (in Bohr), charge = 0, multiplicity = 2:

       Center              X                  Y                   Z               Mass
    ------------   -----------------  -----------------  -----------------  -----------------
         C           -0.323335075230     0.005437727108     0.000000000000    12.000000000000
         C            0.060838084970    -1.402413272992    -2.426216797200    12.000000000000
         C            0.061620304770     2.800497183208     0.000000000000    12.000000000000
         C            0.060838084970    -1.402413272992     2.426216797200    12.000000000000
         H            2.086857112570    -1.645379704692    -2.847525326100     1.007825032230
         H           -0.765926740130    -0.389394747492    -4.024817500800     1.007825032230
         H           -0.764893496730    -3.293737995192    -2.349889894500     1.007825032230
         H            2.086954256670     3.286673934108     0.000000000000     1.007825032230
         H           -0.765806191430     3.678576928208     1.676796276600     1.007825032230
         H           -0.765806191430     3.678576928208    -1.676796276600     1.007825032230
         H            2.086857112570    -1.645379704692     2.847525326100     1.007825032230
         H           -0.764893496730    -3.293737995192     2.349889894500     1.007825032230
         H           -0.765926740130    -0.389394747492     4.024817500800     1.007825032230

  Charge       = 0
  Multiplicity = 2
  Basis Set: ANONYMOUSBBFAC5A5
    Blend: 6-31G_2DFP_
  Basis Set: (ANONYMOUSBBFAC5A5 AUX)
    Blend: DEF2-UNIVERSAL-JKFIT

    Orbital Energies [Eh]
    ---------------------

    Alpha Occupied:

       1Ap   -10.180341     1App  -10.167032     2Ap   -10.167028
       3Ap   -10.166984     4Ap    -0.797770     5Ap    -0.686454
       2App   -0.685918     6Ap    -0.530776     7Ap    -0.441128
       3App   -0.434895     8Ap    -0.434446     9Ap    -0.382753
       4App   -0.382444     5App   -0.363612    10Ap    -0.338812
       6App   -0.337184    11Ap    -0.168960

    Alpha Virtual:

      12Ap     0.076072     7App    0.134131    13Ap     0.134178
       8App    0.142389    14Ap     0.142868    15Ap     0.154879
      16Ap     0.178734     9App    0.178822    17Ap     0.203541
      10App    0.214802    11App    0.275568    18Ap     0.276401
      12App    0.398998    19Ap     0.399462    20Ap     0.403343
      21Ap     0.424094    13App    0.424103    22Ap     0.456592
      14App    0.495377    23Ap     0.495402    15App    0.512159
      24Ap     0.513977    16App    0.578584    25Ap     0.579049
      17App    0.591625    26Ap     0.591656    27Ap     0.602578
      28Ap     0.624759    18App    0.631773    19App    0.636095
      29Ap     0.636409    20App    0.663390    30Ap     0.663436
      31Ap     0.683791    21App    0.683913    32Ap     0.734994
      22App    0.825302    33Ap     0.825513    23App    0.853916
      34Ap     0.914801    24App    0.915242    25App    0.944126
      35Ap     0.944617    26App    0.961047    36Ap     0.961539
      37Ap     1.003452    27App    1.127890    38Ap     1.128280
      39Ap     1.142274    28App    1.162907    40Ap     1.163629
      41Ap     1.223325    42Ap     1.274208    29App    1.274780
      43Ap     1.279342    30App    1.324203    44Ap     1.324516
      45Ap     1.355993    31App    1.366025    46Ap     1.366102
      32App    1.392459    33App    1.403747    47Ap     1.404340
      48Ap     1.417063    34App    1.417165    35App    1.427909
      36App    1.491493    49Ap     1.499085    37App    1.542656
      50Ap     1.543011    51Ap     1.574107    38App    1.574789
      52Ap     1.669808    39App    1.739111    53Ap     1.739724
      54Ap     1.768326    40App    1.831203    55Ap     1.831597
      41App    1.971725    56Ap     2.017730    57Ap     2.018611
      42App    2.020044    58Ap     2.052592    43App    2.052709
      44App    2.738200    59Ap     2.738776    60Ap     2.790924
      45App    2.811422    46App    2.888721    61Ap     2.891172
      62Ap     2.894935    47App    2.928946    63Ap     2.930053
      48App    2.958996    64Ap     2.963923    49App    2.964834
      65Ap     3.033997    50App    3.070645    66Ap     3.071947
      51App    3.084350    67Ap     3.168442    52App    3.168971
      68Ap     3.180748    53App    3.284790    69Ap     3.285828
      70Ap     3.326716    54App    3.327588    71Ap     3.375603
      55App    3.489580    72Ap     3.490714    56App    3.513999
      73Ap     3.525334    74Ap     3.568065    57App    3.568706
      58App    3.575164    75Ap     3.666237    59App    3.666487
      76Ap     3.679697    77Ap     3.694103    60App    3.694127
      61App    3.776086    78Ap     3.777493    79Ap     3.789165
      62App    3.911401    80Ap     3.913040    81Ap     4.034433
      63App    4.111269    82Ap     4.111461    64App    4.146944
      83Ap     4.149288    84Ap     4.173289    85Ap     4.202221
      65App    4.202607    86Ap     4.203984    66App    4.210877
      67App    4.314623    87Ap     4.317324    68App    4.358984
      88Ap     4.423955    69App    4.424962    70App    4.443436
      71App    4.516507    89Ap     4.517141    90Ap     4.578075
      72App    4.578125    91Ap     4.617860    92Ap     4.709476
      73App    4.774182    93Ap     4.775047    74App    4.836903
      94Ap     4.962816    95Ap     5.002475    75App    5.003500
      96Ap     5.228039    76App    5.246545    97Ap     5.247093
      77App    5.354927    98Ap     5.356083    78App    5.479345

    Beta Occupied:

       1Ap   -10.167783     1App  -10.167783     2Ap   -10.167757
       3Ap   -10.166519     4Ap    -0.781095     5Ap    -0.684242
       2App   -0.683736     6Ap    -0.511747     3App   -0.431269
       7Ap    -0.430816     8Ap    -0.421822     9Ap    -0.376805
       4App   -0.376562     5App   -0.362596    10Ap    -0.333944
       6App   -0.332298

    Beta Virtual:

      11Ap    -0.025742    12Ap     0.077081     7App    0.134992
      13Ap     0.135096     8App    0.144288    14Ap     0.144710
      15Ap     0.163339    16Ap     0.182430     9App    0.182469
      10App    0.215032    17Ap     0.218924    11App    0.281965
      18Ap     0.282700    12App    0.400170    19Ap     0.400628
      20Ap     0.419788    13App    0.426903    21Ap     0.426917
      22Ap     0.468500    14App    0.497632    23Ap     0.497668
      15App    0.513895    24Ap     0.556320    16App    0.584111
      25Ap     0.584626    17App    0.597784    26Ap     0.597853
      27Ap     0.610000    28Ap     0.628133    18App    0.631930
      19App    0.639370    29Ap     0.639710    20App    0.666944
      30Ap     0.667010    31Ap     0.686422    21App    0.686552
      32Ap     0.757517    22App    0.830471    33Ap     0.830680
      23App    0.855269    34Ap     0.922745    24App    0.923240
      25App    0.945963    35Ap     0.953545    26App    0.966355
      36Ap     0.966844    37Ap     1.008693    27App    1.131931
      38Ap     1.132323    39Ap     1.155620    28App    1.167996
      40Ap     1.168689    41Ap     1.232297    42Ap     1.279882
      29App    1.280299    43Ap     1.285098    30App    1.329195
      44Ap     1.329504    45Ap     1.365409    46Ap     1.371273
      31App    1.371342    32App    1.393515    33App    1.407151
      47Ap     1.407871    48Ap     1.422097    34App    1.422227
      35App    1.428177    36App    1.492541    49Ap     1.509529
      37App    1.547047    50Ap     1.547437    51Ap     1.582016
      38App    1.582624    52Ap     1.674657    39App    1.744870
      53Ap     1.745492    54Ap     1.779100    40App    1.835041
      55Ap     1.835470    41App    1.972585    56Ap     2.024460
      42App    2.026416    57Ap     2.039675    58Ap     2.059286
      43App    2.059459    44App    2.746510    59Ap     2.747137
      45App    2.811835    60Ap     2.816060    46App    2.901507
      61Ap     2.903756    62Ap     2.924646    47App    2.931342
      63Ap     2.932626    48App    2.960058    64Ap     2.968481
      49App    2.969363    65Ap     3.041930    50App    3.080624
      66Ap     3.081787    51App    3.086166    67Ap     3.184018
      52App    3.184656    68Ap     3.188671    53App    3.289661
      69Ap     3.290555    70Ap     3.330507    54App    3.331406
      71Ap     3.383422    55App    3.492284    72Ap     3.493467
      56App    3.512366    73Ap     3.528380    57App    3.574981
      74Ap     3.581501    58App    3.581997    59App    3.671065
      75Ap     3.671168    76Ap     3.692980    77Ap     3.725421
      60App    3.726071    61App    3.780560    78Ap     3.782094
      79Ap     3.817672    62App    3.921199    80Ap     3.922887
      81Ap     4.045320    63App    4.118129    82Ap     4.118235
      64App    4.154214    83Ap     4.156436    84Ap     4.187344
      65App    4.208540    85Ap     4.209073    86Ap     4.211037
      66App    4.215354    67App    4.321966    87Ap     4.324861
      68App    4.362346    88Ap     4.432169    69App    4.433182
      70App    4.446315    71App    4.524266    89Ap     4.524964
      90Ap     4.588627    72App    4.588746    91Ap     4.625080
      92Ap     4.719825    73App    4.781080    93Ap     4.782058
      74App    4.839820    94Ap     4.967607    95Ap     5.006531
      75App    5.007525    96Ap     5.233753    76App    5.248342
      97Ap     5.248864    77App    5.361362    98Ap     5.362609
      78App    5.481667

    Final Occupation by Irrep:
             Ap   App
    DOCC [    10,    6 ]
    SOCC [     1,    0 ]

  @DF-UKS Final Energy:  -157.81306169918281

   => Energetics <=

    Nuclear Repulsion Energy =            125.3947401069119962
    One-Electron Energy =                -458.7491216759561894
    Two-Electron Energy =                 195.8484665475252484
    DFT Exchange-Correlation Energy =     -20.3071466776638445
    Empirical Dispersion Energy =           0.0000000000000000
    VV10 Nonlocal Energy =                  0.0000000000000000
    Total Energy =                       -157.8130616991828106

  UHF NO Occupations:
  HONO-2 :    9 Ap 1.9996009
  HONO-1 :   10 Ap 1.9989805
  HONO-0 :   11 Ap 1.0000000
  LUNO+0 :   12 Ap 0.0010195
  LUNO+1 :   13 Ap 0.0003991
  LUNO+2 :    7App 0.0001990
  LUNO+3 :   14 Ap 0.0001961

Computation Completed

Properties will be evaluated at   0.000000,   0.000000,   0.000000 [a0]

Properties computed using the SCF density matrix

  Nuclear Dipole Moment: [e a0]
     X:     0.8272      Y:    -0.0065      Z:     0.0000

  Electronic Dipole Moment: [e a0]
     X:    -0.7493      Y:     0.0078      Z:     0.0000

  Dipole Moment: [e a0]
     X:     0.0779      Y:     0.0013      Z:     0.0000     Total:     0.0779

  Dipole Moment: [D]
     X:     0.1980      Y:     0.0032      Z:     0.0000     Total:     0.1981

*** tstop() called on n079 at Fri Nov  5 11:47:23 2021
Module time:
	user time   =     495.32 seconds =       8.26 minutes
	system time =       4.45 seconds =       0.07 minutes
	total time  =        126 seconds =       2.10 minutes
Total time:
	user time   =     495.32 seconds =       8.26 minutes
	system time =       4.45 seconds =       0.07 minutes
	total time  =        126 seconds =       2.10 minutes
Grab this energy -157.8130616991828
    Psi4 stopped on: Friday, 05 November 2021 11:47AM
    Psi4 wall time for execution: 0:02:05.67

*** Psi4 exiting successfully. Buy a developer a beer!
