                               Psi4 1.4a2.dev629

  ==> Input File <==

--------------------------------------------------------------------------
import os
memory 14 GB

molecule {
 C   -0.3233404546    0.0004926147    0.0002236906
 C    0.0612364563   -1.4018241317   -2.4276090819
 C    0.0611173253    2.8026178043    0.0004819217
 C    0.0609461822   -1.3994405766    2.4244451211
 H    2.0890971182   -1.6436178053   -2.8467480988
 H   -0.7666519925   -0.3861884172   -4.0257928097
 H   -0.7667199408   -3.2941312958   -2.3478986281
 H    2.0826173237    3.2885994160   -0.0001846281
 H   -0.7635325566    3.6797445179    1.6723658680
 H   -0.7634110305    3.6797224825   -1.6725518371
 H    2.0889557661   -1.6443719870    2.8476819812
 H   -0.7664328350   -3.2945471843    2.3489703560
 H   -0.7664892384   -0.3870797510    4.0266161451
units bohr
0 2
}

basis {

assign 6-31g_2dfp_

[ 6-31g_2dfp_ ]

spherical

!----------------------------------------------------------------------
! Basis Set Exchange
! Version v0.8.13
! https://www.basissetexchange.org
!----------------------------------------------------------------------
!   Basis set: 6-31G(2df,p)
! Description: 6-31G(2df,p)
!        Role: orbital
!     Version: 0  (Data from the original Basis Set Exchange)
!----------------------------------------------------------------------

****
H     0
S    3   1.00
     18.7311370              0.03349460
      2.8253937              0.23472695
      0.6401217              0.81375733
S    1   1.00
      0.1612778              1.00000000
P    1   1.00
      1.5000000              1.0000000
P    1   1.00
      0.3750000              1.0000000
****
B     0
S    6   1.00
   2068.8823000              0.0018663
    310.6495700              0.0142515
     70.6830330              0.0695516
     19.8610800              0.2325729
      6.2993048              0.4670787
      2.1270270              0.3634314
SP   3   1.00
      4.7279710             -0.1303938              0.0745976
      1.1903377             -0.1307889              0.3078467
      0.3594117              1.1309444              0.7434568
SP   1   1.00
      0.1267512              1.0000000              1.0000000
D    1   1.00
      0.8020000              1.0000000
D    1   1.00
      0.2005000              1.0000000
F    1   1.00
      0.5000000              1.0000000
****
C     0
S    6   1.00
   3047.5249000              0.0018347
    457.3695100              0.0140373
    103.9486900              0.0688426
     29.2101550              0.2321844
      9.2866630              0.4679413
      3.1639270              0.3623120
SP   3   1.00
      7.8682724             -0.1193324              0.0689991
      1.8812885             -0.1608542              0.3164240
      0.5442493              1.1434564              0.7443083
SP   1   1.00
      0.1687144              1.0000000              1.0000000
D    1   1.00
      1.2520000              1.0000000
D    1   1.00
      0.3130000              1.0000000
F    1   1.00
      0.8000000              1.0000000
****
N     0
S    6   1.00
   4173.5110000              0.0018348
    627.4579000              0.0139950
    142.9021000              0.0685870
     40.2343300              0.2322410
     12.8202100              0.4690700
      4.3904370              0.3604550
SP   3   1.00
     11.6263580             -0.1149610              0.0675800
      2.7162800             -0.1691180              0.3239070
      0.7722180              1.1458520              0.7408950
SP   1   1.00
      0.2120313              1.0000000              1.0000000
D    1   1.00
      1.8260000              1.0000000
D    1   1.00
      0.4565000              1.0000000
F    1   1.00
      1.0000000              1.0000000
****
O     0
S    6   1.00
   5484.6717000              0.0018311
    825.2349500              0.0139501
    188.0469600              0.0684451
     52.9645000              0.2327143
     16.8975700              0.4701930
      5.7996353              0.3585209
SP   3   1.00
     15.5396160             -0.1107775              0.0708743
      3.5999336             -0.1480263              0.3397528
      1.0137618              1.1307670              0.7271586
SP   1   1.00
      0.2700058              1.0000000              1.0000000
D    1   1.00
      2.5840000              1.0000000
D    1   1.00
      0.6460000              1.0000000
F    1   1.00
      1.4000000              1.0000000
****
F     0
S    6   1.00
   7001.7130900              0.0018196169
   1051.3660900              0.0139160796
    239.2856900              0.0684053245
     67.3974453              0.233185760
     21.5199573              0.471267439
      7.40310130             0.356618546
SP   3   1.00
     20.8479528             -0.108506975            0.0716287243
      4.80830834            -0.146451658            0.3459121030
      1.34406986             1.128688580            0.7224699570
SP   1   1.00
      0.358151393            1.0000000              1.0000000
D    1   1.00
      3.5000000              1.0000000
D    1   1.00
      0.8750000              1.0000000
F    1   1.00
      1.8500000              1.0000000
****
Al     0
S    6   1.00
  13983.1000000              0.00194267
   2098.7500000              0.0148599
    477.7050000              0.0728494
    134.3600000              0.2468300
     42.8709000              0.4872580
     14.5189000              0.3234960
SP   6   1.00
    239.6680000             -0.00292619             0.00460285
     57.4419000             -0.0374080              0.0331990
     18.2859000             -0.1144870              0.1362820
      6.5991400              0.1156350              0.3304760
      2.4904900              0.6125950              0.4491460
      0.9445400              0.3937990              0.2657040
SP   3   1.00
      1.2779000             -0.2276060             -0.0175130
      0.3975900              0.00144583             0.2445330
      0.1600950              1.0927900              0.8049340
SP   1   1.00
      0.0556577              1.0000000              1.0000000
D    1   1.00
      0.6500000              1.0000000
D    1   1.00
      0.1625000              1.0000000
F    1   1.00
      0.2500000              1.0000000
****
Si     0
S    6   1.00
  16115.9000000              0.00195948
   2425.5800000              0.01492880
    553.8670000              0.07284780
    156.3400000              0.24613000
     50.0683000              0.48591400
     17.0178000              0.32500200
SP   6   1.00
    292.7180000             -0.00278094             0.00443826
     69.8731000             -0.03571460             0.03266790
     22.3363000             -0.11498500             0.13472100
      8.1503900              0.09356340             0.32867800
      3.1345800              0.60301700             0.44964000
      1.2254300              0.41895900             0.26137200
SP   3   1.00
      1.7273800             -0.24463000            -0.01779510
      0.5729220              0.00431572             0.25353900
      0.2221920              1.09818000             0.80066900
SP   1   1.00
      0.0778369              1.00000000             1.00000000
D    1   1.00
      0.9000000              1.0000000
D    1   1.00
      0.2250000              1.0000000
F    1   1.00
      0.3200000              1.0000000
****
P     0
S    6   1.00
  19413.3000000              0.0018516
   2909.4200000              0.0142062
    661.3640000              0.0699995
    185.7590000              0.2400790
     59.1943000              0.4847620
     20.0310000              0.3352000
SP   6   1.00
    339.4780000             -0.00278217             0.00456462
     81.0101000             -0.0360499              0.03369360
     25.8780000             -0.1166310              0.13975500
      9.4522100              0.0968328              0.33936200
      3.6656600              0.6144180              0.45092100
      1.4674600              0.4037980              0.23858600
SP   3   1.00
      2.1562300             -0.2529230             -0.01776530
      0.7489970              0.0328517              0.27405800
      0.2831450              1.0812500              0.78542100
SP   1   1.00
      0.0998317              1.0000000              1.00000000
D    1   1.00
      1.1000000              1.0000000
D    1   1.00
      0.2750000              1.0000000
F    1   1.00
      0.4500000              1.0000000
****
S     0
S    6   1.00
  21917.1000000              0.0018690
   3301.4900000              0.0142300
    754.1460000              0.0696960
    212.7110000              0.2384870
     67.9896000              0.4833070
     23.0515000              0.3380740
SP   6   1.00
    423.7350000             -0.0023767              0.0040610
    100.7100000             -0.0316930              0.0306810
     32.1599000             -0.1133170              0.1304520
     11.8079000              0.0560900              0.3272050
      4.6311000              0.5922550              0.4528510
      1.8702500              0.4550060              0.2560420
SP   3   1.00
      2.6158400             -0.2503740             -0.0145110
      0.9221670              0.0669570              0.3102630
      0.3412870              1.0545100              0.7544830
SP   1   1.00
      0.1171670              1.0000000              1.0000000
D    1   1.00
      1.3000000              1.0000000
D    1   1.00
      0.3250000              1.0000000
F    1   1.00
      0.5500000              1.0000000
****
Cl     0
S    6   1.00
  25180.1000000              0.0018330
   3780.3500000              0.0140340
    860.4740000              0.0690970
    242.1450000              0.2374520
     77.3349000              0.4830340
     26.2470000              0.3398560
SP   6   1.00
    491.7650000             -0.0022974              0.0039894
    116.9840000             -0.0307140              0.0303180
     37.4153000             -0.1125280              0.1298800
     13.7834000              0.0450160              0.3279510
      5.4521500              0.5893530              0.4535270
      2.2258800              0.4652060              0.2521540
SP   3   1.00
      3.1864900             -0.2518300             -0.0142990
      1.1442700              0.0615890              0.3235720
      0.4203770              1.0601800              0.7435070
SP   1   1.00
      0.1426570              1.0000000              1.0000000
D    1   1.00
      1.5000000              1.0000000
D    1   1.00
      0.3750000              1.0000000
F    1   1.00
      0.7000000              1.0000000
****
}

set {
reference uhf
freeze_core true
e_convergence 10
d_convergence 10
dft_spherical_points 1202
dft_radial_points 99
}

e = energy('b3lyp')

print_out('Grab this energy {0}'.format(e))
--------------------------------------------------------------------------

    Molecular point group: c1

    Geometry (in Bohr), charge = 0, multiplicity = 2:

       Center              X                  Y                   Z               Mass
    ------------   -----------------  -----------------  -----------------  -----------------
         C           -0.323340357151     0.000137546885     0.000697186228    12.000000000000
         C            0.061236553749    -1.402179199515    -2.427135586272    12.000000000000
         C            0.061117422749     2.802262736485     0.000955417328    12.000000000000
         C            0.060946279649    -1.399795644415     2.424918616728    12.000000000000
         H            2.089097215649    -1.643972873115    -2.846274603172     1.007825032230
         H           -0.766651895051    -0.386543485015    -4.025319314072     1.007825032230
         H           -0.766719843351    -3.294486363615    -2.347425132472     1.007825032230
         H            2.082617421149     3.288244348185     0.000288867528     1.007825032230
         H           -0.763532459151     3.679389450085     1.672839363628     1.007825032230
         H           -0.763410933051     3.679367414685    -1.672078341472     1.007825032230
         H            2.088955863549    -1.644727054815     2.848155476828     1.007825032230
         H           -0.766432737551    -3.294902252115     2.349443851628     1.007825032230
         H           -0.766489140951    -0.387434818815     4.027089640728     1.007825032230

  Charge       = 0
  Multiplicity = 2
  Basis Set: ANONYMOUS1FBDB4AC
    Blend: 6-31G_2DFP_
  Basis Set: (ANONYMOUS1FBDB4AC AUX)
    Blend: DEF2-UNIVERSAL-JKFIT

    Orbital Energies [Eh]
    ---------------------

    Alpha Occupied:

       1A    -10.180342     2A    -10.167389     3A    -10.167311
       4A    -10.166344     5A     -0.797767     6A     -0.686511
       7A     -0.685864     8A     -0.530776     9A     -0.441125
      10A     -0.434792    11A     -0.434551    12A     -0.382839
      13A     -0.382358    14A     -0.363613    15A     -0.338210
      16A     -0.337786    17A     -0.168961

    Alpha Virtual:

      18A      0.076071    19A      0.134129    20A      0.134165
      21A      0.142514    22A      0.142756    23A      0.154875
      24A      0.178444    25A      0.179116    26A      0.203545
      27A      0.214805    28A      0.275756    29A      0.276216
      30A      0.399149    31A      0.399305    32A      0.403346
      33A      0.423992    34A      0.424202    35A      0.456592
      36A      0.495315    37A      0.495463    38A      0.512162
      39A      0.513979    40A      0.578690    41A      0.578934
      42A      0.591327    43A      0.591922    44A      0.602594
      45A      0.624766    46A      0.631696    47A      0.635844
      48A      0.636732    49A      0.663219    50A      0.663609
      51A      0.683541    52A      0.684179    53A      0.734994
      54A      0.825006    55A      0.825800    56A      0.853917
      57A      0.915009    58A      0.915044    59A      0.944130
      60A      0.944611    61A      0.961052    62A      0.961540
      63A      1.003453    64A      1.127773    65A      1.128440
      66A      1.142227    67A      1.162969    68A      1.163569
      69A      1.223324    70A      1.274126    71A      1.274839
      72A      1.279369    73A      1.323997    74A      1.324710
      75A      1.355978    76A      1.365749    77A      1.366364
      78A      1.392449    79A      1.403621    80A      1.404464
      81A      1.416757    82A      1.417452    83A      1.427927
      84A      1.491489    85A      1.499085    86A      1.542741
      87A      1.542921    88A      1.574107    89A      1.574791
      90A      1.669795    91A      1.739245    92A      1.739567
      93A      1.768326    94A      1.829741    95A      1.833126
      96A      1.971702    97A      2.017907    98A      2.018851
      99A      2.019613   100A      2.051977   101A      2.053367
     102A      2.738024   103A      2.738947   104A      2.790924
     105A      2.811429   106A      2.889665   107A      2.890188
     108A      2.894989   109A      2.929372   110A      2.929616
     111A      2.959004   112A      2.963861   113A      2.964906
     114A      3.034021   115A      3.071000   116A      3.071560
     117A      3.084382   118A      3.168534   119A      3.169008
     120A      3.180614   121A      3.285246   122A      3.285390
     123A      3.326968   124A      3.327353   125A      3.375607
     126A      3.489265   127A      3.491046   128A      3.514017
     129A      3.525344   130A      3.568252   131A      3.568488
     132A      3.575192   133A      3.665320   134A      3.667344
     135A      3.679662   136A      3.693643   137A      3.694655
     138A      3.776210   139A      3.777413   140A      3.789124
     141A      3.911354   142A      3.913082   143A      4.034437
     144A      4.110574   145A      4.112045   146A      4.146125
     147A      4.150011   148A      4.173321   149A      4.201093
     150A      4.202260   151A      4.205369   152A      4.211192
     153A      4.314940   154A      4.316953   155A      4.358951
     156A      4.423320   157A      4.425422   158A      4.443636
     159A      4.516140   160A      4.517510   161A      4.577834
     162A      4.578744   163A      4.617538   164A      4.709484
     165A      4.774237   166A      4.774919   167A      4.836893
     168A      4.962831   169A      5.002106   170A      5.003883
     171A      5.227833   172A      5.243162   173A      5.250440
     174A      5.352498   175A      5.358697   176A      5.479434

    Beta Occupied:

       1A    -10.168151     2A    -10.168071     3A    -10.167106
       4A    -10.166515     5A     -0.781092     6A     -0.684314
       7A     -0.683667     8A     -0.511747     9A     -0.431171
      10A     -0.430914    11A     -0.421823    12A     -0.376940
      13A     -0.376427    14A     -0.362597    15A     -0.333333
      16A     -0.332909

    Beta Virtual:

      17A     -0.025743    18A      0.077080    19A      0.134980
      20A      0.135096    21A      0.144432    22A      0.144577
      23A      0.163334    24A      0.182128    25A      0.182776
      26A      0.215035    27A      0.218928    28A      0.282112
      29A      0.282556    30A      0.400316    31A      0.400479
      32A      0.419791    33A      0.426801    34A      0.427016
      35A      0.468500    36A      0.497574    37A      0.497726
      38A      0.513897    39A      0.556324    40A      0.584232
      41A      0.584493    42A      0.597529    43A      0.598084
      44A      0.610013    45A      0.628141    46A      0.631888
      47A      0.639146    48A      0.639967    49A      0.666768
      50A      0.667188    51A      0.686212    52A      0.686778
      53A      0.757517    54A      0.830148    55A      0.830994
      56A      0.855271    57A      0.922979    58A      0.923017
      59A      0.945967    60A      0.953539    61A      0.966388
      62A      0.966817    63A      1.008693    64A      1.131791
      65A      1.132484    66A      1.155595    67A      1.168025
      68A      1.168663    69A      1.232297    70A      1.279719
      71A      1.280440    72A      1.285122    73A      1.328942
      74A      1.329744    75A      1.365387    76A      1.371018
      77A      1.371589    78A      1.393509    79A      1.407089
      80A      1.407926    81A      1.421772    82A      1.422532
      83A      1.428203    84A      1.492538    85A      1.509527
      86A      1.547110    87A      1.547366    88A      1.581984
      89A      1.582658    90A      1.674641    91A      1.745017
      92A      1.745322    93A      1.779103    94A      1.833627
      95A      1.836951    96A      1.972566    97A      2.024882
      98A      2.025997    99A      2.039657   100A      2.058681
     101A      2.060104   102A      2.746352   103A      2.747291
     104A      2.811840   105A      2.816059   106A      2.902439
     107A      2.902826   108A      2.924654   109A      2.931904
     110A      2.932053   111A      2.960069   112A      2.968362
     113A      2.969493   114A      3.041955   115A      3.080826
     116A      3.081517   117A      3.086237   118A      3.184202
     119A      3.184774   120A      3.188360   121A      3.290017
     122A      3.290216   123A      3.330783   124A      3.331146
     125A      3.383426   126A      3.492016   127A      3.493756
     128A      3.512383   129A      3.528388   130A      3.574946
     131A      3.581674   132A      3.581848   133A      3.670024
     134A      3.672154   135A      3.692982   136A      3.725268
     137A      3.726252   138A      3.780749   139A      3.781926
     140A      3.817670   141A      3.921221   142A      3.922848
     143A      4.045319   144A      4.117535   145A      4.118692
     146A      4.153569   147A      4.157021   148A      4.187370
     149A      4.208108   150A      4.208152   151A      4.212295
     152A      4.215682   153A      4.322437   154A      4.324331
     155A      4.362316   156A      4.431511   157A      4.433594
     158A      4.446589   159A      4.523952   160A      4.525279
     161A      4.588481   162A      4.589298   163A      4.624731
     164A      4.719829   165A      4.781198   166A      4.781863
     167A      4.839810   168A      4.967628   169A      5.006166
     170A      5.007900   171A      5.233537   172A      5.244962
     173A      5.252225   174A      5.358992   175A      5.365160
     176A      5.481755

    Final Occupation by Irrep:
              A
    DOCC [    16 ]
    SOCC [     1 ]

  @DF-UKS Final Energy:  -157.81305585607595

   => Energetics <=

    Nuclear Repulsion Energy =            125.3946554440408931
    One-Electron Energy =                -458.7489365385822566
    Two-Electron Energy =                 195.8483730563580139
    DFT Exchange-Correlation Energy =     -20.3071478178925879
    Empirical Dispersion Energy =           0.0000000000000000
    VV10 Nonlocal Energy =                  0.0000000000000000
    Total Energy =                       -157.8130558560759482

  UHF NO Occupations:
  HONO-2 :   15  A 1.9996008
  HONO-1 :   16  A 1.9989804
  HONO-0 :   17  A 1.0000000
  LUNO+0 :   18  A 0.0010196
  LUNO+1 :   19  A 0.0003992
  LUNO+2 :   20  A 0.0001979
  LUNO+3 :   21  A 0.0001972

Computation Completed

Properties will be evaluated at   0.000000,   0.000000,   0.000000 [a0]

Properties computed using the SCF density matrix

  Nuclear Dipole Moment: [e a0]
     X:     0.8272      Y:    -0.0025      Z:     0.0033

  Electronic Dipole Moment: [e a0]
     X:    -0.7493      Y:     0.0050      Z:    -0.0034

  Dipole Moment: [e a0]
     X:     0.0779      Y:     0.0024      Z:    -0.0001     Total:     0.0780

  Dipole Moment: [D]
     X:     0.1980      Y:     0.0062      Z:    -0.0002     Total:     0.1981

*** tstop() called on n054 at Fri Nov  5 13:12:37 2021
Module time:
	user time   =     544.17 seconds =       9.07 minutes
	system time =      11.99 seconds =       0.20 minutes
	total time  =        140 seconds =       2.33 minutes
Total time:
	user time   =     544.17 seconds =       9.07 minutes
	system time =      11.99 seconds =       0.20 minutes
	total time  =        140 seconds =       2.33 minutes
Grab this energy -157.81305585607595
    Psi4 stopped on: Friday, 05 November 2021 01:12PM
    Psi4 wall time for execution: 0:02:19.95

*** Psi4 exiting successfully. Buy a developer a beer!
