                               Psi4 1.4a2.dev629

  ==> Input File <==

--------------------------------------------------------------------------
import os
memory 14 GB

molecule {
 C   -0.3215600194   -0.0000018661    0.0000000139
 C    0.0616994242   -1.3999103291   -2.4266414467
 C    0.0615795968    2.8015015447    0.0009680177
 C    0.0616994356   -1.4015868883    2.4256734763
 H    2.0866032246   -1.6448586340   -2.8539670225
 H   -0.7634513545   -0.3873957542   -4.0216492058
 H   -0.7683413247   -3.2926446046   -2.3454652961
 H    2.0864635700    3.2941351986    0.0026041982
 H   -0.7636921824    3.6765215138    1.6752990429
 H   -0.7684187546    3.6775261399   -1.6788203304
 H    2.0866025814   -1.6493690410    2.8513629775
 H   -0.7636147786   -3.2890932755    2.3463554487
 H   -0.7681772951   -0.3848483177    4.0242801264
units bohr
0 2
}

basis {

assign 6-31g_2dfp_

[ 6-31g_2dfp_ ]

spherical

!----------------------------------------------------------------------
! Basis Set Exchange
! Version v0.8.13
! https://www.basissetexchange.org
!----------------------------------------------------------------------
!   Basis set: 6-31G(2df,p)
! Description: 6-31G(2df,p)
!        Role: orbital
!     Version: 0  (Data from the original Basis Set Exchange)
!----------------------------------------------------------------------

****
H     0
S    3   1.00
     18.7311370              0.03349460
      2.8253937              0.23472695
      0.6401217              0.81375733
S    1   1.00
      0.1612778              1.00000000
P    1   1.00
      1.5000000              1.0000000
P    1   1.00
      0.3750000              1.0000000
****
B     0
S    6   1.00
   2068.8823000              0.0018663
    310.6495700              0.0142515
     70.6830330              0.0695516
     19.8610800              0.2325729
      6.2993048              0.4670787
      2.1270270              0.3634314
SP   3   1.00
      4.7279710             -0.1303938              0.0745976
      1.1903377             -0.1307889              0.3078467
      0.3594117              1.1309444              0.7434568
SP   1   1.00
      0.1267512              1.0000000              1.0000000
D    1   1.00
      0.8020000              1.0000000
D    1   1.00
      0.2005000              1.0000000
F    1   1.00
      0.5000000              1.0000000
****
C     0
S    6   1.00
   3047.5249000              0.0018347
    457.3695100              0.0140373
    103.9486900              0.0688426
     29.2101550              0.2321844
      9.2866630              0.4679413
      3.1639270              0.3623120
SP   3   1.00
      7.8682724             -0.1193324              0.0689991
      1.8812885             -0.1608542              0.3164240
      0.5442493              1.1434564              0.7443083
SP   1   1.00
      0.1687144              1.0000000              1.0000000
D    1   1.00
      1.2520000              1.0000000
D    1   1.00
      0.3130000              1.0000000
F    1   1.00
      0.8000000              1.0000000
****
N     0
S    6   1.00
   4173.5110000              0.0018348
    627.4579000              0.0139950
    142.9021000              0.0685870
     40.2343300              0.2322410
     12.8202100              0.4690700
      4.3904370              0.3604550
SP   3   1.00
     11.6263580             -0.1149610              0.0675800
      2.7162800             -0.1691180              0.3239070
      0.7722180              1.1458520              0.7408950
SP   1   1.00
      0.2120313              1.0000000              1.0000000
D    1   1.00
      1.8260000              1.0000000
D    1   1.00
      0.4565000              1.0000000
F    1   1.00
      1.0000000              1.0000000
****
O     0
S    6   1.00
   5484.6717000              0.0018311
    825.2349500              0.0139501
    188.0469600              0.0684451
     52.9645000              0.2327143
     16.8975700              0.4701930
      5.7996353              0.3585209
SP   3   1.00
     15.5396160             -0.1107775              0.0708743
      3.5999336             -0.1480263              0.3397528
      1.0137618              1.1307670              0.7271586
SP   1   1.00
      0.2700058              1.0000000              1.0000000
D    1   1.00
      2.5840000              1.0000000
D    1   1.00
      0.6460000              1.0000000
F    1   1.00
      1.4000000              1.0000000
****
F     0
S    6   1.00
   7001.7130900              0.0018196169
   1051.3660900              0.0139160796
    239.2856900              0.0684053245
     67.3974453              0.233185760
     21.5199573              0.471267439
      7.40310130             0.356618546
SP   3   1.00
     20.8479528             -0.108506975            0.0716287243
      4.80830834            -0.146451658            0.3459121030
      1.34406986             1.128688580            0.7224699570
SP   1   1.00
      0.358151393            1.0000000              1.0000000
D    1   1.00
      3.5000000              1.0000000
D    1   1.00
      0.8750000              1.0000000
F    1   1.00
      1.8500000              1.0000000
****
Al     0
S    6   1.00
  13983.1000000              0.00194267
   2098.7500000              0.0148599
    477.7050000              0.0728494
    134.3600000              0.2468300
     42.8709000              0.4872580
     14.5189000              0.3234960
SP   6   1.00
    239.6680000             -0.00292619             0.00460285
     57.4419000             -0.0374080              0.0331990
     18.2859000             -0.1144870              0.1362820
      6.5991400              0.1156350              0.3304760
      2.4904900              0.6125950              0.4491460
      0.9445400              0.3937990              0.2657040
SP   3   1.00
      1.2779000             -0.2276060             -0.0175130
      0.3975900              0.00144583             0.2445330
      0.1600950              1.0927900              0.8049340
SP   1   1.00
      0.0556577              1.0000000              1.0000000
D    1   1.00
      0.6500000              1.0000000
D    1   1.00
      0.1625000              1.0000000
F    1   1.00
      0.2500000              1.0000000
****
Si     0
S    6   1.00
  16115.9000000              0.00195948
   2425.5800000              0.01492880
    553.8670000              0.07284780
    156.3400000              0.24613000
     50.0683000              0.48591400
     17.0178000              0.32500200
SP   6   1.00
    292.7180000             -0.00278094             0.00443826
     69.8731000             -0.03571460             0.03266790
     22.3363000             -0.11498500             0.13472100
      8.1503900              0.09356340             0.32867800
      3.1345800              0.60301700             0.44964000
      1.2254300              0.41895900             0.26137200
SP   3   1.00
      1.7273800             -0.24463000            -0.01779510
      0.5729220              0.00431572             0.25353900
      0.2221920              1.09818000             0.80066900
SP   1   1.00
      0.0778369              1.00000000             1.00000000
D    1   1.00
      0.9000000              1.0000000
D    1   1.00
      0.2250000              1.0000000
F    1   1.00
      0.3200000              1.0000000
****
P     0
S    6   1.00
  19413.3000000              0.0018516
   2909.4200000              0.0142062
    661.3640000              0.0699995
    185.7590000              0.2400790
     59.1943000              0.4847620
     20.0310000              0.3352000
SP   6   1.00
    339.4780000             -0.00278217             0.00456462
     81.0101000             -0.0360499              0.03369360
     25.8780000             -0.1166310              0.13975500
      9.4522100              0.0968328              0.33936200
      3.6656600              0.6144180              0.45092100
      1.4674600              0.4037980              0.23858600
SP   3   1.00
      2.1562300             -0.2529230             -0.01776530
      0.7489970              0.0328517              0.27405800
      0.2831450              1.0812500              0.78542100
SP   1   1.00
      0.0998317              1.0000000              1.00000000
D    1   1.00
      1.1000000              1.0000000
D    1   1.00
      0.2750000              1.0000000
F    1   1.00
      0.4500000              1.0000000
****
S     0
S    6   1.00
  21917.1000000              0.0018690
   3301.4900000              0.0142300
    754.1460000              0.0696960
    212.7110000              0.2384870
     67.9896000              0.4833070
     23.0515000              0.3380740
SP   6   1.00
    423.7350000             -0.0023767              0.0040610
    100.7100000             -0.0316930              0.0306810
     32.1599000             -0.1133170              0.1304520
     11.8079000              0.0560900              0.3272050
      4.6311000              0.5922550              0.4528510
      1.8702500              0.4550060              0.2560420
SP   3   1.00
      2.6158400             -0.2503740             -0.0145110
      0.9221670              0.0669570              0.3102630
      0.3412870              1.0545100              0.7544830
SP   1   1.00
      0.1171670              1.0000000              1.0000000
D    1   1.00
      1.3000000              1.0000000
D    1   1.00
      0.3250000              1.0000000
F    1   1.00
      0.5500000              1.0000000
****
Cl     0
S    6   1.00
  25180.1000000              0.0018330
   3780.3500000              0.0140340
    860.4740000              0.0690970
    242.1450000              0.2374520
     77.3349000              0.4830340
     26.2470000              0.3398560
SP   6   1.00
    491.7650000             -0.0022974              0.0039894
    116.9840000             -0.0307140              0.0303180
     37.4153000             -0.1125280              0.1298800
     13.7834000              0.0450160              0.3279510
      5.4521500              0.5893530              0.4535270
      2.2258800              0.4652060              0.2521540
SP   3   1.00
      3.1864900             -0.2518300             -0.0142990
      1.1442700              0.0615890              0.3235720
      0.4203770              1.0601800              0.7435070
SP   1   1.00
      0.1426570              1.0000000              1.0000000
D    1   1.00
      1.5000000              1.0000000
D    1   1.00
      0.3750000              1.0000000
F    1   1.00
      0.7000000              1.0000000
****
}

set {
reference uhf
freeze_core true
e_convergence 10
d_convergence 10
dft_spherical_points 1202
dft_radial_points 99
}

e = energy('b3lyp')

print_out('Grab this energy {0}'.format(e))
--------------------------------------------------------------------------

    Molecular point group: c1

    Geometry (in Bohr), charge = 0, multiplicity = 2:

       Center              X                  Y                   Z               Mass
    ------------   -----------------  -----------------  -----------------  -----------------
         C           -0.322226136395    -0.000001910785     0.000000002111    12.000000000000
         C            0.061033307205    -1.399910373785    -2.426641458489    12.000000000000
         C            0.060913479805     2.801501500015     0.000968005911    12.000000000000
         C            0.061033318605    -1.401586932985     2.425673464511    12.000000000000
         H            2.085937107605    -1.644858678685    -2.853967034289     1.007825032230
         H           -0.764117471495    -0.387395798885    -4.021649217589     1.007825032230
         H           -0.769007441695    -3.292644649285    -2.345465307889     1.007825032230
         H            2.085797453005     3.294135153915     0.002604186411     1.007825032230
         H           -0.764358299395     3.676521469115     1.675299031111     1.007825032230
         H           -0.769084871595     3.677526095215    -1.678820342189     1.007825032230
         H            2.085936464405    -1.649369085685     2.851362965711     1.007825032230
         H           -0.764280895595    -3.289093320185     2.346355436911     1.007825032230
         H           -0.768843412095    -0.384848362385     4.024280114611     1.007825032230

  Charge       = 0
  Multiplicity = 2
  Basis Set: ANONYMOUS5774FB45
    Blend: 6-31G_2DFP_
  Basis Set: (ANONYMOUS5774FB45 AUX)
    Blend: DEF2-UNIVERSAL-JKFIT

    Orbital Energies [Eh]
    ---------------------

    Alpha Occupied:

       1A    -10.180330     2A    -10.166984     3A    -10.166984
       4A    -10.166938     5A     -0.797831     6A     -0.686226
       7A     -0.686225     8A     -0.530790     9A     -0.440954
      10A     -0.434884    11A     -0.434883    12A     -0.382448
      13A     -0.382446    14A     -0.363748    15A     -0.338020
      16A     -0.338020    17A     -0.169050

    Alpha Virtual:

      18A      0.076107    19A      0.134096    20A      0.134097
      21A      0.142702    22A      0.142702    23A      0.155083
      24A      0.178745    25A      0.178745    26A      0.203678
      27A      0.215026    28A      0.276024    29A      0.276026
      30A      0.399454    31A      0.399458    32A      0.403269
      33A      0.423944    34A      0.423945    35A      0.456827
      36A      0.495365    37A      0.495366    38A      0.511971
      39A      0.514038    40A      0.578959    41A      0.578968
      42A      0.591450    43A      0.591452    44A      0.602338
      45A      0.624782    46A      0.632080    47A      0.636330
      48A      0.636334    49A      0.663689    50A      0.663690
      51A      0.683778    52A      0.683779    53A      0.735077
      54A      0.825304    55A      0.825307    56A      0.854260
      57A      0.915172    58A      0.915178    59A      0.943793
      60A      0.944371    61A      0.960999    62A      0.961015
      63A      1.004181    64A      1.128564    65A      1.128576
      66A      1.141612    67A      1.163810    68A      1.163823
      69A      1.223252    70A      1.274465    71A      1.274468
      72A      1.279580    73A      1.324612    74A      1.324614
      75A      1.355570    76A      1.366381    77A      1.366385
      78A      1.392274    79A      1.403764    80A      1.403766
      81A      1.416974    82A      1.416981    83A      1.428525
      84A      1.492054    85A      1.498788    86A      1.542886
      87A      1.542888    88A      1.573837    89A      1.573839
      90A      1.669904    91A      1.739269    92A      1.739280
      93A      1.768168    94A      1.831681    95A      1.831682
      96A      1.971803    97A      2.018129    98A      2.019897
      99A      2.019901   100A      2.053117   101A      2.053117
     102A      2.738069   103A      2.738070   104A      2.791150
     105A      2.811945   106A      2.890110   107A      2.890116
     108A      2.895188   109A      2.929945   110A      2.929953
     111A      2.959056   112A      2.964432   113A      2.964446
     114A      3.034462   115A      3.070803   116A      3.070817
     117A      3.084020   118A      3.168711   119A      3.168719
     120A      3.180754   121A      3.284906   122A      3.284906
     123A      3.328272   124A      3.328278   125A      3.375322
     126A      3.489669   127A      3.489690   128A      3.514219
     129A      3.525503   130A      3.568918   131A      3.568938
     132A      3.576005   133A      3.666331   134A      3.666339
     135A      3.680756   136A      3.693591   137A      3.693608
     138A      3.777950   139A      3.777976   140A      3.787804
     141A      3.912338   142A      3.912344   143A      4.033340
     144A      4.111416   145A      4.111420   146A      4.147945
     147A      4.147953   148A      4.173052   149A      4.202253
     150A      4.203867   151A      4.203871   152A      4.211501
     153A      4.316276   154A      4.316296   155A      4.360110
     156A      4.423954   157A      4.423957   158A      4.444454
     159A      4.517661   160A      4.517662   161A      4.579253
     162A      4.579265   163A      4.618007   164A      4.709775
     165A      4.774957   166A      4.774965   167A      4.835892
     168A      4.963396   169A      5.002839   170A      5.002851
     171A      5.228392   172A      5.246674   173A      5.246674
     174A      5.356159   175A      5.356171   176A      5.479640

    Beta Occupied:

       1A    -10.167738     2A    -10.167737     3A    -10.167713
       4A    -10.166512     5A     -0.781160     6A     -0.684027
       7A     -0.684026     8A     -0.511758     9A     -0.431246
      10A     -0.431245    11A     -0.421658    12A     -0.376522
      13A     -0.376521    14A     -0.362726    15A     -0.333147
      16A     -0.333147

    Beta Virtual:

      17A     -0.025909    18A      0.077113    19A      0.135001
      20A      0.135001    21A      0.144583    22A      0.144584
      23A      0.163593    24A      0.182409    25A      0.182409
      26A      0.215251    27A      0.219028    28A      0.282361
      29A      0.282363    30A      0.400628    31A      0.400632
      32A      0.419737    33A      0.426750    34A      0.426750
      35A      0.468814    36A      0.497641    37A      0.497641
      38A      0.513713    39A      0.556296    40A      0.584532
      41A      0.584540    42A      0.597602    43A      0.597603
      44A      0.609779    45A      0.628134    46A      0.632269
      47A      0.639609    48A      0.639613    49A      0.667277
      50A      0.667277    51A      0.686393    52A      0.686395
      53A      0.757564    54A      0.830488    55A      0.830491
      56A      0.855616    57A      0.923189    58A      0.923196
      59A      0.946182    60A      0.952829    61A      0.966278
      62A      0.966294    63A      1.009450    64A      1.132594
      65A      1.132606    66A      1.154777    67A      1.168875
      68A      1.168887    69A      1.232324    70A      1.280080
      71A      1.280084    72A      1.285402    73A      1.329640
      74A      1.329642    75A      1.364926    76A      1.371617
      77A      1.371622    78A      1.393347    79A      1.407244
      80A      1.407247    81A      1.421972    82A      1.421979
      83A      1.428796    84A      1.493106    85A      1.509194
      86A      1.547290    87A      1.547291    88A      1.581718
      89A      1.581719    90A      1.674752    91A      1.745032
      92A      1.745043    93A      1.778964    94A      1.835535
      95A      1.835535    96A      1.972684    97A      2.026330
      98A      2.026333    99A      2.039506   100A      2.059816
     101A      2.059816   102A      2.746416   103A      2.746417
     104A      2.812357   105A      2.816295   106A      2.902731
     107A      2.902736   108A      2.924886   109A      2.932439
     110A      2.932448   111A      2.960122   112A      2.969014
     113A      2.969028   114A      3.042385   115A      3.080702
     116A      3.080714   117A      3.085842   118A      3.184458
     119A      3.184462   120A      3.188445   121A      3.289681
     122A      3.289681   123A      3.332053   124A      3.332059
     125A      3.383114   126A      3.492466   127A      3.492487
     128A      3.512595   129A      3.528507   130A      3.575856
     131A      3.582195   132A      3.582217   133A      3.670988
     134A      3.670999   135A      3.693990   136A      3.725384
     137A      3.725400   138A      3.782540   139A      3.782566
     140A      3.816375   141A      3.922106   142A      3.922113
     143A      4.044281   144A      4.118318   145A      4.118320
     146A      4.155081   147A      4.155090   148A      4.187035
     149A      4.209767   150A      4.209770   151A      4.210243
     152A      4.216071   153A      4.323735   154A      4.323755
     155A      4.363495   156A      4.432175   157A      4.432177
     158A      4.447311   159A      4.525439   160A      4.525440
     161A      4.589876   162A      4.589889   163A      4.625123
     164A      4.720225   165A      4.781896   166A      4.781904
     167A      4.838811   168A      4.968188   169A      5.006894
     170A      5.006906   171A      5.234093   172A      5.248466
     173A      5.248467   174A      5.362636   175A      5.362649
     176A      5.481966

    Final Occupation by Irrep:
              A
    DOCC [    16 ]
    SOCC [     1 ]

  @DF-UKS Final Energy:  -157.81306642971347

   => Energetics <=

    Nuclear Repulsion Energy =            125.4062517777020958
    One-Electron Energy =                -458.7715894057232617
    Two-Electron Energy =                 195.8597608148316453
    DFT Exchange-Correlation Energy =     -20.3074896165239629
    Empirical Dispersion Energy =           0.0000000000000000
    VV10 Nonlocal Energy =                  0.0000000000000000
    Total Energy =                       -157.8130664297134729

  UHF NO Occupations:
  HONO-2 :   15  A 1.9995995
  HONO-1 :   16  A 1.9989824
  HONO-0 :   17  A 1.0000000
  LUNO+0 :   18  A 0.0010176
  LUNO+1 :   19  A 0.0004005
  LUNO+2 :   20  A 0.0001972
  LUNO+3 :   21  A 0.0001972

Computation Completed

Properties will be evaluated at   0.000000,   0.000000,   0.000000 [a0]

Properties computed using the SCF density matrix

  Nuclear Dipole Moment: [e a0]
     X:     0.8225      Y:    -0.0000      Z:    -0.0000

  Electronic Dipole Moment: [e a0]
     X:    -0.7450      Y:     0.0000      Z:     0.0000

  Dipole Moment: [e a0]
     X:     0.0775      Y:    -0.0000      Z:     0.0000     Total:     0.0775

  Dipole Moment: [D]
     X:     0.1970      Y:    -0.0000      Z:     0.0000     Total:     0.1970

*** tstop() called on n049 at Fri Nov  5 14:44:00 2021
Module time:
	user time   =     513.21 seconds =       8.55 minutes
	system time =      11.28 seconds =       0.19 minutes
	total time  =        132 seconds =       2.20 minutes
Total time:
	user time   =     513.21 seconds =       8.55 minutes
	system time =      11.28 seconds =       0.19 minutes
	total time  =        132 seconds =       2.20 minutes
Grab this energy -157.81306642971347
    Psi4 stopped on: Friday, 05 November 2021 02:44PM
    Psi4 wall time for execution: 0:02:12.07

*** Psi4 exiting successfully. Buy a developer a beer!
