                               Psi4 1.4a2.dev629

  ==> Input File <==

--------------------------------------------------------------------------
import os
memory 14 GB

molecule {
 C   -0.3233374256    0.0010174494   -0.0053429110
 C    0.0606373990   -1.4018684147   -2.4260890830
 C    0.0617682254    2.8013610922   -0.0011096155
 C    0.0608939499   -1.4027832910    2.4254539817
 H    2.0871833349   -1.6437175054   -2.8469999775
 H   -0.7655402789   -0.3873547958   -4.0245161673
 H   -0.7651263569   -3.2923087188   -2.3485150315
 H    2.0867156269    3.2881956601    0.0009982502
 H   -0.7650243239    3.6811856380    1.6771356619
 H   -0.7666946546    3.6794670998   -1.6756770128
 H    2.0867706547   -1.6433762650    2.8484046709
 H   -0.7660545361   -3.2913839545    2.3497225851
 H   -0.7647994916   -0.3884583079    4.0265346488
units bohr
0 2
}

basis {

assign 6-31g_2dfp_

[ 6-31g_2dfp_ ]

spherical

!----------------------------------------------------------------------
! Basis Set Exchange
! Version v0.8.13
! https://www.basissetexchange.org
!----------------------------------------------------------------------
!   Basis set: 6-31G(2df,p)
! Description: 6-31G(2df,p)
!        Role: orbital
!     Version: 0  (Data from the original Basis Set Exchange)
!----------------------------------------------------------------------

****
H     0
S    3   1.00
     18.7311370              0.03349460
      2.8253937              0.23472695
      0.6401217              0.81375733
S    1   1.00
      0.1612778              1.00000000
P    1   1.00
      1.5000000              1.0000000
P    1   1.00
      0.3750000              1.0000000
****
B     0
S    6   1.00
   2068.8823000              0.0018663
    310.6495700              0.0142515
     70.6830330              0.0695516
     19.8610800              0.2325729
      6.2993048              0.4670787
      2.1270270              0.3634314
SP   3   1.00
      4.7279710             -0.1303938              0.0745976
      1.1903377             -0.1307889              0.3078467
      0.3594117              1.1309444              0.7434568
SP   1   1.00
      0.1267512              1.0000000              1.0000000
D    1   1.00
      0.8020000              1.0000000
D    1   1.00
      0.2005000              1.0000000
F    1   1.00
      0.5000000              1.0000000
****
C     0
S    6   1.00
   3047.5249000              0.0018347
    457.3695100              0.0140373
    103.9486900              0.0688426
     29.2101550              0.2321844
      9.2866630              0.4679413
      3.1639270              0.3623120
SP   3   1.00
      7.8682724             -0.1193324              0.0689991
      1.8812885             -0.1608542              0.3164240
      0.5442493              1.1434564              0.7443083
SP   1   1.00
      0.1687144              1.0000000              1.0000000
D    1   1.00
      1.2520000              1.0000000
D    1   1.00
      0.3130000              1.0000000
F    1   1.00
      0.8000000              1.0000000
****
N     0
S    6   1.00
   4173.5110000              0.0018348
    627.4579000              0.0139950
    142.9021000              0.0685870
     40.2343300              0.2322410
     12.8202100              0.4690700
      4.3904370              0.3604550
SP   3   1.00
     11.6263580             -0.1149610              0.0675800
      2.7162800             -0.1691180              0.3239070
      0.7722180              1.1458520              0.7408950
SP   1   1.00
      0.2120313              1.0000000              1.0000000
D    1   1.00
      1.8260000              1.0000000
D    1   1.00
      0.4565000              1.0000000
F    1   1.00
      1.0000000              1.0000000
****
O     0
S    6   1.00
   5484.6717000              0.0018311
    825.2349500              0.0139501
    188.0469600              0.0684451
     52.9645000              0.2327143
     16.8975700              0.4701930
      5.7996353              0.3585209
SP   3   1.00
     15.5396160             -0.1107775              0.0708743
      3.5999336             -0.1480263              0.3397528
      1.0137618              1.1307670              0.7271586
SP   1   1.00
      0.2700058              1.0000000              1.0000000
D    1   1.00
      2.5840000              1.0000000
D    1   1.00
      0.6460000              1.0000000
F    1   1.00
      1.4000000              1.0000000
****
F     0
S    6   1.00
   7001.7130900              0.0018196169
   1051.3660900              0.0139160796
    239.2856900              0.0684053245
     67.3974453              0.233185760
     21.5199573              0.471267439
      7.40310130             0.356618546
SP   3   1.00
     20.8479528             -0.108506975            0.0716287243
      4.80830834            -0.146451658            0.3459121030
      1.34406986             1.128688580            0.7224699570
SP   1   1.00
      0.358151393            1.0000000              1.0000000
D    1   1.00
      3.5000000              1.0000000
D    1   1.00
      0.8750000              1.0000000
F    1   1.00
      1.8500000              1.0000000
****
Al     0
S    6   1.00
  13983.1000000              0.00194267
   2098.7500000              0.0148599
    477.7050000              0.0728494
    134.3600000              0.2468300
     42.8709000              0.4872580
     14.5189000              0.3234960
SP   6   1.00
    239.6680000             -0.00292619             0.00460285
     57.4419000             -0.0374080              0.0331990
     18.2859000             -0.1144870              0.1362820
      6.5991400              0.1156350              0.3304760
      2.4904900              0.6125950              0.4491460
      0.9445400              0.3937990              0.2657040
SP   3   1.00
      1.2779000             -0.2276060             -0.0175130
      0.3975900              0.00144583             0.2445330
      0.1600950              1.0927900              0.8049340
SP   1   1.00
      0.0556577              1.0000000              1.0000000
D    1   1.00
      0.6500000              1.0000000
D    1   1.00
      0.1625000              1.0000000
F    1   1.00
      0.2500000              1.0000000
****
Si     0
S    6   1.00
  16115.9000000              0.00195948
   2425.5800000              0.01492880
    553.8670000              0.07284780
    156.3400000              0.24613000
     50.0683000              0.48591400
     17.0178000              0.32500200
SP   6   1.00
    292.7180000             -0.00278094             0.00443826
     69.8731000             -0.03571460             0.03266790
     22.3363000             -0.11498500             0.13472100
      8.1503900              0.09356340             0.32867800
      3.1345800              0.60301700             0.44964000
      1.2254300              0.41895900             0.26137200
SP   3   1.00
      1.7273800             -0.24463000            -0.01779510
      0.5729220              0.00431572             0.25353900
      0.2221920              1.09818000             0.80066900
SP   1   1.00
      0.0778369              1.00000000             1.00000000
D    1   1.00
      0.9000000              1.0000000
D    1   1.00
      0.2250000              1.0000000
F    1   1.00
      0.3200000              1.0000000
****
P     0
S    6   1.00
  19413.3000000              0.0018516
   2909.4200000              0.0142062
    661.3640000              0.0699995
    185.7590000              0.2400790
     59.1943000              0.4847620
     20.0310000              0.3352000
SP   6   1.00
    339.4780000             -0.00278217             0.00456462
     81.0101000             -0.0360499              0.03369360
     25.8780000             -0.1166310              0.13975500
      9.4522100              0.0968328              0.33936200
      3.6656600              0.6144180              0.45092100
      1.4674600              0.4037980              0.23858600
SP   3   1.00
      2.1562300             -0.2529230             -0.01776530
      0.7489970              0.0328517              0.27405800
      0.2831450              1.0812500              0.78542100
SP   1   1.00
      0.0998317              1.0000000              1.00000000
D    1   1.00
      1.1000000              1.0000000
D    1   1.00
      0.2750000              1.0000000
F    1   1.00
      0.4500000              1.0000000
****
S     0
S    6   1.00
  21917.1000000              0.0018690
   3301.4900000              0.0142300
    754.1460000              0.0696960
    212.7110000              0.2384870
     67.9896000              0.4833070
     23.0515000              0.3380740
SP   6   1.00
    423.7350000             -0.0023767              0.0040610
    100.7100000             -0.0316930              0.0306810
     32.1599000             -0.1133170              0.1304520
     11.8079000              0.0560900              0.3272050
      4.6311000              0.5922550              0.4528510
      1.8702500              0.4550060              0.2560420
SP   3   1.00
      2.6158400             -0.2503740             -0.0145110
      0.9221670              0.0669570              0.3102630
      0.3412870              1.0545100              0.7544830
SP   1   1.00
      0.1171670              1.0000000              1.0000000
D    1   1.00
      1.3000000              1.0000000
D    1   1.00
      0.3250000              1.0000000
F    1   1.00
      0.5500000              1.0000000
****
Cl     0
S    6   1.00
  25180.1000000              0.0018330
   3780.3500000              0.0140340
    860.4740000              0.0690970
    242.1450000              0.2374520
     77.3349000              0.4830340
     26.2470000              0.3398560
SP   6   1.00
    491.7650000             -0.0022974              0.0039894
    116.9840000             -0.0307140              0.0303180
     37.4153000             -0.1125280              0.1298800
     13.7834000              0.0450160              0.3279510
      5.4521500              0.5893530              0.4535270
      2.2258800              0.4652060              0.2521540
SP   3   1.00
      3.1864900             -0.2518300             -0.0142990
      1.1442700              0.0615890              0.3235720
      0.4203770              1.0601800              0.7435070
SP   1   1.00
      0.1426570              1.0000000              1.0000000
D    1   1.00
      1.5000000              1.0000000
D    1   1.00
      0.3750000              1.0000000
F    1   1.00
      0.7000000              1.0000000
****
}

set {
reference uhf
freeze_core true
e_convergence 10
d_convergence 10
dft_spherical_points 1202
dft_radial_points 99
}

e = energy('b3lyp')

print_out('Grab this energy {0}'.format(e))
--------------------------------------------------------------------------

    Molecular point group: c1

    Geometry (in Bohr), charge = 0, multiplicity = 2:

       Center              X                  Y                   Z               Mass
    ------------   -----------------  -----------------  -----------------  -----------------
         C           -0.323337836534     0.001455706540    -0.003977782836    12.000000000000
         C            0.060636988066    -1.401430157560    -2.424723954836    12.000000000000
         C            0.061767814466     2.801799349340     0.000255512664    12.000000000000
         C            0.060893538966    -1.402345033860     2.426819109864    12.000000000000
         H            2.087182923966    -1.643279248260    -2.845634849336     1.007825032230
         H           -0.765540689834    -0.386916538660    -4.023151039136     1.007825032230
         H           -0.765126767834    -3.291870461660    -2.347149903336     1.007825032230
         H            2.086715215966     3.288633917240     0.002363378364     1.007825032230
         H           -0.765024734834     3.681623895140     1.678500790064     1.007825032230
         H           -0.766695065534     3.679905356940    -1.674311884636     1.007825032230
         H            2.086770243766    -1.642938007860     2.849769799064     1.007825032230
         H           -0.766054947034    -3.290945697360     2.351087713264     1.007825032230
         H           -0.764799902534    -0.388020050760     4.027899776964     1.007825032230

  Charge       = 0
  Multiplicity = 2
  Basis Set: ANONYMOUS036B6678
    Blend: 6-31G_2DFP_
  Basis Set: (ANONYMOUS036B6678 AUX)
    Blend: DEF2-UNIVERSAL-JKFIT

    Orbital Energies [Eh]
    ---------------------

    Alpha Occupied:

       1A    -10.180341     2A    -10.167055     3A    -10.167027
       4A    -10.166962     5A     -0.797769     6A     -0.686392
       7A     -0.685981     8A     -0.530776     9A     -0.441132
      10A     -0.434885    11A     -0.434452    12A     -0.382722
      13A     -0.382480    14A     -0.363607    15A     -0.338595
      16A     -0.337401    17A     -0.168960

    Alpha Virtual:

      18A      0.076072    19A      0.134115    20A      0.134195
      21A      0.142441    22A      0.142813    23A      0.154880
      24A      0.178727    25A      0.178829    26A      0.203543
      27A      0.214803    28A      0.275671    29A      0.276299
      30A      0.399066    31A      0.399392    32A      0.403343
      33A      0.424094    34A      0.424102    35A      0.456593
      36A      0.495329    37A      0.495449    38A      0.512160
      39A      0.513978    40A      0.578616    41A      0.579013
      42A      0.591623    43A      0.591661    44A      0.602574
      45A      0.624749    46A      0.631768    47A      0.636105
      48A      0.636412    49A      0.663301    50A      0.663523
      51A      0.683802    52A      0.683904    53A      0.734994
      54A      0.825298    55A      0.825515    56A      0.853916
      57A      0.914873    58A      0.915171    59A      0.944126
      60A      0.944619    61A      0.961104    62A      0.961480
      63A      1.003454    64A      1.127839    65A      1.128342
      66A      1.142255    67A      1.162880    68A      1.163660
      69A      1.223328    70A      1.273987    71A      1.274993
      72A      1.279351    73A      1.324246    74A      1.324468
      75A      1.355994    76A      1.365695    77A      1.366417
      78A      1.392423    79A      1.403816    80A      1.404289
      81A      1.416697    82A      1.417532    83A      1.427931
      84A      1.491490    85A      1.499081    86A      1.542658
      87A      1.543006    88A      1.574129    89A      1.574768
      90A      1.669814    91A      1.739199    92A      1.739636
      93A      1.768331    94A      1.831128    95A      1.831661
      96A      1.971727    97A      2.018058    98A      2.018544
      99A      2.019798   100A      2.051846   101A      2.053448
     102A      2.738244   103A      2.738728   104A      2.790925
     105A      2.811424   106A      2.889077   107A      2.890823
     108A      2.894935   109A      2.929074   110A      2.929921
     111A      2.958989   112A      2.964045   113A      2.964720
     114A      3.034002   115A      3.070771   116A      3.071811
     117A      3.084349   118A      3.168639   119A      3.168850
     120A      3.180676   121A      3.284943   122A      3.285680
     123A      3.326770   124A      3.327540   125A      3.375608
     126A      3.489601   127A      3.490688   128A      3.514025
     129A      3.525336   130A      3.568136   131A      3.568638
     132A      3.575150   133A      3.666012   134A      3.666723
     135A      3.679693   136A      3.694075   137A      3.694157
     138A      3.776060   139A      3.777525   140A      3.789169
     141A      3.911647   142A      3.912799   143A      4.034440
     144A      4.110980   145A      4.111756   146A      4.147129
     147A      4.149110   148A      4.173265   149A      4.202071
     150A      4.203105   151A      4.203609   152A      4.210876
     153A      4.315010   154A      4.316924   155A      4.358975
     156A      4.423868   157A      4.424987   158A      4.443473
     159A      4.516607   160A      4.517074   161A      4.577668
     162A      4.578585   163A      4.617828   164A      4.709471
     165A      4.774035   166A      4.775179   167A      4.836899
     168A      4.962823   169A      5.002586   170A      5.003366
     171A      5.228034   172A      5.246580   173A      5.247071
     174A      5.354945   175A      5.356064   176A      5.479350

    Beta Occupied:

       1A    -10.167810     2A    -10.167783     3A    -10.167730
       4A    -10.166519     5A     -0.781094     6A     -0.684183
       7A     -0.683796     8A     -0.511747     9A     -0.431254
      10A     -0.430836    11A     -0.421818    12A     -0.376773
      13A     -0.376601    14A     -0.362590    15A     -0.333726
      16A     -0.332516

    Beta Virtual:

      17A     -0.025742    18A      0.077081    19A      0.134995
      20A      0.135094    21A      0.144327    22A      0.144669
      23A      0.163339    24A      0.182406    25A      0.182493
      26A      0.215032    27A      0.218926    28A      0.282056
      29A      0.282610    30A      0.400237    31A      0.400559
      32A      0.419789    33A      0.426898    34A      0.426921
      35A      0.468500    36A      0.497589    37A      0.497711
      38A      0.513895    39A      0.556321    40A      0.584145
      41A      0.584587    42A      0.597792    43A      0.597849
      44A      0.609997    45A      0.628124    46A      0.631927
      47A      0.639377    48A      0.639712    49A      0.666866
      50A      0.667087    51A      0.686435    52A      0.686541
      53A      0.757517    54A      0.830471    55A      0.830680
      56A      0.855269    57A      0.922824    58A      0.923162
      59A      0.945963    60A      0.953547    61A      0.966407
      62A      0.966790    63A      1.008694    64A      1.131905
      65A      1.132351    66A      1.155608    67A      1.167961
      68A      1.168732    69A      1.232300    70A      1.279624
      71A      1.280550    72A      1.285106    73A      1.329239
      74A      1.329454    75A      1.365410    76A      1.370954
      77A      1.371646    78A      1.393484    79A      1.407254
      80A      1.407778    81A      1.421765    82A      1.422559
      83A      1.428206    84A      1.492539    85A      1.509524
      86A      1.547055    87A      1.547426    88A      1.582011
      89A      1.582630    90A      1.674662    91A      1.744958
      92A      1.745401    93A      1.779108    94A      1.834971
      95A      1.835529    96A      1.972587    97A      2.024753
      98A      2.026141    99A      2.039678   100A      2.058557
     101A      2.060174   102A      2.746551   103A      2.747093
     104A      2.811836   105A      2.816061   106A      2.901829
     107A      2.903445   108A      2.924641   109A      2.931492
     110A      2.932470   111A      2.960054   112A      2.968599
     113A      2.969251   114A      3.041936   115A      3.080753
     116A      3.081649   117A      3.086165   118A      3.184284
     119A      3.184562   120A      3.188502   121A      3.289793
     122A      3.290427   123A      3.330570   124A      3.331349
     125A      3.383427   126A      3.492316   127A      3.493427
     128A      3.512395   129A      3.528382   130A      3.574989
     131A      3.581554   132A      3.581926   133A      3.670755
     134A      3.671482   135A      3.692979   136A      3.725533
     137A      3.725962   138A      3.780604   139A      3.782058
     140A      3.817681   141A      3.921459   142A      3.922627
     143A      4.045326   144A      4.117833   145A      4.118536
     146A      4.154368   147A      4.156288   148A      4.187325
     149A      4.208438   150A      4.209357   151A      4.210827
     152A      4.215354   153A      4.322387   154A      4.324427
     155A      4.362338   156A      4.432079   157A      4.433188
     158A      4.446375   159A      4.524379   160A      4.524882
     161A      4.588269   162A      4.589163   163A      4.625042
     164A      4.719818   165A      4.780959   166A      4.782162
     167A      4.839815   168A      4.967615   169A      5.006634
     170A      5.007398   171A      5.233748   172A      5.248373
     173A      5.248848   174A      5.361399   175A      5.362572
     176A      5.481672

    Final Occupation by Irrep:
              A
    DOCC [    16 ]
    SOCC [     1 ]

  @DF-UKS Final Energy:  -157.81306287938926

   => Energetics <=

    Nuclear Repulsion Energy =            125.3946943256824511
    One-Electron Energy =                -458.7490339037057083
    Two-Electron Energy =                 195.8484225958578406
    DFT Exchange-Correlation Energy =     -20.3071458972238403
    Empirical Dispersion Energy =           0.0000000000000000
    VV10 Nonlocal Energy =                  0.0000000000000000
    Total Energy =                       -157.8130628793892640

  UHF NO Occupations:
  HONO-2 :   15  A 1.9996009
  HONO-1 :   16  A 1.9989805
  HONO-0 :   17  A 1.0000000
  LUNO+0 :   18  A 0.0010195
  LUNO+1 :   19  A 0.0003991
  LUNO+2 :   20  A 0.0001987
  LUNO+3 :   21  A 0.0001964

Computation Completed

Properties will be evaluated at   0.000000,   0.000000,   0.000000 [a0]

Properties computed using the SCF density matrix

  Nuclear Dipole Moment: [e a0]
     X:     0.8272      Y:     0.0031      Z:     0.0096

  Electronic Dipole Moment: [e a0]
     X:    -0.7493      Y:    -0.0030      Z:    -0.0108

  Dipole Moment: [e a0]
     X:     0.0779      Y:     0.0001      Z:    -0.0012     Total:     0.0779

  Dipole Moment: [D]
     X:     0.1980      Y:     0.0001      Z:    -0.0031     Total:     0.1981

*** tstop() called on n089 at Fri Nov  5 11:48:04 2021
Module time:
	user time   =     539.18 seconds =       8.99 minutes
	system time =       4.93 seconds =       0.08 minutes
	total time  =        137 seconds =       2.28 minutes
Total time:
	user time   =     539.18 seconds =       8.99 minutes
	system time =       4.93 seconds =       0.08 minutes
	total time  =        137 seconds =       2.28 minutes
Grab this energy -157.81306287938926
    Psi4 stopped on: Friday, 05 November 2021 11:48AM
    Psi4 wall time for execution: 0:02:16.75

*** Psi4 exiting successfully. Buy a developer a beer!
