                               Psi4 1.4a2.dev629

  ==> Input File <==

--------------------------------------------------------------------------
import os
memory 14 GB

molecule {
 C   -0.3233154673   -0.0000032982   -0.0053438550
 C    0.0611057095   -1.4007503751   -2.4272714430
 C    0.0611133356    2.8024142259   -0.0011054195
 C    0.0613615477   -1.4016588764    2.4266341608
 H    2.0839902817   -1.6444476906   -2.8470530895
 H   -0.7642490279   -0.3899846221   -4.0229076229
 H   -0.7635789361   -3.2899470451   -2.3496069514
 H    2.0836444308    3.2884590022    0.0009984943
 H   -0.7632861657    3.6809055872    1.6744457996
 H   -0.7649550216    3.6791904976   -1.6729795351
 H    2.0835783930   -1.6441038990    2.8484545946
 H   -0.7645078544   -3.2890165020    2.3508121456
 H   -0.7635091020   -0.3910813181    4.0249227213
units bohr
0 2
}

basis {

assign 6-31g_2dfp_

[ 6-31g_2dfp_ ]

spherical

!----------------------------------------------------------------------
! Basis Set Exchange
! Version v0.8.13
! https://www.basissetexchange.org
!----------------------------------------------------------------------
!   Basis set: 6-31G(2df,p)
! Description: 6-31G(2df,p)
!        Role: orbital
!     Version: 0  (Data from the original Basis Set Exchange)
!----------------------------------------------------------------------

****
H     0
S    3   1.00
     18.7311370              0.03349460
      2.8253937              0.23472695
      0.6401217              0.81375733
S    1   1.00
      0.1612778              1.00000000
P    1   1.00
      1.5000000              1.0000000
P    1   1.00
      0.3750000              1.0000000
****
B     0
S    6   1.00
   2068.8823000              0.0018663
    310.6495700              0.0142515
     70.6830330              0.0695516
     19.8610800              0.2325729
      6.2993048              0.4670787
      2.1270270              0.3634314
SP   3   1.00
      4.7279710             -0.1303938              0.0745976
      1.1903377             -0.1307889              0.3078467
      0.3594117              1.1309444              0.7434568
SP   1   1.00
      0.1267512              1.0000000              1.0000000
D    1   1.00
      0.8020000              1.0000000
D    1   1.00
      0.2005000              1.0000000
F    1   1.00
      0.5000000              1.0000000
****
C     0
S    6   1.00
   3047.5249000              0.0018347
    457.3695100              0.0140373
    103.9486900              0.0688426
     29.2101550              0.2321844
      9.2866630              0.4679413
      3.1639270              0.3623120
SP   3   1.00
      7.8682724             -0.1193324              0.0689991
      1.8812885             -0.1608542              0.3164240
      0.5442493              1.1434564              0.7443083
SP   1   1.00
      0.1687144              1.0000000              1.0000000
D    1   1.00
      1.2520000              1.0000000
D    1   1.00
      0.3130000              1.0000000
F    1   1.00
      0.8000000              1.0000000
****
N     0
S    6   1.00
   4173.5110000              0.0018348
    627.4579000              0.0139950
    142.9021000              0.0685870
     40.2343300              0.2322410
     12.8202100              0.4690700
      4.3904370              0.3604550
SP   3   1.00
     11.6263580             -0.1149610              0.0675800
      2.7162800             -0.1691180              0.3239070
      0.7722180              1.1458520              0.7408950
SP   1   1.00
      0.2120313              1.0000000              1.0000000
D    1   1.00
      1.8260000              1.0000000
D    1   1.00
      0.4565000              1.0000000
F    1   1.00
      1.0000000              1.0000000
****
O     0
S    6   1.00
   5484.6717000              0.0018311
    825.2349500              0.0139501
    188.0469600              0.0684451
     52.9645000              0.2327143
     16.8975700              0.4701930
      5.7996353              0.3585209
SP   3   1.00
     15.5396160             -0.1107775              0.0708743
      3.5999336             -0.1480263              0.3397528
      1.0137618              1.1307670              0.7271586
SP   1   1.00
      0.2700058              1.0000000              1.0000000
D    1   1.00
      2.5840000              1.0000000
D    1   1.00
      0.6460000              1.0000000
F    1   1.00
      1.4000000              1.0000000
****
F     0
S    6   1.00
   7001.7130900              0.0018196169
   1051.3660900              0.0139160796
    239.2856900              0.0684053245
     67.3974453              0.233185760
     21.5199573              0.471267439
      7.40310130             0.356618546
SP   3   1.00
     20.8479528             -0.108506975            0.0716287243
      4.80830834            -0.146451658            0.3459121030
      1.34406986             1.128688580            0.7224699570
SP   1   1.00
      0.358151393            1.0000000              1.0000000
D    1   1.00
      3.5000000              1.0000000
D    1   1.00
      0.8750000              1.0000000
F    1   1.00
      1.8500000              1.0000000
****
Al     0
S    6   1.00
  13983.1000000              0.00194267
   2098.7500000              0.0148599
    477.7050000              0.0728494
    134.3600000              0.2468300
     42.8709000              0.4872580
     14.5189000              0.3234960
SP   6   1.00
    239.6680000             -0.00292619             0.00460285
     57.4419000             -0.0374080              0.0331990
     18.2859000             -0.1144870              0.1362820
      6.5991400              0.1156350              0.3304760
      2.4904900              0.6125950              0.4491460
      0.9445400              0.3937990              0.2657040
SP   3   1.00
      1.2779000             -0.2276060             -0.0175130
      0.3975900              0.00144583             0.2445330
      0.1600950              1.0927900              0.8049340
SP   1   1.00
      0.0556577              1.0000000              1.0000000
D    1   1.00
      0.6500000              1.0000000
D    1   1.00
      0.1625000              1.0000000
F    1   1.00
      0.2500000              1.0000000
****
Si     0
S    6   1.00
  16115.9000000              0.00195948
   2425.5800000              0.01492880
    553.8670000              0.07284780
    156.3400000              0.24613000
     50.0683000              0.48591400
     17.0178000              0.32500200
SP   6   1.00
    292.7180000             -0.00278094             0.00443826
     69.8731000             -0.03571460             0.03266790
     22.3363000             -0.11498500             0.13472100
      8.1503900              0.09356340             0.32867800
      3.1345800              0.60301700             0.44964000
      1.2254300              0.41895900             0.26137200
SP   3   1.00
      1.7273800             -0.24463000            -0.01779510
      0.5729220              0.00431572             0.25353900
      0.2221920              1.09818000             0.80066900
SP   1   1.00
      0.0778369              1.00000000             1.00000000
D    1   1.00
      0.9000000              1.0000000
D    1   1.00
      0.2250000              1.0000000
F    1   1.00
      0.3200000              1.0000000
****
P     0
S    6   1.00
  19413.3000000              0.0018516
   2909.4200000              0.0142062
    661.3640000              0.0699995
    185.7590000              0.2400790
     59.1943000              0.4847620
     20.0310000              0.3352000
SP   6   1.00
    339.4780000             -0.00278217             0.00456462
     81.0101000             -0.0360499              0.03369360
     25.8780000             -0.1166310              0.13975500
      9.4522100              0.0968328              0.33936200
      3.6656600              0.6144180              0.45092100
      1.4674600              0.4037980              0.23858600
SP   3   1.00
      2.1562300             -0.2529230             -0.01776530
      0.7489970              0.0328517              0.27405800
      0.2831450              1.0812500              0.78542100
SP   1   1.00
      0.0998317              1.0000000              1.00000000
D    1   1.00
      1.1000000              1.0000000
D    1   1.00
      0.2750000              1.0000000
F    1   1.00
      0.4500000              1.0000000
****
S     0
S    6   1.00
  21917.1000000              0.0018690
   3301.4900000              0.0142300
    754.1460000              0.0696960
    212.7110000              0.2384870
     67.9896000              0.4833070
     23.0515000              0.3380740
SP   6   1.00
    423.7350000             -0.0023767              0.0040610
    100.7100000             -0.0316930              0.0306810
     32.1599000             -0.1133170              0.1304520
     11.8079000              0.0560900              0.3272050
      4.6311000              0.5922550              0.4528510
      1.8702500              0.4550060              0.2560420
SP   3   1.00
      2.6158400             -0.2503740             -0.0145110
      0.9221670              0.0669570              0.3102630
      0.3412870              1.0545100              0.7544830
SP   1   1.00
      0.1171670              1.0000000              1.0000000
D    1   1.00
      1.3000000              1.0000000
D    1   1.00
      0.3250000              1.0000000
F    1   1.00
      0.5500000              1.0000000
****
Cl     0
S    6   1.00
  25180.1000000              0.0018330
   3780.3500000              0.0140340
    860.4740000              0.0690970
    242.1450000              0.2374520
     77.3349000              0.4830340
     26.2470000              0.3398560
SP   6   1.00
    491.7650000             -0.0022974              0.0039894
    116.9840000             -0.0307140              0.0303180
     37.4153000             -0.1125280              0.1298800
     13.7834000              0.0450160              0.3279510
      5.4521500              0.5893530              0.4535270
      2.2258800              0.4652060              0.2521540
SP   3   1.00
      3.1864900             -0.2518300             -0.0142990
      1.1442700              0.0615890              0.3235720
      0.4203770              1.0601800              0.7435070
SP   1   1.00
      0.1426570              1.0000000              1.0000000
D    1   1.00
      1.5000000              1.0000000
D    1   1.00
      0.3750000              1.0000000
F    1   1.00
      0.7000000              1.0000000
****
}

set {
reference uhf
freeze_core true
e_convergence 10
d_convergence 10
dft_spherical_points 1202
dft_radial_points 99
}

e = energy('b3lyp')

print_out('Grab this energy {0}'.format(e))
--------------------------------------------------------------------------

    Molecular point group: c1

    Geometry (in Bohr), charge = 0, multiplicity = 2:

       Center              X                  Y                   Z               Mass
    ------------   -----------------  -----------------  -----------------  -----------------
         C           -0.323374233750    -0.000003191685    -0.003978933134    12.000000000000
         C            0.061046943050    -1.400750268585    -2.425906521134    12.000000000000
         C            0.061054569150     2.802414332415     0.000259502366    12.000000000000
         C            0.061302781250    -1.401658769885     2.427999082666    12.000000000000
         H            2.083931515250    -1.644447584085    -2.845688167634     1.007825032230
         H           -0.764307794350    -0.389984515585    -4.021542701034     1.007825032230
         H           -0.763637702550    -3.289946938585    -2.348242029534     1.007825032230
         H            2.083585664350     3.288459108715     0.002363416166     1.007825032230
         H           -0.763344932150     3.680905693715     1.675810721466     1.007825032230
         H           -0.765013788050     3.679190604115    -1.671614613234     1.007825032230
         H            2.083519626550    -1.644103792485     2.849819516466     1.007825032230
         H           -0.764566620850    -3.289016395485     2.352177067466     1.007825032230
         H           -0.763567868450    -0.391081211585     4.026287643166     1.007825032230

  Charge       = 0
  Multiplicity = 2
  Basis Set: ANONYMOUS91F9A041
    Blend: 6-31G_2DFP_
  Basis Set: (ANONYMOUS91F9A041 AUX)
    Blend: DEF2-UNIVERSAL-JKFIT

    Orbital Energies [Eh]
    ---------------------

    Alpha Occupied:

       1A    -10.180274     2A    -10.166515     3A    -10.166484
       4A    -10.166438     5A     -0.797730     6A     -0.686735
       7A     -0.686358     8A     -0.531086     9A     -0.441231
      10A     -0.435022    11A     -0.434593    12A     -0.382976
      13A     -0.382743    14A     -0.363924    15A     -0.338524
      16A     -0.337483    17A     -0.168899

    Alpha Virtual:

      18A      0.076403    19A      0.134506    20A      0.134536
      21A      0.142860    22A      0.143214    23A      0.155178
      24A      0.179279    25A      0.179292    26A      0.203433
      27A      0.215257    28A      0.275719    29A      0.276297
      30A      0.399049    31A      0.399298    32A      0.403551
      33A      0.424371    34A      0.424371    35A      0.456725
      36A      0.495565    37A      0.495662    38A      0.512432
      39A      0.514110    40A      0.578955    41A      0.579346
      42A      0.592239    43A      0.592247    44A      0.603227
      45A      0.625731    46A      0.632477    47A      0.636668
      48A      0.636968    49A      0.663682    50A      0.663817
      51A      0.684355    52A      0.684457    53A      0.735303
      54A      0.826117    55A      0.826333    56A      0.854431
      57A      0.915623    58A      0.915847    59A      0.944753
      60A      0.945411    61A      0.961772    62A      0.962123
      63A      1.003553    64A      1.128263    65A      1.128757
      66A      1.143134    67A      1.163136    68A      1.163911
      69A      1.223771    70A      1.274558    71A      1.275498
      72A      1.278895    73A      1.324968    74A      1.325160
      75A      1.356852    76A      1.366283    77A      1.366827
      78A      1.393022    79A      1.405020    80A      1.405126
      81A      1.417721    82A      1.418360    83A      1.428676
      84A      1.492387    85A      1.500431    86A      1.543314
      87A      1.543326    88A      1.574621    89A      1.574664
      90A      1.671981    91A      1.740650    92A      1.741059
      93A      1.769845    94A      1.833632    95A      1.834144
      96A      1.973359    97A      2.019369    98A      2.019690
      99A      2.020822   100A      2.053195   101A      2.054260
     102A      2.739225   103A      2.739706   104A      2.791138
     105A      2.811937   106A      2.889941   107A      2.891078
     108A      2.895013   109A      2.929504   110A      2.930269
     111A      2.959618   112A      2.964885   113A      2.965200
     114A      3.034915   115A      3.071737   116A      3.072755
     117A      3.085280   118A      3.168027   119A      3.168179
     120A      3.180950   121A      3.284984   122A      3.285571
     123A      3.326266   124A      3.327042   125A      3.374903
     126A      3.488625   127A      3.489678   128A      3.513736
     129A      3.524725   130A      3.568342   131A      3.568802
     132A      3.573484   133A      3.666758   134A      3.667402
     135A      3.681467   136A      3.694949   137A      3.694993
     138A      3.776589   139A      3.778077   140A      3.789730
     141A      3.912687   142A      3.913643   143A      4.036769
     144A      4.113504   145A      4.114165   146A      4.150460
     147A      4.152422   148A      4.176247   149A      4.203602
     150A      4.204385   151A      4.205129   152A      4.214576
     153A      4.317685   154A      4.318765   155A      4.361399
     156A      4.426963   157A      4.427083   158A      4.445455
     159A      4.519133   160A      4.519401   161A      4.579383
     162A      4.579815   163A      4.618513   164A      4.711500
     165A      4.775824   166A      4.776936   167A      4.839211
     168A      4.963639   169A      5.003830   170A      5.004345
     171A      5.233334   172A      5.252085   173A      5.252143
     174A      5.359544   175A      5.360661   176A      5.482593

    Beta Occupied:

       1A    -10.167265     2A    -10.167239     3A    -10.167212
       4A    -10.166431     5A     -0.781083     6A     -0.684524
       7A     -0.684171     8A     -0.512000     9A     -0.431403
      10A     -0.430981    11A     -0.421954    12A     -0.377029
      13A     -0.376878    14A     -0.362911    15A     -0.333648
      16A     -0.332587

    Beta Virtual:

      17A     -0.025510    18A      0.077409    19A      0.135417
      20A      0.135420    21A      0.144713    22A      0.145048
      23A      0.163575    24A      0.182928    25A      0.182965
      26A      0.215485    27A      0.218836    28A      0.282111
      29A      0.282619    30A      0.400217    31A      0.400460
      32A      0.420013    33A      0.427173    34A      0.427195
      35A      0.468614    36A      0.497822    37A      0.497924
      38A      0.514161    39A      0.556511    40A      0.584500
      41A      0.584938    42A      0.598436    43A      0.598448
      44A      0.610638    45A      0.629094    46A      0.632627
      47A      0.639920    48A      0.640248    49A      0.667257
      50A      0.667380    51A      0.686954    52A      0.687058
      53A      0.757852    54A      0.831287    55A      0.831495
      56A      0.855760    57A      0.923553    58A      0.923831
      59A      0.946589    60A      0.954362    61A      0.967063
      62A      0.967429    63A      1.008805    64A      1.132311
      65A      1.132756    66A      1.156486    67A      1.168244
      68A      1.169006    69A      1.232726    70A      1.280197
      71A      1.281031    72A      1.284634    73A      1.329995
      74A      1.330164    75A      1.366291    76A      1.371575
      77A      1.372021    78A      1.394075    79A      1.408427
      80A      1.408640    81A      1.422778    82A      1.423401
      83A      1.428937    84A      1.493440    85A      1.510876
      86A      1.547587    87A      1.547610    88A      1.582617
      89A      1.582626    90A      1.676904    91A      1.746414
      92A      1.746830    93A      1.780567    94A      1.837443
      95A      1.837983    96A      1.974214    97A      2.026071
      98A      2.027191    99A      2.040738   100A      2.059923
     101A      2.060963   102A      2.747542   103A      2.748085
     104A      2.812353   105A      2.816300   106A      2.902759
     107A      2.903723   108A      2.924760   109A      2.931883
     110A      2.932752   111A      2.960688   112A      2.969472
     113A      2.969783   114A      3.042770   115A      3.081784
     116A      3.082646   117A      3.087101   118A      3.183693
     119A      3.183839   120A      3.188766   121A      3.289769
     122A      3.290275   123A      3.330076   124A      3.330856
     125A      3.382745   126A      3.491390   127A      3.492459
     128A      3.512110   129A      3.527785   130A      3.573328
     131A      3.581752   132A      3.582123   133A      3.671875
     134A      3.672351   135A      3.694824   136A      3.726295
     137A      3.726575   138A      3.781117   139A      3.782592
     140A      3.818271   141A      3.922495   142A      3.923446
     143A      4.047781   144A      4.120445   145A      4.121010
     146A      4.157658   147A      4.159575   148A      4.190161
     149A      4.209944   150A      4.210731   151A      4.212198
     152A      4.219025   153A      4.324979   154A      4.326186
     155A      4.364753   156A      4.435152   157A      4.435263
     158A      4.448326   159A      4.526865   160A      4.527227
     161A      4.589931   162A      4.590379   163A      4.625722
     164A      4.721842   165A      4.782738   166A      4.783922
     167A      4.842133   168A      4.968404   169A      5.007866
     170A      5.008351   171A      5.239025   172A      5.253869
     173A      5.253916   174A      5.365971   175A      5.367140
     176A      5.484902

    Final Occupation by Irrep:
              A
    DOCC [    16 ]
    SOCC [     1 ]

  @DF-UKS Final Energy:  -157.81301445425990

   => Energetics <=

    Nuclear Repulsion Energy =            125.4321185033824548
    One-Electron Energy =                -458.8199469083868962
    Two-Electron Energy =                 195.8859897500480542
    DFT Exchange-Correlation Energy =     -20.3111757993035305
    Empirical Dispersion Energy =           0.0000000000000000
    VV10 Nonlocal Energy =                  0.0000000000000000
    Total Energy =                       -157.8130144542598998

  UHF NO Occupations:
  HONO-2 :   15  A 1.9996034
  HONO-1 :   16  A 1.9989797
  HONO-0 :   17  A 1.0000000
  LUNO+0 :   18  A 0.0010203
  LUNO+1 :   19  A 0.0003966
  LUNO+2 :   20  A 0.0001990
  LUNO+3 :   21  A 0.0001968

Computation Completed

Properties will be evaluated at   0.000000,   0.000000,   0.000000 [a0]

Properties computed using the SCF density matrix

  Nuclear Dipole Moment: [e a0]
     X:     0.8268      Y:    -0.0000      Z:     0.0096

  Electronic Dipole Moment: [e a0]
     X:    -0.7482      Y:     0.0000      Z:    -0.0108

  Dipole Moment: [e a0]
     X:     0.0785      Y:     0.0000      Z:    -0.0012     Total:     0.0786

  Dipole Moment: [D]
     X:     0.1996      Y:     0.0000      Z:    -0.0031     Total:     0.1997

*** tstop() called on n049 at Fri Nov  5 13:55:53 2021
Module time:
	user time   =     546.96 seconds =       9.12 minutes
	system time =      12.00 seconds =       0.20 minutes
	total time  =        140 seconds =       2.33 minutes
Total time:
	user time   =     546.96 seconds =       9.12 minutes
	system time =      12.00 seconds =       0.20 minutes
	total time  =        140 seconds =       2.33 minutes
Grab this energy -157.8130144542599
    Psi4 stopped on: Friday, 05 November 2021 01:55PM
    Psi4 wall time for execution: 0:02:20.58

*** Psi4 exiting successfully. Buy a developer a beer!
