                               Psi4 1.4a2.dev629

  ==> Input File <==

--------------------------------------------------------------------------
import os
memory 14 GB

molecule {
 C   -0.3251170656   -0.0053452810    0.0000000000
 C    0.0605090664   -1.4018516585   -2.4261450986
 C    0.0606106054    2.8019619609    0.0000000000
 C    0.0605090664   -1.4018516585    2.4261450986
 H    2.0873720381   -1.6401819899   -2.8423830672
 H   -0.7642386375   -0.3897677125   -4.0286893508
 H   -0.7658481780   -3.2921706040   -2.3512764783
 H    2.0868796948    3.2826764279   -0.0000000000
 H   -0.7652848446    3.6843132542    1.6755469121
 H   -0.7652848446    3.6843132542   -1.6755469121
 H    2.0873720381   -1.6401819899    2.8423830672
 H   -0.7658481780   -3.2921706040    2.3512764783
 H   -0.7642386375   -0.3897677125    4.0286893508
units bohr
0 2
}

basis {

assign 6-31g_2dfp_

[ 6-31g_2dfp_ ]

spherical

!----------------------------------------------------------------------
! Basis Set Exchange
! Version v0.8.13
! https://www.basissetexchange.org
!----------------------------------------------------------------------
!   Basis set: 6-31G(2df,p)
! Description: 6-31G(2df,p)
!        Role: orbital
!     Version: 0  (Data from the original Basis Set Exchange)
!----------------------------------------------------------------------

****
H     0
S    3   1.00
     18.7311370              0.03349460
      2.8253937              0.23472695
      0.6401217              0.81375733
S    1   1.00
      0.1612778              1.00000000
P    1   1.00
      1.5000000              1.0000000
P    1   1.00
      0.3750000              1.0000000
****
B     0
S    6   1.00
   2068.8823000              0.0018663
    310.6495700              0.0142515
     70.6830330              0.0695516
     19.8610800              0.2325729
      6.2993048              0.4670787
      2.1270270              0.3634314
SP   3   1.00
      4.7279710             -0.1303938              0.0745976
      1.1903377             -0.1307889              0.3078467
      0.3594117              1.1309444              0.7434568
SP   1   1.00
      0.1267512              1.0000000              1.0000000
D    1   1.00
      0.8020000              1.0000000
D    1   1.00
      0.2005000              1.0000000
F    1   1.00
      0.5000000              1.0000000
****
C     0
S    6   1.00
   3047.5249000              0.0018347
    457.3695100              0.0140373
    103.9486900              0.0688426
     29.2101550              0.2321844
      9.2866630              0.4679413
      3.1639270              0.3623120
SP   3   1.00
      7.8682724             -0.1193324              0.0689991
      1.8812885             -0.1608542              0.3164240
      0.5442493              1.1434564              0.7443083
SP   1   1.00
      0.1687144              1.0000000              1.0000000
D    1   1.00
      1.2520000              1.0000000
D    1   1.00
      0.3130000              1.0000000
F    1   1.00
      0.8000000              1.0000000
****
N     0
S    6   1.00
   4173.5110000              0.0018348
    627.4579000              0.0139950
    142.9021000              0.0685870
     40.2343300              0.2322410
     12.8202100              0.4690700
      4.3904370              0.3604550
SP   3   1.00
     11.6263580             -0.1149610              0.0675800
      2.7162800             -0.1691180              0.3239070
      0.7722180              1.1458520              0.7408950
SP   1   1.00
      0.2120313              1.0000000              1.0000000
D    1   1.00
      1.8260000              1.0000000
D    1   1.00
      0.4565000              1.0000000
F    1   1.00
      1.0000000              1.0000000
****
O     0
S    6   1.00
   5484.6717000              0.0018311
    825.2349500              0.0139501
    188.0469600              0.0684451
     52.9645000              0.2327143
     16.8975700              0.4701930
      5.7996353              0.3585209
SP   3   1.00
     15.5396160             -0.1107775              0.0708743
      3.5999336             -0.1480263              0.3397528
      1.0137618              1.1307670              0.7271586
SP   1   1.00
      0.2700058              1.0000000              1.0000000
D    1   1.00
      2.5840000              1.0000000
D    1   1.00
      0.6460000              1.0000000
F    1   1.00
      1.4000000              1.0000000
****
F     0
S    6   1.00
   7001.7130900              0.0018196169
   1051.3660900              0.0139160796
    239.2856900              0.0684053245
     67.3974453              0.233185760
     21.5199573              0.471267439
      7.40310130             0.356618546
SP   3   1.00
     20.8479528             -0.108506975            0.0716287243
      4.80830834            -0.146451658            0.3459121030
      1.34406986             1.128688580            0.7224699570
SP   1   1.00
      0.358151393            1.0000000              1.0000000
D    1   1.00
      3.5000000              1.0000000
D    1   1.00
      0.8750000              1.0000000
F    1   1.00
      1.8500000              1.0000000
****
Al     0
S    6   1.00
  13983.1000000              0.00194267
   2098.7500000              0.0148599
    477.7050000              0.0728494
    134.3600000              0.2468300
     42.8709000              0.4872580
     14.5189000              0.3234960
SP   6   1.00
    239.6680000             -0.00292619             0.00460285
     57.4419000             -0.0374080              0.0331990
     18.2859000             -0.1144870              0.1362820
      6.5991400              0.1156350              0.3304760
      2.4904900              0.6125950              0.4491460
      0.9445400              0.3937990              0.2657040
SP   3   1.00
      1.2779000             -0.2276060             -0.0175130
      0.3975900              0.00144583             0.2445330
      0.1600950              1.0927900              0.8049340
SP   1   1.00
      0.0556577              1.0000000              1.0000000
D    1   1.00
      0.6500000              1.0000000
D    1   1.00
      0.1625000              1.0000000
F    1   1.00
      0.2500000              1.0000000
****
Si     0
S    6   1.00
  16115.9000000              0.00195948
   2425.5800000              0.01492880
    553.8670000              0.07284780
    156.3400000              0.24613000
     50.0683000              0.48591400
     17.0178000              0.32500200
SP   6   1.00
    292.7180000             -0.00278094             0.00443826
     69.8731000             -0.03571460             0.03266790
     22.3363000             -0.11498500             0.13472100
      8.1503900              0.09356340             0.32867800
      3.1345800              0.60301700             0.44964000
      1.2254300              0.41895900             0.26137200
SP   3   1.00
      1.7273800             -0.24463000            -0.01779510
      0.5729220              0.00431572             0.25353900
      0.2221920              1.09818000             0.80066900
SP   1   1.00
      0.0778369              1.00000000             1.00000000
D    1   1.00
      0.9000000              1.0000000
D    1   1.00
      0.2250000              1.0000000
F    1   1.00
      0.3200000              1.0000000
****
P     0
S    6   1.00
  19413.3000000              0.0018516
   2909.4200000              0.0142062
    661.3640000              0.0699995
    185.7590000              0.2400790
     59.1943000              0.4847620
     20.0310000              0.3352000
SP   6   1.00
    339.4780000             -0.00278217             0.00456462
     81.0101000             -0.0360499              0.03369360
     25.8780000             -0.1166310              0.13975500
      9.4522100              0.0968328              0.33936200
      3.6656600              0.6144180              0.45092100
      1.4674600              0.4037980              0.23858600
SP   3   1.00
      2.1562300             -0.2529230             -0.01776530
      0.7489970              0.0328517              0.27405800
      0.2831450              1.0812500              0.78542100
SP   1   1.00
      0.0998317              1.0000000              1.00000000
D    1   1.00
      1.1000000              1.0000000
D    1   1.00
      0.2750000              1.0000000
F    1   1.00
      0.4500000              1.0000000
****
S     0
S    6   1.00
  21917.1000000              0.0018690
   3301.4900000              0.0142300
    754.1460000              0.0696960
    212.7110000              0.2384870
     67.9896000              0.4833070
     23.0515000              0.3380740
SP   6   1.00
    423.7350000             -0.0023767              0.0040610
    100.7100000             -0.0316930              0.0306810
     32.1599000             -0.1133170              0.1304520
     11.8079000              0.0560900              0.3272050
      4.6311000              0.5922550              0.4528510
      1.8702500              0.4550060              0.2560420
SP   3   1.00
      2.6158400             -0.2503740             -0.0145110
      0.9221670              0.0669570              0.3102630
      0.3412870              1.0545100              0.7544830
SP   1   1.00
      0.1171670              1.0000000              1.0000000
D    1   1.00
      1.3000000              1.0000000
D    1   1.00
      0.3250000              1.0000000
F    1   1.00
      0.5500000              1.0000000
****
Cl     0
S    6   1.00
  25180.1000000              0.0018330
   3780.3500000              0.0140340
    860.4740000              0.0690970
    242.1450000              0.2374520
     77.3349000              0.4830340
     26.2470000              0.3398560
SP   6   1.00
    491.7650000             -0.0022974              0.0039894
    116.9840000             -0.0307140              0.0303180
     37.4153000             -0.1125280              0.1298800
     13.7834000              0.0450160              0.3279510
      5.4521500              0.5893530              0.4535270
      2.2258800              0.4652060              0.2521540
SP   3   1.00
      3.1864900             -0.2518300             -0.0142990
      1.1442700              0.0615890              0.3235720
      0.4203770              1.0601800              0.7435070
SP   1   1.00
      0.1426570              1.0000000              1.0000000
D    1   1.00
      1.5000000              1.0000000
D    1   1.00
      0.3750000              1.0000000
F    1   1.00
      0.7000000              1.0000000
****
}

set {
reference uhf
freeze_core true
e_convergence 10
d_convergence 10
dft_spherical_points 1202
dft_radial_points 99
}

e = energy('b3lyp')

print_out('Grab this energy {0}'.format(e))
--------------------------------------------------------------------------

    Molecular point group: cs

    Geometry (in Bohr), charge = 0, multiplicity = 2:

       Center              X                  Y                   Z               Mass
    ------------   -----------------  -----------------  -----------------  -----------------
         C           -0.324452889988    -0.003979914290     0.000000000000    12.000000000000
         C            0.061173242012    -1.400486291790    -2.426145098600    12.000000000000
         C            0.061274781012     2.803327327610     0.000000000000    12.000000000000
         C            0.061173242012    -1.400486291790     2.426145098600    12.000000000000
         H            2.088036213712    -1.638816623190    -2.842383067200     1.007825032230
         H           -0.763574461888    -0.388402345790    -4.028689350800     1.007825032230
         H           -0.765184002388    -3.290805237290    -2.351276478300     1.007825032230
         H            2.087543870412     3.284041794610     0.000000000000     1.007825032230
         H           -0.764620668988     3.685678620910     1.675546912100     1.007825032230
         H           -0.764620668988     3.685678620910    -1.675546912100     1.007825032230
         H            2.088036213712    -1.638816623190     2.842383067200     1.007825032230
         H           -0.765184002388    -3.290805237290     2.351276478300     1.007825032230
         H           -0.763574461888    -0.388402345790     4.028689350800     1.007825032230

  Charge       = 0
  Multiplicity = 2
  Basis Set: ANONYMOUSD108FC11
    Blend: 6-31G_2DFP_
  Basis Set: (ANONYMOUSD108FC11 AUX)
    Blend: DEF2-UNIVERSAL-JKFIT

    Orbital Energies [Eh]
    ---------------------

    Alpha Occupied:

       1Ap   -10.180355     2Ap   -10.167101     1App  -10.167060
       3Ap   -10.167023     4Ap    -0.797705     2App   -0.686338
       5Ap    -0.685960     6Ap    -0.530764     7Ap    -0.441300
       8Ap    -0.434668     3App   -0.434248     4App   -0.382869
       9Ap    -0.382638     5App   -0.363470     6App   -0.338495
      10Ap    -0.337454    11Ap    -0.168870

    Alpha Virtual:

      12Ap     0.076036     7App    0.134192    13Ap     0.134218
      14Ap     0.142381     8App    0.142735    15Ap     0.154674
      16Ap     0.178811     9App    0.178821    17Ap     0.203411
      10App    0.214582    18Ap     0.275658    11App    0.276233
      19Ap     0.398878    12App    0.399128    20Ap     0.403419
      21Ap     0.424250    13App    0.424250    22Ap     0.456358
      23Ap     0.495363    14App    0.495462    15App    0.512350
      24Ap     0.513922    25Ap     0.578441    16App    0.578862
      17App    0.591826    26Ap     0.591860    27Ap     0.602805
      28Ap     0.624689    18App    0.631523    29Ap     0.636018
      19App    0.636305    20App    0.663070    30Ap     0.663203
      21App    0.683888    31Ap     0.683985    32Ap     0.734909
      33Ap     0.825399    22App    0.825612    23App    0.853575
      24App    0.914768    34Ap     0.914991    25App    0.943905
      35Ap     0.945415    36Ap     0.961402    26App    0.961739
      37Ap     1.002725    38Ap     1.127368    27App    1.127910
      39Ap     1.142848    40Ap     1.162322    28App    1.163113
      41Ap     1.223410    29App    1.274052    42Ap     1.274975
      43Ap     1.279137    44Ap     1.323985    30App    1.324168
      45Ap     1.356409    46Ap     1.365474    31App    1.365999
      32App    1.392630    47Ap     1.404254    33App    1.404376
      34App    1.416942    48Ap     1.417591    35App    1.427310
      36App    1.490892    49Ap     1.499394    50Ap     1.542767
      37App    1.542768    38App    1.575050    51Ap     1.575092
      52Ap     1.669760    53Ap     1.739356    39App    1.739762
      54Ap     1.768461    55Ap     1.830856    40App    1.831368
      41App    1.971635    42App    2.017632    56Ap     2.018486
      57Ap     2.018804    58Ap     2.051646    43App    2.052692
      59Ap     2.738664    44App    2.739144    60Ap     2.790700
      45App    2.810908    61Ap     2.889225    46App    2.890353
      62Ap     2.894688    63Ap     2.928652    47App    2.929428
      48App    2.958931    49App    2.964187    64Ap     2.964468
      65Ap     3.033522    66Ap     3.071264    50App    3.072268
      51App    3.084707    52App    3.168790    67Ap     3.168856
      68Ap     3.180499    69Ap     3.285418    53App    3.286014
      54App    3.325675    70Ap     3.326421    71Ap     3.375891
      72Ap     3.490134    55App    3.491139    56App    3.513749
      73Ap     3.525163    57App    3.567607    74Ap     3.568096
      58App    3.574335    59App    3.666129    75Ap     3.666741
      76Ap     3.678563    60App    3.694618    77Ap     3.694651
      78Ap     3.774879    61App    3.776400    79Ap     3.790476
      80Ap     3.911671    62App    3.912587    81Ap     4.035554
      82Ap     4.110927    63App    4.111564    83Ap     4.147374
      64App    4.149329    84Ap     4.173315    85Ap     4.201598
      65App    4.202677    86Ap     4.203297    66App    4.210380
      87Ap     4.315113    67App    4.316224    68App    4.357800
      88Ap     4.424906    69App    4.424998    70App    4.442454
      89Ap     4.515860    71App    4.516168    90Ap     4.577141
      72App    4.577178    91Ap     4.617300    92Ap     4.709179
      93Ap     4.773688    73App    4.774774    74App    4.837908
      94Ap     4.962306    75App    5.002819    95Ap     5.003364
      96Ap     5.227690    97Ap     5.246850    76App    5.246899
      98Ap     5.354367    77App    5.355488    78App    5.479083

    Beta Occupied:

       1Ap   -10.167852     1App  -10.167813     2Ap   -10.167794
       3Ap   -10.166527     4Ap    -0.781026     2App   -0.684131
       5Ap    -0.683776     6Ap    -0.511739     7Ap    -0.431053
       3App   -0.430630     8Ap    -0.421982     4App   -0.376924
       9Ap    -0.376774     5App   -0.362460     6App   -0.333624
      10Ap    -0.332564

    Beta Virtual:

      11Ap    -0.025576    12Ap     0.077049    13Ap     0.135076
       7App    0.135083    14Ap     0.144252     8App    0.144584
      15Ap     0.163084    16Ap     0.182477     9App    0.182512
      10App    0.214809    17Ap     0.218833    18Ap     0.282052
      11App    0.282557    19Ap     0.400045    12App    0.400289
      20Ap     0.419844    21Ap     0.427055    13App    0.427077
      22Ap     0.468187    23Ap     0.497607    14App    0.497710
      15App    0.514080    24Ap     0.556349    25Ap     0.583953
      16App    0.584414    17App    0.598041    26Ap     0.598050
      27Ap     0.610209    28Ap     0.628061    18App    0.631674
      29Ap     0.639299    19App    0.639613    20App    0.666616
      30Ap     0.666737    21App    0.686541    31Ap     0.686641
      32Ap     0.757468    33Ap     0.830556    22App    0.830761
      23App    0.854925    24App    0.922667    34Ap     0.922943
      25App    0.945742    35Ap     0.954261    36Ap     0.966729
      26App    0.967079    37Ap     1.007936    38Ap     1.131436
      27App    1.131912    39Ap     1.156431    40Ap     1.167407
      28App    1.168186    41Ap     1.232277    29App    1.279684
      42Ap     1.280502    43Ap     1.284822    44Ap     1.328947
      30App    1.329107    45Ap     1.365883    46Ap     1.370775
      31App    1.371201    32App    1.393673    47Ap     1.407652
      33App    1.407876    34App    1.422051    48Ap     1.422686
      35App    1.427579    36App    1.491952    49Ap     1.509861
      50Ap     1.547174    37App    1.547187    51Ap     1.582927
      38App    1.582937    52Ap     1.674605    53Ap     1.745112
      39App    1.745526    54Ap     1.779227    55Ap     1.834700
      40App    1.835240    41App    1.972487    42App    2.024018
      56Ap     2.025132    57Ap     2.039871    58Ap     2.058393
      43App    2.059409    59Ap     2.746958    44App    2.747499
      45App    2.811315    60Ap     2.815832    61Ap     2.902067
      46App    2.903019    62Ap     2.924409    63Ap     2.931065
      47App    2.931949    48App    2.959991    49App    2.968694
      64Ap     2.968973    65Ap     3.041465    66Ap     3.081263
      50App    3.082113    51App    3.086521    67Ap     3.184401
      52App    3.184643    68Ap     3.188283    69Ap     3.290281
      53App    3.290795    54App    3.329502    70Ap     3.330252
      71Ap     3.383737    72Ap     3.492788    55App    3.493805
      56App    3.512111    73Ap     3.528246    57App    3.574200
      58App    3.581057    74Ap     3.581453    59App    3.671048
      75Ap     3.671499    76Ap     3.691915    60App    3.725962
      77Ap     3.726252    78Ap     3.779367    61App    3.780854
      79Ap     3.818971    80Ap     3.921542    62App    3.922450
      81Ap     4.046387    82Ap     4.117698    63App    4.118248
      83Ap     4.154688    64App    4.156587    84Ap     4.187410
      85Ap     4.207716    65App    4.208629    86Ap     4.211089
      66App    4.214826    87Ap     4.322476    67App    4.323711
      68App    4.361141    88Ap     4.433122    69App    4.433193
      70App    4.445367    89Ap     4.523615    71App    4.524020
      90Ap     4.587695    72App    4.587762    91Ap     4.624592
      92Ap     4.719419    93Ap     4.780620    73App    4.781777
      74App    4.840821    94Ap     4.967102    75App    5.006857
      95Ap     5.007376    96Ap     5.233421    97Ap     5.248635
      76App    5.248674    98Ap     5.360820    77App    5.361993
      78App    5.481399

    Final Occupation by Irrep:
             Ap   App
    DOCC [    10,    6 ]
    SOCC [     1,    0 ]

  @DF-UKS Final Energy:  -157.81305443231591

   => Energetics <=

    Nuclear Repulsion Energy =            125.3830958754806062
    One-Electron Energy =                -458.7263806027225428
    Two-Electron Energy =                 195.8370308750237712
    DFT Exchange-Correlation Energy =     -20.3068005800977254
    Empirical Dispersion Energy =           0.0000000000000000
    VV10 Nonlocal Energy =                  0.0000000000000000
    Total Energy =                       -157.8130544323159086

  UHF NO Occupations:
  HONO-2 :    9 Ap 1.9996022
  HONO-1 :   10 Ap 1.9989785
  HONO-0 :   11 Ap 1.0000000
  LUNO+0 :   12 Ap 0.0010215
  LUNO+1 :   13 Ap 0.0003978
  LUNO+2 :   14 Ap 0.0001989
  LUNO+3 :    7App 0.0001968

Computation Completed

Properties will be evaluated at   0.000000,   0.000000,   0.000000 [a0]

Properties computed using the SCF density matrix

  Nuclear Dipole Moment: [e a0]
     X:     0.8319      Y:     0.0096      Z:     0.0000

  Electronic Dipole Moment: [e a0]
     X:    -0.7535      Y:    -0.0108      Z:     0.0000

  Dipole Moment: [e a0]
     X:     0.0783      Y:    -0.0012      Z:     0.0000     Total:     0.0783

  Dipole Moment: [D]
     X:     0.1991      Y:    -0.0031      Z:     0.0000     Total:     0.1991

*** tstop() called on n079 at Fri Nov  5 13:48:54 2021
Module time:
	user time   =     498.73 seconds =       8.31 minutes
	system time =       4.63 seconds =       0.08 minutes
	total time  =        127 seconds =       2.12 minutes
Total time:
	user time   =     498.73 seconds =       8.31 minutes
	system time =       4.63 seconds =       0.08 minutes
	total time  =        127 seconds =       2.12 minutes
Grab this energy -157.8130544323159
    Psi4 stopped on: Friday, 05 November 2021 01:48PM
    Psi4 wall time for execution: 0:02:06.58

*** Psi4 exiting successfully. Buy a developer a beer!
