                               Psi4 1.4a2.dev629

  ==> Input File <==

--------------------------------------------------------------------------
import os
memory 14 GB

molecule {
 C   -0.3233310804   -0.0050077650   -0.0004323383
 C    0.0611054349   -1.3975346121   -2.4327570990
 C    0.0616280219    2.7938396000   -0.0013881462
 C    0.0605725433   -1.3988302459    2.4322262530
 H    2.0857536010   -1.6365124277   -2.8570915615
 H   -0.7664233200   -0.3798186098   -4.0266299244
 H   -0.7650093736   -3.2921431524   -2.3614279779
 H    2.0875793360    3.2789415507   -0.0034958135
 H   -0.7677933651    3.6732247132    1.6786957770
 H   -0.7613850480    3.6714138421   -1.6739125439
 H    2.0873384683   -1.6395356338    2.8553383168
 H   -0.7624123305   -3.2883629564    2.3628418785
 H   -0.7702307645   -0.3796986164    4.0280331794
units bohr
0 2
}

basis {

assign 6-31g_2dfp_

[ 6-31g_2dfp_ ]

spherical

!----------------------------------------------------------------------
! Basis Set Exchange
! Version v0.8.13
! https://www.basissetexchange.org
!----------------------------------------------------------------------
!   Basis set: 6-31G(2df,p)
! Description: 6-31G(2df,p)
!        Role: orbital
!     Version: 0  (Data from the original Basis Set Exchange)
!----------------------------------------------------------------------

****
H     0
S    3   1.00
     18.7311370              0.03349460
      2.8253937              0.23472695
      0.6401217              0.81375733
S    1   1.00
      0.1612778              1.00000000
P    1   1.00
      1.5000000              1.0000000
P    1   1.00
      0.3750000              1.0000000
****
B     0
S    6   1.00
   2068.8823000              0.0018663
    310.6495700              0.0142515
     70.6830330              0.0695516
     19.8610800              0.2325729
      6.2993048              0.4670787
      2.1270270              0.3634314
SP   3   1.00
      4.7279710             -0.1303938              0.0745976
      1.1903377             -0.1307889              0.3078467
      0.3594117              1.1309444              0.7434568
SP   1   1.00
      0.1267512              1.0000000              1.0000000
D    1   1.00
      0.8020000              1.0000000
D    1   1.00
      0.2005000              1.0000000
F    1   1.00
      0.5000000              1.0000000
****
C     0
S    6   1.00
   3047.5249000              0.0018347
    457.3695100              0.0140373
    103.9486900              0.0688426
     29.2101550              0.2321844
      9.2866630              0.4679413
      3.1639270              0.3623120
SP   3   1.00
      7.8682724             -0.1193324              0.0689991
      1.8812885             -0.1608542              0.3164240
      0.5442493              1.1434564              0.7443083
SP   1   1.00
      0.1687144              1.0000000              1.0000000
D    1   1.00
      1.2520000              1.0000000
D    1   1.00
      0.3130000              1.0000000
F    1   1.00
      0.8000000              1.0000000
****
N     0
S    6   1.00
   4173.5110000              0.0018348
    627.4579000              0.0139950
    142.9021000              0.0685870
     40.2343300              0.2322410
     12.8202100              0.4690700
      4.3904370              0.3604550
SP   3   1.00
     11.6263580             -0.1149610              0.0675800
      2.7162800             -0.1691180              0.3239070
      0.7722180              1.1458520              0.7408950
SP   1   1.00
      0.2120313              1.0000000              1.0000000
D    1   1.00
      1.8260000              1.0000000
D    1   1.00
      0.4565000              1.0000000
F    1   1.00
      1.0000000              1.0000000
****
O     0
S    6   1.00
   5484.6717000              0.0018311
    825.2349500              0.0139501
    188.0469600              0.0684451
     52.9645000              0.2327143
     16.8975700              0.4701930
      5.7996353              0.3585209
SP   3   1.00
     15.5396160             -0.1107775              0.0708743
      3.5999336             -0.1480263              0.3397528
      1.0137618              1.1307670              0.7271586
SP   1   1.00
      0.2700058              1.0000000              1.0000000
D    1   1.00
      2.5840000              1.0000000
D    1   1.00
      0.6460000              1.0000000
F    1   1.00
      1.4000000              1.0000000
****
F     0
S    6   1.00
   7001.7130900              0.0018196169
   1051.3660900              0.0139160796
    239.2856900              0.0684053245
     67.3974453              0.233185760
     21.5199573              0.471267439
      7.40310130             0.356618546
SP   3   1.00
     20.8479528             -0.108506975            0.0716287243
      4.80830834            -0.146451658            0.3459121030
      1.34406986             1.128688580            0.7224699570
SP   1   1.00
      0.358151393            1.0000000              1.0000000
D    1   1.00
      3.5000000              1.0000000
D    1   1.00
      0.8750000              1.0000000
F    1   1.00
      1.8500000              1.0000000
****
Al     0
S    6   1.00
  13983.1000000              0.00194267
   2098.7500000              0.0148599
    477.7050000              0.0728494
    134.3600000              0.2468300
     42.8709000              0.4872580
     14.5189000              0.3234960
SP   6   1.00
    239.6680000             -0.00292619             0.00460285
     57.4419000             -0.0374080              0.0331990
     18.2859000             -0.1144870              0.1362820
      6.5991400              0.1156350              0.3304760
      2.4904900              0.6125950              0.4491460
      0.9445400              0.3937990              0.2657040
SP   3   1.00
      1.2779000             -0.2276060             -0.0175130
      0.3975900              0.00144583             0.2445330
      0.1600950              1.0927900              0.8049340
SP   1   1.00
      0.0556577              1.0000000              1.0000000
D    1   1.00
      0.6500000              1.0000000
D    1   1.00
      0.1625000              1.0000000
F    1   1.00
      0.2500000              1.0000000
****
Si     0
S    6   1.00
  16115.9000000              0.00195948
   2425.5800000              0.01492880
    553.8670000              0.07284780
    156.3400000              0.24613000
     50.0683000              0.48591400
     17.0178000              0.32500200
SP   6   1.00
    292.7180000             -0.00278094             0.00443826
     69.8731000             -0.03571460             0.03266790
     22.3363000             -0.11498500             0.13472100
      8.1503900              0.09356340             0.32867800
      3.1345800              0.60301700             0.44964000
      1.2254300              0.41895900             0.26137200
SP   3   1.00
      1.7273800             -0.24463000            -0.01779510
      0.5729220              0.00431572             0.25353900
      0.2221920              1.09818000             0.80066900
SP   1   1.00
      0.0778369              1.00000000             1.00000000
D    1   1.00
      0.9000000              1.0000000
D    1   1.00
      0.2250000              1.0000000
F    1   1.00
      0.3200000              1.0000000
****
P     0
S    6   1.00
  19413.3000000              0.0018516
   2909.4200000              0.0142062
    661.3640000              0.0699995
    185.7590000              0.2400790
     59.1943000              0.4847620
     20.0310000              0.3352000
SP   6   1.00
    339.4780000             -0.00278217             0.00456462
     81.0101000             -0.0360499              0.03369360
     25.8780000             -0.1166310              0.13975500
      9.4522100              0.0968328              0.33936200
      3.6656600              0.6144180              0.45092100
      1.4674600              0.4037980              0.23858600
SP   3   1.00
      2.1562300             -0.2529230             -0.01776530
      0.7489970              0.0328517              0.27405800
      0.2831450              1.0812500              0.78542100
SP   1   1.00
      0.0998317              1.0000000              1.00000000
D    1   1.00
      1.1000000              1.0000000
D    1   1.00
      0.2750000              1.0000000
F    1   1.00
      0.4500000              1.0000000
****
S     0
S    6   1.00
  21917.1000000              0.0018690
   3301.4900000              0.0142300
    754.1460000              0.0696960
    212.7110000              0.2384870
     67.9896000              0.4833070
     23.0515000              0.3380740
SP   6   1.00
    423.7350000             -0.0023767              0.0040610
    100.7100000             -0.0316930              0.0306810
     32.1599000             -0.1133170              0.1304520
     11.8079000              0.0560900              0.3272050
      4.6311000              0.5922550              0.4528510
      1.8702500              0.4550060              0.2560420
SP   3   1.00
      2.6158400             -0.2503740             -0.0145110
      0.9221670              0.0669570              0.3102630
      0.3412870              1.0545100              0.7544830
SP   1   1.00
      0.1171670              1.0000000              1.0000000
D    1   1.00
      1.3000000              1.0000000
D    1   1.00
      0.3250000              1.0000000
F    1   1.00
      0.5500000              1.0000000
****
Cl     0
S    6   1.00
  25180.1000000              0.0018330
   3780.3500000              0.0140340
    860.4740000              0.0690970
    242.1450000              0.2374520
     77.3349000              0.4830340
     26.2470000              0.3398560
SP   6   1.00
    491.7650000             -0.0022974              0.0039894
    116.9840000             -0.0307140              0.0303180
     37.4153000             -0.1125280              0.1298800
     13.7834000              0.0450160              0.3279510
      5.4521500              0.5893530              0.4535270
      2.2258800              0.4652060              0.2521540
SP   3   1.00
      3.1864900             -0.2518300             -0.0142990
      1.1442700              0.0615890              0.3235720
      0.4203770              1.0601800              0.7435070
SP   1   1.00
      0.1426570              1.0000000              1.0000000
D    1   1.00
      1.5000000              1.0000000
D    1   1.00
      0.3750000              1.0000000
F    1   1.00
      0.7000000              1.0000000
****
}

set {
reference uhf
freeze_core true
e_convergence 10
d_convergence 10
dft_spherical_points 1202
dft_radial_points 99
}

e = energy('b3lyp')

print_out('Grab this energy {0}'.format(e))
--------------------------------------------------------------------------

    Molecular point group: c1

    Geometry (in Bohr), charge = 0, multiplicity = 2:

       Center              X                  Y                   Z               Mass
    ------------   -----------------  -----------------  -----------------  -----------------
         C           -0.323333951123    -0.003556421153     0.000020544890    12.000000000000
         C            0.061102564177    -1.396083268253    -2.432304215810    12.000000000000
         C            0.061625151177     2.795290943847    -0.000935263010    12.000000000000
         C            0.060569672577    -1.397378902053     2.432679136190    12.000000000000
         H            2.085750730277    -1.635061083853    -2.856638678310     1.007825032230
         H           -0.766426190723    -0.378367265953    -4.026177041210     1.007825032230
         H           -0.765012244323    -3.290691808553    -2.360975094710     1.007825032230
         H            2.087576465277     3.280392894547    -0.003042930310     1.007825032230
         H           -0.767796235823     3.674676057047     1.679148660190     1.007825032230
         H           -0.761387918723     3.672865185947    -1.673459660710     1.007825032230
         H            2.087335597577    -1.638084289953     2.855791199990     1.007825032230
         H           -0.762415201223    -3.286911612553     2.363294761690     1.007825032230
         H           -0.770233635223    -0.378247272553     4.028486062590     1.007825032230

  Charge       = 0
  Multiplicity = 2
  Basis Set: ANONYMOUS835B3813
    Blend: 6-31G_2DFP_
  Basis Set: (ANONYMOUS835B3813 AUX)
    Blend: DEF2-UNIVERSAL-JKFIT

    Orbital Energies [Eh]
    ---------------------

    Alpha Occupied:

       1A    -10.180342     2A    -10.167187     3A    -10.167156
       4A    -10.166702     5A     -0.797770     6A     -0.686414
       7A     -0.685960     8A     -0.530779     9A     -0.441128
      10A     -0.434993    11A     -0.434346    12A     -0.382744
      13A     -0.382454    14A     -0.363611    15A     -0.338314
      16A     -0.337679    17A     -0.168961

    Alpha Virtual:

      18A      0.076070    19A      0.133890    20A      0.134417
      21A      0.142380    22A      0.142874    23A      0.154883
      24A      0.178538    25A      0.179019    26A      0.203544
      27A      0.214808    28A      0.275783    29A      0.276190
      30A      0.398939    31A      0.399447    32A      0.403419
      33A      0.423892    34A      0.424312    35A      0.456595
      36A      0.494983    37A      0.495788    38A      0.512172
      39A      0.513987    40A      0.578556    41A      0.579051
      42A      0.591495    43A      0.591778    44A      0.602574
      45A      0.624723    46A      0.631763    47A      0.635889
      48A      0.636661    49A      0.663110    50A      0.663718
      51A      0.683548    52A      0.684178    53A      0.734993
      54A      0.824540    55A      0.826261    56A      0.853914
      57A      0.914707    58A      0.915347    59A      0.944053
      60A      0.944509    61A      0.961135    62A      0.961658
      63A      1.003471    64A      1.126940    65A      1.129304
      66A      1.142216    67A      1.162782    68A      1.163750
      69A      1.223331    70A      1.273918    71A      1.275070
      72A      1.279356    73A      1.324126    74A      1.324571
      75A      1.355988    76A      1.365219    77A      1.366834
      78A      1.392420    79A      1.403300    80A      1.404873
      81A      1.416246    82A      1.417996    83A      1.427920
      84A      1.491438    85A      1.499057    86A      1.542504
      87A      1.543182    88A      1.572650    89A      1.576355
      90A      1.669827    91A      1.738153    92A      1.740636
      93A      1.768357    94A      1.830473    95A      1.832315
      96A      1.971751    97A      2.016968    98A      2.018804
      99A      2.020577   100A      2.050110   101A      2.055288
     102A      2.738161   103A      2.738807   104A      2.790921
     105A      2.811439   106A      2.889761   107A      2.890134
     108A      2.894943   109A      2.929322   110A      2.929668
     111A      2.958958   112A      2.963517   113A      2.965303
     114A      3.034012   115A      3.070144   116A      3.072328
     117A      3.084476   118A      3.167942   119A      3.169661
     120A      3.180562   121A      3.284578   122A      3.286028
     123A      3.326144   124A      3.328192   125A      3.375673
     126A      3.489549   127A      3.490703   128A      3.514037
     129A      3.525306   130A      3.567022   131A      3.569652
     132A      3.575316   133A      3.665896   134A      3.666914
     135A      3.679646   136A      3.693602   137A      3.694635
     138A      3.775858   139A      3.777644   140A      3.789291
     141A      3.910697   142A      3.913758   143A      4.034463
     144A      4.109890   145A      4.112804   146A      4.146349
     147A      4.149786   148A      4.173316   149A      4.201159
     150A      4.202655   151A      4.204876   152A      4.211078
     153A      4.315304   154A      4.316605   155A      4.358999
     156A      4.423865   157A      4.424929   158A      4.443564
     159A      4.515522   160A      4.518185   161A      4.577187
     162A      4.579341   163A      4.617550   164A      4.709422
     165A      4.772954   166A      4.776276   167A      4.836948
     168A      4.962862   169A      5.001896   170A      5.004041
     171A      5.227577   172A      5.246604   173A      5.247440
     174A      5.354076   175A      5.356958   176A      5.479395

    Beta Occupied:

       1A    -10.167940     2A    -10.167918     3A    -10.167467
       4A    -10.166518     5A     -0.781095     6A     -0.684221
       7A     -0.683758     8A     -0.511750     9A     -0.431373
      10A     -0.430713    11A     -0.421822    12A     -0.376838
      13A     -0.376530    14A     -0.362595    15A     -0.333439
      16A     -0.332801

    Beta Virtual:

      17A     -0.025743    18A      0.077079    19A      0.134759
      20A      0.135328    21A      0.144230    22A      0.144765
      23A      0.163341    24A      0.182201    25A      0.182699
      26A      0.215038    27A      0.218927    28A      0.282122
      29A      0.282547    30A      0.400123    31A      0.400664
      32A      0.419799    33A      0.426692    34A      0.427134
      35A      0.468506    36A      0.497238    37A      0.498057
      38A      0.513908    39A      0.556328    40A      0.584136
      41A      0.584575    42A      0.597649    43A      0.597978
      44A      0.609994    45A      0.628107    46A      0.631922
      47A      0.639183    48A      0.639935    49A      0.666663
      50A      0.667290    51A      0.686155    52A      0.686842
      53A      0.757516    54A      0.829701    55A      0.831436
      56A      0.855268    57A      0.922680    58A      0.923314
      59A      0.945913    60A      0.953420    61A      0.966410
      62A      0.966996    63A      1.008709    64A      1.130976
      65A      1.133328    66A      1.155587    67A      1.167823
      68A      1.168860    69A      1.232300    70A      1.279502
      71A      1.280680    72A      1.285110    73A      1.329111
      74A      1.329565    75A      1.365404    76A      1.370378
      77A      1.372154    78A      1.393484    79A      1.406799
      80A      1.408311    81A      1.421332    82A      1.423002
      83A      1.428193    84A      1.492491    85A      1.509500
      86A      1.546812    87A      1.547689    88A      1.580660
      89A      1.584086    90A      1.674673    91A      1.743911
      92A      1.746407    93A      1.779132    94A      1.834315
      95A      1.836183    96A      1.972614    97A      2.023830
      98A      2.027024    99A      2.039647   100A      2.056921
     101A      2.061927   102A      2.746452   103A      2.747188
     104A      2.811852   105A      2.816056   106A      2.902429
     107A      2.902843   108A      2.924648   109A      2.931895
     110A      2.932061   111A      2.960037   112A      2.968086
     113A      2.969805   114A      3.041947   115A      3.079901
     116A      3.082099   117A      3.086595   118A      3.183783
     119A      3.185294   120A      3.188255   121A      3.289445
     122A      3.290765   123A      3.329928   124A      3.332018
     125A      3.383490   126A      3.492283   127A      3.493421
     128A      3.512413   129A      3.528360   130A      3.574703
     131A      3.580784   132A      3.583038   133A      3.670760
     134A      3.671538   135A      3.692954   136A      3.725325
     137A      3.726159   138A      3.780435   139A      3.782196
     140A      3.817759   141A      3.920488   142A      3.923600
     143A      4.045351   144A      4.116624   145A      4.119705
     146A      4.153575   147A      4.156993   148A      4.187354
     149A      4.207074   150A      4.210485   151A      4.210945
     152A      4.215588   153A      4.322788   154A      4.324006
     155A      4.362362   156A      4.432092   157A      4.433081
     158A      4.446501   159A      4.523359   160A      4.525920
     161A      4.587709   162A      4.590023   163A      4.624743
     164A      4.719766   165A      4.779892   166A      4.783243
     167A      4.839867   168A      4.967655   169A      5.005936
     170A      5.008080   171A      5.233188   172A      5.248390
     173A      5.249331   174A      5.360555   175A      5.363434
     176A      5.481718

    Final Occupation by Irrep:
              A
    DOCC [    16 ]
    SOCC [     1 ]

  @DF-UKS Final Energy:  -157.81305222355806

   => Energetics <=

    Nuclear Repulsion Energy =            125.3948871202135109
    One-Electron Energy =                -458.7493902366512657
    Two-Electron Energy =                 195.8486001857112342
    DFT Exchange-Correlation Energy =     -20.3071492928315571
    Empirical Dispersion Energy =           0.0000000000000000
    VV10 Nonlocal Energy =                  0.0000000000000000
    Total Energy =                       -157.8130522235580599

  UHF NO Occupations:
  HONO-2 :   15  A 1.9996009
  HONO-1 :   16  A 1.9989804
  HONO-0 :   17  A 1.0000000
  LUNO+0 :   18  A 0.0010196
  LUNO+1 :   19  A 0.0003991
  LUNO+2 :   20  A 0.0001979
  LUNO+3 :   21  A 0.0001972

Computation Completed

Properties will be evaluated at   0.000000,   0.000000,   0.000000 [a0]

Properties computed using the SCF density matrix

  Nuclear Dipole Moment: [e a0]
     X:     0.8272      Y:     0.0102      Z:     0.0032

  Electronic Dipole Moment: [e a0]
     X:    -0.7493      Y:    -0.0109      Z:    -0.0049

  Dipole Moment: [e a0]
     X:     0.0779      Y:    -0.0007      Z:    -0.0017     Total:     0.0779

  Dipole Moment: [D]
     X:     0.1980      Y:    -0.0019      Z:    -0.0044     Total:     0.1981

*** tstop() called on n079 at Fri Nov  5 14:38:37 2021
Module time:
	user time   =     493.83 seconds =       8.23 minutes
	system time =       4.59 seconds =       0.08 minutes
	total time  =        125 seconds =       2.08 minutes
Total time:
	user time   =     493.83 seconds =       8.23 minutes
	system time =       4.59 seconds =       0.08 minutes
	total time  =        125 seconds =       2.08 minutes
Grab this energy -157.81305222355806
    Psi4 stopped on: Friday, 05 November 2021 02:38PM
    Psi4 wall time for execution: 0:02:05.33

*** Psi4 exiting successfully. Buy a developer a beer!
