                               Psi4 1.4a2.dev629

  ==> Input File <==

--------------------------------------------------------------------------
import os
memory 14 GB

molecule {
 C   -0.3201646583    0.0049930693    0.0000000000
 C    0.0627666770   -1.4034792817   -2.4200858183
 C    0.0617479042    2.8094884220   -0.0000000000
 C    0.0627666770   -1.4034792817    2.4200858183
 H    2.0869909668   -1.6500161957   -2.8384084152
 H   -0.7635275886   -0.3971797713   -4.0235860854
 H   -0.7684479943   -3.2934869553   -2.3362133387
 H    2.0856940216    3.2969901031   -0.0000000000
 H   -0.7677246330    3.6884142500    1.6762928422
 H   -0.7677246330    3.6884142500   -1.6762928422
 H    2.0869909668   -1.6500161957    2.8384084152
 H   -0.7684479943   -3.2934869553    2.3362133387
 H   -0.7635275886   -0.3971797713    4.0235860854
units bohr
0 2
}

basis {

assign 6-31g_2dfp_

[ 6-31g_2dfp_ ]

spherical

!----------------------------------------------------------------------
! Basis Set Exchange
! Version v0.8.13
! https://www.basissetexchange.org
!----------------------------------------------------------------------
!   Basis set: 6-31G(2df,p)
! Description: 6-31G(2df,p)
!        Role: orbital
!     Version: 0  (Data from the original Basis Set Exchange)
!----------------------------------------------------------------------

****
H     0
S    3   1.00
     18.7311370              0.03349460
      2.8253937              0.23472695
      0.6401217              0.81375733
S    1   1.00
      0.1612778              1.00000000
P    1   1.00
      1.5000000              1.0000000
P    1   1.00
      0.3750000              1.0000000
****
B     0
S    6   1.00
   2068.8823000              0.0018663
    310.6495700              0.0142515
     70.6830330              0.0695516
     19.8610800              0.2325729
      6.2993048              0.4670787
      2.1270270              0.3634314
SP   3   1.00
      4.7279710             -0.1303938              0.0745976
      1.1903377             -0.1307889              0.3078467
      0.3594117              1.1309444              0.7434568
SP   1   1.00
      0.1267512              1.0000000              1.0000000
D    1   1.00
      0.8020000              1.0000000
D    1   1.00
      0.2005000              1.0000000
F    1   1.00
      0.5000000              1.0000000
****
C     0
S    6   1.00
   3047.5249000              0.0018347
    457.3695100              0.0140373
    103.9486900              0.0688426
     29.2101550              0.2321844
      9.2866630              0.4679413
      3.1639270              0.3623120
SP   3   1.00
      7.8682724             -0.1193324              0.0689991
      1.8812885             -0.1608542              0.3164240
      0.5442493              1.1434564              0.7443083
SP   1   1.00
      0.1687144              1.0000000              1.0000000
D    1   1.00
      1.2520000              1.0000000
D    1   1.00
      0.3130000              1.0000000
F    1   1.00
      0.8000000              1.0000000
****
N     0
S    6   1.00
   4173.5110000              0.0018348
    627.4579000              0.0139950
    142.9021000              0.0685870
     40.2343300              0.2322410
     12.8202100              0.4690700
      4.3904370              0.3604550
SP   3   1.00
     11.6263580             -0.1149610              0.0675800
      2.7162800             -0.1691180              0.3239070
      0.7722180              1.1458520              0.7408950
SP   1   1.00
      0.2120313              1.0000000              1.0000000
D    1   1.00
      1.8260000              1.0000000
D    1   1.00
      0.4565000              1.0000000
F    1   1.00
      1.0000000              1.0000000
****
O     0
S    6   1.00
   5484.6717000              0.0018311
    825.2349500              0.0139501
    188.0469600              0.0684451
     52.9645000              0.2327143
     16.8975700              0.4701930
      5.7996353              0.3585209
SP   3   1.00
     15.5396160             -0.1107775              0.0708743
      3.5999336             -0.1480263              0.3397528
      1.0137618              1.1307670              0.7271586
SP   1   1.00
      0.2700058              1.0000000              1.0000000
D    1   1.00
      2.5840000              1.0000000
D    1   1.00
      0.6460000              1.0000000
F    1   1.00
      1.4000000              1.0000000
****
F     0
S    6   1.00
   7001.7130900              0.0018196169
   1051.3660900              0.0139160796
    239.2856900              0.0684053245
     67.3974453              0.233185760
     21.5199573              0.471267439
      7.40310130             0.356618546
SP   3   1.00
     20.8479528             -0.108506975            0.0716287243
      4.80830834            -0.146451658            0.3459121030
      1.34406986             1.128688580            0.7224699570
SP   1   1.00
      0.358151393            1.0000000              1.0000000
D    1   1.00
      3.5000000              1.0000000
D    1   1.00
      0.8750000              1.0000000
F    1   1.00
      1.8500000              1.0000000
****
Al     0
S    6   1.00
  13983.1000000              0.00194267
   2098.7500000              0.0148599
    477.7050000              0.0728494
    134.3600000              0.2468300
     42.8709000              0.4872580
     14.5189000              0.3234960
SP   6   1.00
    239.6680000             -0.00292619             0.00460285
     57.4419000             -0.0374080              0.0331990
     18.2859000             -0.1144870              0.1362820
      6.5991400              0.1156350              0.3304760
      2.4904900              0.6125950              0.4491460
      0.9445400              0.3937990              0.2657040
SP   3   1.00
      1.2779000             -0.2276060             -0.0175130
      0.3975900              0.00144583             0.2445330
      0.1600950              1.0927900              0.8049340
SP   1   1.00
      0.0556577              1.0000000              1.0000000
D    1   1.00
      0.6500000              1.0000000
D    1   1.00
      0.1625000              1.0000000
F    1   1.00
      0.2500000              1.0000000
****
Si     0
S    6   1.00
  16115.9000000              0.00195948
   2425.5800000              0.01492880
    553.8670000              0.07284780
    156.3400000              0.24613000
     50.0683000              0.48591400
     17.0178000              0.32500200
SP   6   1.00
    292.7180000             -0.00278094             0.00443826
     69.8731000             -0.03571460             0.03266790
     22.3363000             -0.11498500             0.13472100
      8.1503900              0.09356340             0.32867800
      3.1345800              0.60301700             0.44964000
      1.2254300              0.41895900             0.26137200
SP   3   1.00
      1.7273800             -0.24463000            -0.01779510
      0.5729220              0.00431572             0.25353900
      0.2221920              1.09818000             0.80066900
SP   1   1.00
      0.0778369              1.00000000             1.00000000
D    1   1.00
      0.9000000              1.0000000
D    1   1.00
      0.2250000              1.0000000
F    1   1.00
      0.3200000              1.0000000
****
P     0
S    6   1.00
  19413.3000000              0.0018516
   2909.4200000              0.0142062
    661.3640000              0.0699995
    185.7590000              0.2400790
     59.1943000              0.4847620
     20.0310000              0.3352000
SP   6   1.00
    339.4780000             -0.00278217             0.00456462
     81.0101000             -0.0360499              0.03369360
     25.8780000             -0.1166310              0.13975500
      9.4522100              0.0968328              0.33936200
      3.6656600              0.6144180              0.45092100
      1.4674600              0.4037980              0.23858600
SP   3   1.00
      2.1562300             -0.2529230             -0.01776530
      0.7489970              0.0328517              0.27405800
      0.2831450              1.0812500              0.78542100
SP   1   1.00
      0.0998317              1.0000000              1.00000000
D    1   1.00
      1.1000000              1.0000000
D    1   1.00
      0.2750000              1.0000000
F    1   1.00
      0.4500000              1.0000000
****
S     0
S    6   1.00
  21917.1000000              0.0018690
   3301.4900000              0.0142300
    754.1460000              0.0696960
    212.7110000              0.2384870
     67.9896000              0.4833070
     23.0515000              0.3380740
SP   6   1.00
    423.7350000             -0.0023767              0.0040610
    100.7100000             -0.0316930              0.0306810
     32.1599000             -0.1133170              0.1304520
     11.8079000              0.0560900              0.3272050
      4.6311000              0.5922550              0.4528510
      1.8702500              0.4550060              0.2560420
SP   3   1.00
      2.6158400             -0.2503740             -0.0145110
      0.9221670              0.0669570              0.3102630
      0.3412870              1.0545100              0.7544830
SP   1   1.00
      0.1171670              1.0000000              1.0000000
D    1   1.00
      1.3000000              1.0000000
D    1   1.00
      0.3250000              1.0000000
F    1   1.00
      0.5500000              1.0000000
****
Cl     0
S    6   1.00
  25180.1000000              0.0018330
   3780.3500000              0.0140340
    860.4740000              0.0690970
    242.1450000              0.2374520
     77.3349000              0.4830340
     26.2470000              0.3398560
SP   6   1.00
    491.7650000             -0.0022974              0.0039894
    116.9840000             -0.0307140              0.0303180
     37.4153000             -0.1125280              0.1298800
     13.7834000              0.0450160              0.3279510
      5.4521500              0.5893530              0.4535270
      2.2258800              0.4652060              0.2521540
SP   3   1.00
      3.1864900             -0.2518300             -0.0142990
      1.1442700              0.0615890              0.3235720
      0.4203770              1.0601800              0.7435070
SP   1   1.00
      0.1426570              1.0000000              1.0000000
D    1   1.00
      1.5000000              1.0000000
D    1   1.00
      0.3750000              1.0000000
F    1   1.00
      0.7000000              1.0000000
****
}

set {
reference uhf
freeze_core true
e_convergence 10
d_convergence 10
dft_spherical_points 1202
dft_radial_points 99
}

e = energy('b3lyp')

print_out('Grab this energy {0}'.format(e))
--------------------------------------------------------------------------

    Molecular point group: cs

    Geometry (in Bohr), charge = 0, multiplicity = 2:

       Center              X                  Y                   Z               Mass
    ------------   -----------------  -----------------  -----------------  -----------------
         C           -0.321543068068     0.003544528563     0.000000000000    12.000000000000
         C            0.061388267232    -1.404927822437    -2.420085818300    12.000000000000
         C            0.060369494432     2.808039881263     0.000000000000    12.000000000000
         C            0.061388267232    -1.404927822437     2.420085818300    12.000000000000
         H            2.085612557032    -1.651464736437    -2.838408415200     1.007825032230
         H           -0.764905998368    -0.398628312037    -4.023586085400     1.007825032230
         H           -0.769826404068    -3.294935496037    -2.336213338700     1.007825032230
         H            2.084315611832     3.295541562363     0.000000000000     1.007825032230
         H           -0.769103042768     3.686965709263     1.676292842200     1.007825032230
         H           -0.769103042768     3.686965709263    -1.676292842200     1.007825032230
         H            2.085612557032    -1.651464736437     2.838408415200     1.007825032230
         H           -0.769826404068    -3.294935496037     2.336213338700     1.007825032230
         H           -0.764905998368    -0.398628312037     4.023586085400     1.007825032230

  Charge       = 0
  Multiplicity = 2
  Basis Set: ANONYMOUS0E05E47A
    Blend: 6-31G_2DFP_
  Basis Set: (ANONYMOUS0E05E47A AUX)
    Blend: DEF2-UNIVERSAL-JKFIT

    Orbital Energies [Eh]
    ---------------------

    Alpha Occupied:

       1Ap   -10.180229     2Ap   -10.167305     1App  -10.166850
       3Ap   -10.166819     4Ap    -0.797823     5Ap    -0.686420
       2App   -0.685977     6Ap    -0.530755     7Ap    -0.441361
       8Ap    -0.434791     3App   -0.434261     9Ap    -0.382993
       4App   -0.382700     5App   -0.363329    10Ap    -0.338225
       6App   -0.337671    11Ap    -0.168846

    Alpha Virtual:

      12Ap     0.076055    13Ap     0.133905     7App    0.134389
      14Ap     0.142409     8App    0.142684    15Ap     0.154945
      16Ap     0.178659     9App    0.179109    17Ap     0.203590
      10App    0.214675    18Ap     0.275955    11App    0.276293
      19Ap     0.399041    12App    0.399389    20Ap     0.403450
      21Ap     0.423974    13App    0.424242    22Ap     0.456599
      23Ap     0.494931    14App    0.495737    15App    0.512277
      24Ap     0.513983    25Ap     0.578460    16App    0.578969
      26Ap     0.591913    17App    0.591972    27Ap     0.602884
      28Ap     0.624626    18App    0.631628    19App    0.635897
      29Ap     0.636341    30Ap     0.663369    20App    0.663802
      31Ap     0.683582    21App    0.684079    32Ap     0.735122
      33Ap     0.824754    22App    0.826395    23App    0.853867
      34Ap     0.914945    24App    0.915442    25App    0.944151
      35Ap     0.944536    26App    0.961040    36Ap     0.961570
      37Ap     1.002591    38Ap     1.126697    27App    1.129065
      39Ap     1.142584    40Ap     1.162938    28App    1.163910
      41Ap     1.223750    42Ap     1.274263    29App    1.275303
      43Ap     1.279501    30App    1.324152    44Ap     1.324325
      45Ap     1.357026    46Ap     1.364988    31App    1.366367
      32App    1.392366    47Ap     1.403897    33App    1.405510
      48Ap     1.417238    34App    1.418221    35App    1.428113
      36App    1.490971    49Ap     1.499568    50Ap     1.542025
      37App    1.542834    51Ap     1.572551    38App    1.576308
      52Ap     1.669287    53Ap     1.738533    39App    1.740691
      54Ap     1.768556    55Ap     1.830567    40App    1.831590
      41App    1.971166    56Ap     2.017891    57Ap     2.018566
      42App    2.020774    58Ap     2.050490    43App    2.055640
      59Ap     2.738550    44App    2.739082    60Ap     2.791143
      45App    2.811163    46App    2.890032    61Ap     2.890217
      62Ap     2.894909    63Ap     2.929165    47App    2.929524
      48App    2.958827    64Ap     2.963500    49App    2.965341
      65Ap     3.034053    66Ap     3.070920    50App    3.072858
      51App    3.084325    67Ap     3.168026    52App    3.169618
      68Ap     3.180362    53App    3.284248    69Ap     3.285664
      70Ap     3.325286    54App    3.327193    71Ap     3.375960
      72Ap     3.489854    55App    3.490774    56App    3.514493
      73Ap     3.525143    74Ap     3.567723    57App    3.569736
      58App    3.575854    75Ap     3.666276    59App    3.666523
      76Ap     3.678626    60App    3.693952    77Ap     3.694836
      61App    3.776900    78Ap     3.778371    79Ap     3.790615
      80Ap     3.910697    62App    3.913554    81Ap     4.035647
      82Ap     4.109641    63App    4.112380    83Ap     4.146214
      64App    4.149539    84Ap     4.173362    85Ap     4.201708
      86Ap     4.203091    65App    4.204947    66App    4.211082
      67App    4.316144    87Ap     4.316165    68App    4.358883
      88Ap     4.424916    69App    4.425080    70App    4.442685
      89Ap     4.515890    71App    4.517566    90Ap     4.577092
      72App    4.579261    91Ap     4.618364    92Ap     4.709885
      93Ap     4.773554    73App    4.776143    74App    4.837175
      94Ap     4.962792    95Ap     5.002693    75App    5.004636
      96Ap     5.228110    76App    5.246636    97Ap     5.246972
      98Ap     5.354351    77App    5.355767    78App    5.479842

    Beta Occupied:

       1Ap   -10.168062     1App  -10.167605     2Ap   -10.167588
       3Ap   -10.166403     4Ap    -0.781133     5Ap    -0.684222
       2App   -0.683771     6Ap    -0.511721     7Ap    -0.431160
       3App   -0.430612     8Ap    -0.422065     9Ap    -0.377100
       4App   -0.376787     5App   -0.362311    10Ap    -0.333355
       6App   -0.332793

    Beta Virtual:

      11Ap    -0.025595    12Ap     0.077063    13Ap     0.134753
       7App    0.135257    14Ap     0.144295     8App    0.144559
      15Ap     0.163373    16Ap     0.182331     9App    0.182800
      10App    0.214908    17Ap     0.218995    18Ap     0.282280
      11App    0.282641    19Ap     0.400284    12App    0.400532
      20Ap     0.419779    21Ap     0.426774    13App    0.427071
      22Ap     0.468574    23Ap     0.497191    14App    0.498001
      15App    0.514008    24Ap     0.556372    25Ap     0.584049
      16App    0.584500    26Ap     0.598061    17App    0.598147
      27Ap     0.610278    28Ap     0.628040    18App    0.631786
      19App    0.639182    29Ap     0.639661    30Ap     0.666879
      20App    0.667362    31Ap     0.686167    21App    0.686770
      32Ap     0.757638    33Ap     0.829892    22App    0.831552
      23App    0.855218    34Ap     0.922897    24App    0.923423
      25App    0.946012    35Ap     0.953486    26App    0.966289
      36Ap     0.966964    37Ap     1.007779    38Ap     1.130839
      27App    1.133192    39Ap     1.155946    40Ap     1.167924
      28App    1.168952    41Ap     1.232727    42Ap     1.279841
      29App    1.280886    43Ap     1.285262    30App    1.329069
      44Ap     1.329272    45Ap     1.366459    46Ap     1.370126
      31App    1.371698    32App    1.393416    47Ap     1.407414
      33App    1.408971    48Ap     1.422300    34App    1.423277
      35App    1.428404    36App    1.492019    49Ap     1.510031
      50Ap     1.546221    37App    1.547245    51Ap     1.580676
      38App    1.584125    52Ap     1.674148    53Ap     1.744292
      39App    1.746440    54Ap     1.779329    55Ap     1.834411
      40App    1.835469    41App    1.972030    56Ap     2.024285
      42App    2.027274    57Ap     2.039888    58Ap     2.057282
      43App    2.062239    59Ap     2.746838    44App    2.747460
      45App    2.811575    60Ap     2.816330    46App    2.902741
      61Ap     2.902857    62Ap     2.924699    63Ap     2.931768
      47App    2.931940    48App    2.959893    64Ap     2.968060
      49App    2.969835    65Ap     3.041949    66Ap     3.080696
      50App    3.082656    51App    3.086341    67Ap     3.183961
      52App    3.185322    68Ap     3.187981    53App    3.289157
      69Ap     3.290446    70Ap     3.329066    54App    3.330990
      71Ap     3.383814    72Ap     3.492585    55App    3.493480
      56App    3.512866    73Ap     3.528234    57App    3.575268
      74Ap     3.580987    58App    3.583458    75Ap     3.671067
      59App    3.671364    76Ap     3.691942    60App    3.725600
      77Ap     3.726390    61App    3.781369    78Ap     3.782960
      79Ap     3.819052    80Ap     3.920511    62App    3.923369
      81Ap     4.046523    82Ap     4.116485    63App    4.119210
      83Ap     4.153464    64App    4.156677    84Ap     4.187394
      85Ap     4.207644    65App    4.210867    86Ap     4.211054
      66App    4.215567    67App    4.323578    87Ap     4.323637
      68App    4.362231    88Ap     4.433098    69App    4.433156
      70App    4.445655    89Ap     4.523776    71App    4.525250
      90Ap     4.587638    72App    4.589966    91Ap     4.625632
      92Ap     4.720140    93Ap     4.780495    73App    4.783153
      74App    4.840097    94Ap     4.967569    95Ap     5.006722
      75App    5.008662    96Ap     5.233854    76App    5.248425
      97Ap     5.248774    98Ap     5.360830    77App    5.362283
      78App    5.482164

    Final Occupation by Irrep:
             Ap   App
    DOCC [    10,    6 ]
    SOCC [     1,    0 ]

  @DF-UKS Final Energy:  -157.81306673511097

   => Energetics <=

    Nuclear Repulsion Energy =            125.4035991938532533
    One-Electron Energy =                -458.7669483844352953
    Two-Electron Energy =                 195.8576834095546246
    DFT Exchange-Correlation Energy =     -20.3074009540835583
    Empirical Dispersion Energy =           0.0000000000000000
    VV10 Nonlocal Energy =                  0.0000000000000000
    Total Energy =                       -157.8130667351109651

  UHF NO Occupations:
  HONO-2 :    9 Ap 1.9996019
  HONO-1 :   10 Ap 1.9989795
  HONO-0 :   11 Ap 1.0000000
  LUNO+0 :   12 Ap 0.0010205
  LUNO+1 :   13 Ap 0.0003981
  LUNO+2 :    7App 0.0001978
  LUNO+3 :   14 Ap 0.0001971

Computation Completed

Properties will be evaluated at   0.000000,   0.000000,   0.000000 [a0]

Properties computed using the SCF density matrix

  Nuclear Dipole Moment: [e a0]
     X:     0.8175      Y:    -0.0102      Z:     0.0000

  Electronic Dipole Moment: [e a0]
     X:    -0.7395      Y:     0.0110      Z:     0.0000

  Dipole Moment: [e a0]
     X:     0.0780      Y:     0.0008      Z:     0.0000     Total:     0.0780

  Dipole Moment: [D]
     X:     0.1984      Y:     0.0019      Z:     0.0000     Total:     0.1984

*** tstop() called on n089 at Fri Nov  5 13:40:57 2021
Module time:
	user time   =     511.00 seconds =       8.52 minutes
	system time =       4.62 seconds =       0.08 minutes
	total time  =        130 seconds =       2.17 minutes
Total time:
	user time   =     511.00 seconds =       8.52 minutes
	system time =       4.62 seconds =       0.08 minutes
	total time  =        130 seconds =       2.17 minutes
Grab this energy -157.81306673511097
    Psi4 stopped on: Friday, 05 November 2021 01:40PM
    Psi4 wall time for execution: 0:02:09.66

*** Psi4 exiting successfully. Buy a developer a beer!
