                               Psi4 1.4a2.dev629

  ==> Input File <==

--------------------------------------------------------------------------
import os
memory 14 GB

molecule {
 C   -0.3223164905   -0.0000015084    0.0002247270
 C    0.0623446106   -1.4019918099   -2.4278287093
 C    0.0620797592    2.8016063057    0.0004829450
 C    0.0620538987   -1.3996087639    2.4246665451
 H    2.0836945448   -1.6435137179   -2.8466144619
 H   -0.7645292603   -0.3858668294   -4.0264636252
 H   -0.7647552115   -3.2939533597   -2.3474978590
 H    2.0834868516    3.2876814625   -0.0001834969
 H   -0.7647530125    3.6805192777    1.6787589812
 H   -0.7646289565    3.6804949447   -1.6789447117
 H    2.0835530103   -1.6442603754    2.8475409297
 H   -0.7644697760   -3.2943700697    2.3485699477
 H   -0.7643678445   -0.3867598698    4.0272887885
units bohr
0 2
}

basis {

assign 6-31g_2dfp_

[ 6-31g_2dfp_ ]

spherical

!----------------------------------------------------------------------
! Basis Set Exchange
! Version v0.8.13
! https://www.basissetexchange.org
!----------------------------------------------------------------------
!   Basis set: 6-31G(2df,p)
! Description: 6-31G(2df,p)
!        Role: orbital
!     Version: 0  (Data from the original Basis Set Exchange)
!----------------------------------------------------------------------

****
H     0
S    3   1.00
     18.7311370              0.03349460
      2.8253937              0.23472695
      0.6401217              0.81375733
S    1   1.00
      0.1612778              1.00000000
P    1   1.00
      1.5000000              1.0000000
P    1   1.00
      0.3750000              1.0000000
****
B     0
S    6   1.00
   2068.8823000              0.0018663
    310.6495700              0.0142515
     70.6830330              0.0695516
     19.8610800              0.2325729
      6.2993048              0.4670787
      2.1270270              0.3634314
SP   3   1.00
      4.7279710             -0.1303938              0.0745976
      1.1903377             -0.1307889              0.3078467
      0.3594117              1.1309444              0.7434568
SP   1   1.00
      0.1267512              1.0000000              1.0000000
D    1   1.00
      0.8020000              1.0000000
D    1   1.00
      0.2005000              1.0000000
F    1   1.00
      0.5000000              1.0000000
****
C     0
S    6   1.00
   3047.5249000              0.0018347
    457.3695100              0.0140373
    103.9486900              0.0688426
     29.2101550              0.2321844
      9.2866630              0.4679413
      3.1639270              0.3623120
SP   3   1.00
      7.8682724             -0.1193324              0.0689991
      1.8812885             -0.1608542              0.3164240
      0.5442493              1.1434564              0.7443083
SP   1   1.00
      0.1687144              1.0000000              1.0000000
D    1   1.00
      1.2520000              1.0000000
D    1   1.00
      0.3130000              1.0000000
F    1   1.00
      0.8000000              1.0000000
****
N     0
S    6   1.00
   4173.5110000              0.0018348
    627.4579000              0.0139950
    142.9021000              0.0685870
     40.2343300              0.2322410
     12.8202100              0.4690700
      4.3904370              0.3604550
SP   3   1.00
     11.6263580             -0.1149610              0.0675800
      2.7162800             -0.1691180              0.3239070
      0.7722180              1.1458520              0.7408950
SP   1   1.00
      0.2120313              1.0000000              1.0000000
D    1   1.00
      1.8260000              1.0000000
D    1   1.00
      0.4565000              1.0000000
F    1   1.00
      1.0000000              1.0000000
****
O     0
S    6   1.00
   5484.6717000              0.0018311
    825.2349500              0.0139501
    188.0469600              0.0684451
     52.9645000              0.2327143
     16.8975700              0.4701930
      5.7996353              0.3585209
SP   3   1.00
     15.5396160             -0.1107775              0.0708743
      3.5999336             -0.1480263              0.3397528
      1.0137618              1.1307670              0.7271586
SP   1   1.00
      0.2700058              1.0000000              1.0000000
D    1   1.00
      2.5840000              1.0000000
D    1   1.00
      0.6460000              1.0000000
F    1   1.00
      1.4000000              1.0000000
****
F     0
S    6   1.00
   7001.7130900              0.0018196169
   1051.3660900              0.0139160796
    239.2856900              0.0684053245
     67.3974453              0.233185760
     21.5199573              0.471267439
      7.40310130             0.356618546
SP   3   1.00
     20.8479528             -0.108506975            0.0716287243
      4.80830834            -0.146451658            0.3459121030
      1.34406986             1.128688580            0.7224699570
SP   1   1.00
      0.358151393            1.0000000              1.0000000
D    1   1.00
      3.5000000              1.0000000
D    1   1.00
      0.8750000              1.0000000
F    1   1.00
      1.8500000              1.0000000
****
Al     0
S    6   1.00
  13983.1000000              0.00194267
   2098.7500000              0.0148599
    477.7050000              0.0728494
    134.3600000              0.2468300
     42.8709000              0.4872580
     14.5189000              0.3234960
SP   6   1.00
    239.6680000             -0.00292619             0.00460285
     57.4419000             -0.0374080              0.0331990
     18.2859000             -0.1144870              0.1362820
      6.5991400              0.1156350              0.3304760
      2.4904900              0.6125950              0.4491460
      0.9445400              0.3937990              0.2657040
SP   3   1.00
      1.2779000             -0.2276060             -0.0175130
      0.3975900              0.00144583             0.2445330
      0.1600950              1.0927900              0.8049340
SP   1   1.00
      0.0556577              1.0000000              1.0000000
D    1   1.00
      0.6500000              1.0000000
D    1   1.00
      0.1625000              1.0000000
F    1   1.00
      0.2500000              1.0000000
****
Si     0
S    6   1.00
  16115.9000000              0.00195948
   2425.5800000              0.01492880
    553.8670000              0.07284780
    156.3400000              0.24613000
     50.0683000              0.48591400
     17.0178000              0.32500200
SP   6   1.00
    292.7180000             -0.00278094             0.00443826
     69.8731000             -0.03571460             0.03266790
     22.3363000             -0.11498500             0.13472100
      8.1503900              0.09356340             0.32867800
      3.1345800              0.60301700             0.44964000
      1.2254300              0.41895900             0.26137200
SP   3   1.00
      1.7273800             -0.24463000            -0.01779510
      0.5729220              0.00431572             0.25353900
      0.2221920              1.09818000             0.80066900
SP   1   1.00
      0.0778369              1.00000000             1.00000000
D    1   1.00
      0.9000000              1.0000000
D    1   1.00
      0.2250000              1.0000000
F    1   1.00
      0.3200000              1.0000000
****
P     0
S    6   1.00
  19413.3000000              0.0018516
   2909.4200000              0.0142062
    661.3640000              0.0699995
    185.7590000              0.2400790
     59.1943000              0.4847620
     20.0310000              0.3352000
SP   6   1.00
    339.4780000             -0.00278217             0.00456462
     81.0101000             -0.0360499              0.03369360
     25.8780000             -0.1166310              0.13975500
      9.4522100              0.0968328              0.33936200
      3.6656600              0.6144180              0.45092100
      1.4674600              0.4037980              0.23858600
SP   3   1.00
      2.1562300             -0.2529230             -0.01776530
      0.7489970              0.0328517              0.27405800
      0.2831450              1.0812500              0.78542100
SP   1   1.00
      0.0998317              1.0000000              1.00000000
D    1   1.00
      1.1000000              1.0000000
D    1   1.00
      0.2750000              1.0000000
F    1   1.00
      0.4500000              1.0000000
****
S     0
S    6   1.00
  21917.1000000              0.0018690
   3301.4900000              0.0142300
    754.1460000              0.0696960
    212.7110000              0.2384870
     67.9896000              0.4833070
     23.0515000              0.3380740
SP   6   1.00
    423.7350000             -0.0023767              0.0040610
    100.7100000             -0.0316930              0.0306810
     32.1599000             -0.1133170              0.1304520
     11.8079000              0.0560900              0.3272050
      4.6311000              0.5922550              0.4528510
      1.8702500              0.4550060              0.2560420
SP   3   1.00
      2.6158400             -0.2503740             -0.0145110
      0.9221670              0.0669570              0.3102630
      0.3412870              1.0545100              0.7544830
SP   1   1.00
      0.1171670              1.0000000              1.0000000
D    1   1.00
      1.3000000              1.0000000
D    1   1.00
      0.3250000              1.0000000
F    1   1.00
      0.5500000              1.0000000
****
Cl     0
S    6   1.00
  25180.1000000              0.0018330
   3780.3500000              0.0140340
    860.4740000              0.0690970
    242.1450000              0.2374520
     77.3349000              0.4830340
     26.2470000              0.3398560
SP   6   1.00
    491.7650000             -0.0022974              0.0039894
    116.9840000             -0.0307140              0.0303180
     37.4153000             -0.1125280              0.1298800
     13.7834000              0.0450160              0.3279510
      5.4521500              0.5893530              0.4535270
      2.2258800              0.4652060              0.2521540
SP   3   1.00
      3.1864900             -0.2518300             -0.0142990
      1.1442700              0.0615890              0.3235720
      0.4203770              1.0601800              0.7435070
SP   1   1.00
      0.1426570              1.0000000              1.0000000
D    1   1.00
      1.5000000              1.0000000
D    1   1.00
      0.3750000              1.0000000
F    1   1.00
      0.7000000              1.0000000
****
}

set {
reference uhf
freeze_core true
e_convergence 10
d_convergence 10
dft_spherical_points 1202
dft_radial_points 99
}

e = energy('b3lyp')

print_out('Grab this energy {0}'.format(e))
--------------------------------------------------------------------------

    Molecular point group: c1

    Geometry (in Bohr), charge = 0, multiplicity = 2:

       Center              X                  Y                   Z               Mass
    ------------   -----------------  -----------------  -----------------  -----------------
         C           -0.323125780289    -0.000001892517     0.000697479873    12.000000000000
         C            0.061535320811    -1.401992194017    -2.427355956427    12.000000000000
         C            0.061270469411     2.801605921583     0.000955697873    12.000000000000
         C            0.061244608911    -1.399609148017     2.425139297973    12.000000000000
         H            2.082885255011    -1.643514102017    -2.846141709027     1.007825032230
         H           -0.765338550089    -0.385867213517    -4.025990872327     1.007825032230
         H           -0.765564501289    -3.293953743817    -2.347025106127     1.007825032230
         H            2.082677561811     3.287681078383     0.000289255973     1.007825032230
         H           -0.765562302289     3.680518893583     1.679231734073     1.007825032230
         H           -0.765438246289     3.680494560583    -1.678471958827     1.007825032230
         H            2.082743720511    -1.644260759517     2.848013682573     1.007825032230
         H           -0.765279065789    -3.294370453817     2.349042700573     1.007825032230
         H           -0.765177134289    -0.386760253917     4.027761541373     1.007825032230

  Charge       = 0
  Multiplicity = 2
  Basis Set: ANONYMOUS9D0FF3EA
    Blend: 6-31G_2DFP_
  Basis Set: (ANONYMOUS9D0FF3EA AUX)
    Blend: DEF2-UNIVERSAL-JKFIT

    Orbital Energies [Eh]
    ---------------------

    Alpha Occupied:

       1A    -10.180284     2A    -10.167055     3A    -10.167015
       4A    -10.166965     5A     -0.797804     6A     -0.686217
       7A     -0.686171     8A     -0.530787     9A     -0.441220
      10A     -0.434710    11A     -0.434547    12A     -0.382824
      13A     -0.382645    14A     -0.363434    15A     -0.338152
      16A     -0.337737    17A     -0.168924

    Alpha Virtual:

      18A      0.075987    19A      0.134134    20A      0.134160
      21A      0.142503    22A      0.142623    23A      0.155045
      24A      0.178874    25A      0.179039    26A      0.203587
      27A      0.214529    28A      0.275786    29A      0.276236
      30A      0.399337    31A      0.399357    32A      0.403429
      33A      0.423864    34A      0.423953    35A      0.456670
      36A      0.495189    37A      0.495232    38A      0.512279
      39A      0.514134    40A      0.578937    41A      0.579021
      42A      0.591840    43A      0.591970    44A      0.603325
      45A      0.624260    46A      0.631386    47A      0.635711
      48A      0.636042    49A      0.663849    50A      0.663967
      51A      0.683584    52A      0.683623    53A      0.734933
      54A      0.825384    55A      0.825494    56A      0.854195
      57A      0.915233    58A      0.915264    59A      0.943840
      60A      0.944469    61A      0.961360    62A      0.961427
      63A      1.003638    64A      1.127784    65A      1.127934
      66A      1.142947    67A      1.162716    68A      1.163288
      69A      1.222911    70A      1.274423    71A      1.275027
      72A      1.279534    73A      1.324502    74A      1.324631
      75A      1.355452    76A      1.365970    77A      1.366270
      78A      1.392497    79A      1.404915    80A      1.405215
      81A      1.416012    82A      1.416277    83A      1.428135
      84A      1.491511    85A      1.500032    86A      1.543128
      87A      1.543277    88A      1.573877    89A      1.574267
      90A      1.668556    91A      1.740130    92A      1.740414
      93A      1.770167    94A      1.829497    95A      1.830504
      96A      1.970711    97A      2.018228    98A      2.018548
      99A      2.019499   100A      2.053333   101A      2.054701
     102A      2.738046   103A      2.738289   104A      2.791317
     105A      2.810970   106A      2.890252   107A      2.890404
     108A      2.895281   109A      2.929228   110A      2.929350
     111A      2.959132   112A      2.964724   113A      2.964882
     114A      3.034710   115A      3.071181   116A      3.071451
     117A      3.082956   118A      3.168713   119A      3.169083
     120A      3.180661   121A      3.285406   122A      3.285419
     123A      3.326339   124A      3.326723   125A      3.375435
     126A      3.490057   127A      3.490725   128A      3.515229
     129A      3.524144   130A      3.568710   131A      3.568877
     132A      3.575975   133A      3.666074   134A      3.667425
     135A      3.679055   136A      3.693818   137A      3.694072
     138A      3.776203   139A      3.776565   140A      3.789908
     141A      3.910920   142A      3.912422   143A      4.033983
     144A      4.111247   145A      4.111562   146A      4.148387
     147A      4.148997   148A      4.174918   149A      4.201759
     150A      4.202457   151A      4.203070   152A      4.211991
     153A      4.315694   154A      4.317146   155A      4.357769
     156A      4.424201   157A      4.426076   158A      4.443305
     159A      4.516862   160A      4.518142   161A      4.577565
     162A      4.577611   163A      4.617633   164A      4.710007
     165A      4.774156   166A      4.774777   167A      4.835555
     168A      4.962526   169A      5.003561   170A      5.004990
     171A      5.230794   172A      5.243616   173A      5.244006
     174A      5.357432   175A      5.357561   176A      5.477400

    Beta Occupied:

       1A    -10.167811     2A    -10.167771     3A    -10.167727
       4A    -10.166455     5A     -0.781122     6A     -0.684013
       7A     -0.683955     8A     -0.511710     9A     -0.431058
      10A     -0.430891    11A     -0.421976    12A     -0.376954
      13A     -0.376735    14A     -0.362409    15A     -0.333280
      16A     -0.332863

    Beta Virtual:

      17A     -0.025615    18A      0.076980    19A      0.134963
      20A      0.134977    21A      0.144412    22A      0.144500
      23A      0.163485    24A      0.182586    25A      0.182726
      26A      0.214765    27A      0.218971    28A      0.282138
      29A      0.282571    30A      0.400508    31A      0.400522
      32A      0.419779    33A      0.426675    34A      0.426766
      35A      0.468677    36A      0.497434    37A      0.497491
      38A      0.514006    39A      0.556517    40A      0.584453
      41A      0.584548    42A      0.598029    43A      0.598159
      44A      0.610610    45A      0.627776    46A      0.631544
      47A      0.639039    48A      0.639362    49A      0.667377
      50A      0.667505    51A      0.686245    52A      0.686258
      53A      0.757459    54A      0.830526    55A      0.830646
      56A      0.855540    57A      0.923184    58A      0.923219
      59A      0.945685    60A      0.953348    61A      0.966704
      62A      0.966764    63A      1.008918    64A      1.131782
      65A      1.131923    66A      1.156239    67A      1.167796
      68A      1.168405    69A      1.231900    70A      1.280039
      71A      1.280650    72A      1.285344    73A      1.329457
      74A      1.329559    75A      1.364888    76A      1.371173
      77A      1.371417    78A      1.393539    79A      1.408481
      80A      1.408679    81A      1.421117    82A      1.421346
      83A      1.428400    84A      1.492585    85A      1.510468
      86A      1.547495    87A      1.547661    88A      1.581762
      89A      1.582163    90A      1.673353    91A      1.745893
      92A      1.746184    93A      1.780961    94A      1.833361
      95A      1.834348    96A      1.971583    97A      2.024948
      98A      2.026019    99A      2.039767   100A      2.059927
     101A      2.061299   102A      2.746396   103A      2.746593
     104A      2.811379   105A      2.816491   106A      2.902991
     107A      2.903099   108A      2.925178   109A      2.931724
     110A      2.931815   111A      2.960198   112A      2.969289
     113A      2.969475   114A      3.042433   115A      3.081107
     116A      3.081365   117A      3.084779   118A      3.184409
     119A      3.184808   120A      3.188404   121A      3.290160
     122A      3.290201   123A      3.330188   124A      3.330556
     125A      3.383279   126A      3.492804   127A      3.493517
     128A      3.513595   129A      3.527203   130A      3.575836
     131A      3.581860   132A      3.582062   133A      3.670889
     134A      3.672310   135A      3.692375   136A      3.725438
     137A      3.725704   138A      3.780750   139A      3.781200
     140A      3.818427   141A      3.920731   142A      3.922130
     143A      4.044808   144A      4.117957   145A      4.118474
     146A      4.155700   147A      4.156119   148A      4.188949
     149A      4.207639   150A      4.208428   151A      4.210904
     152A      4.216344   153A      4.323165   154A      4.324674
     155A      4.361176   156A      4.432434   157A      4.434243
     158A      4.446271   159A      4.524623   160A      4.525890
     161A      4.588192   162A      4.588270   163A      4.624920
     164A      4.720234   165A      4.781179   166A      4.781760
     167A      4.838485   168A      4.967311   169A      5.007589
     170A      5.008988   171A      5.236544   172A      5.245422
     173A      5.245797   174A      5.363918   175A      5.364089
     176A      5.479733

    Final Occupation by Irrep:
              A
    DOCC [    16 ]
    SOCC [     1 ]

  @DF-UKS Final Energy:  -157.81305782679499

   => Energetics <=

    Nuclear Repulsion Energy =            125.4000053824878478
    One-Electron Energy =                -458.7596615606709634
    Two-Electron Energy =                 195.8538555724541652
    DFT Exchange-Correlation Energy =     -20.3072572210660311
    Empirical Dispersion Energy =           0.0000000000000000
    VV10 Nonlocal Energy =                  0.0000000000000000
    Total Energy =                       -157.8130578267949886

  UHF NO Occupations:
  HONO-2 :   15  A 1.9996032
  HONO-1 :   16  A 1.9989813
  HONO-0 :   17  A 1.0000000
  LUNO+0 :   18  A 0.0010187
  LUNO+1 :   19  A 0.0003968
  LUNO+2 :   20  A 0.0001979
  LUNO+3 :   21  A 0.0001972

Computation Completed

Properties will be evaluated at   0.000000,   0.000000,   0.000000 [a0]

Properties computed using the SCF density matrix

  Nuclear Dipole Moment: [e a0]
     X:     0.8215      Y:    -0.0000      Z:     0.0033

  Electronic Dipole Moment: [e a0]
     X:    -0.7404      Y:     0.0000      Z:    -0.0034

  Dipole Moment: [e a0]
     X:     0.0811      Y:     0.0000      Z:    -0.0001     Total:     0.0811

  Dipole Moment: [D]
     X:     0.2061      Y:     0.0000      Z:    -0.0002     Total:     0.2061

*** tstop() called on n061 at Fri Nov  5 13:11:13 2021
Module time:
	user time   =     506.86 seconds =       8.45 minutes
	system time =      10.88 seconds =       0.18 minutes
	total time  =        131 seconds =       2.18 minutes
Total time:
	user time   =     506.86 seconds =       8.45 minutes
	system time =      10.88 seconds =       0.18 minutes
	total time  =        131 seconds =       2.18 minutes
Grab this energy -157.813057826795
    Psi4 stopped on: Friday, 05 November 2021 01:11PM
    Psi4 wall time for execution: 0:02:10.26

*** Psi4 exiting successfully. Buy a developer a beer!
