                               Psi4 1.4a2.dev629

  ==> Input File <==

--------------------------------------------------------------------------
import os
memory 14 GB

molecule {
 C   -0.3233523841   -0.0000023757   -0.0004948858
 C    0.0610411118   -1.4004115088   -2.4256142504
 C    0.0608371885    2.8001203062   -0.0000416470
 C    0.0608728273   -1.3997042126    2.4243058949
 H    2.0832632389   -1.6445732037   -2.8482378203
 H   -0.7634476593   -0.3913770748   -4.0234106594
 H   -0.7635200478   -3.2891585539   -2.3509501886
 H    2.0867452261    3.2886025343    0.0000269940
 H   -0.7654354142    3.6812335228    1.6767210556
 H   -0.7656172781    3.6802434148   -1.6760686068
 H    2.0905056353   -1.6441216635    2.8475089378
 H   -0.7673776366   -3.2951430385    2.3479686949
 H   -0.7671226844   -0.3857324604    4.0282864811
units bohr
0 2
}

basis {

assign 6-31g_2dfp_

[ 6-31g_2dfp_ ]

spherical

!----------------------------------------------------------------------
! Basis Set Exchange
! Version v0.8.13
! https://www.basissetexchange.org
!----------------------------------------------------------------------
!   Basis set: 6-31G(2df,p)
! Description: 6-31G(2df,p)
!        Role: orbital
!     Version: 0  (Data from the original Basis Set Exchange)
!----------------------------------------------------------------------

****
H     0
S    3   1.00
     18.7311370              0.03349460
      2.8253937              0.23472695
      0.6401217              0.81375733
S    1   1.00
      0.1612778              1.00000000
P    1   1.00
      1.5000000              1.0000000
P    1   1.00
      0.3750000              1.0000000
****
B     0
S    6   1.00
   2068.8823000              0.0018663
    310.6495700              0.0142515
     70.6830330              0.0695516
     19.8610800              0.2325729
      6.2993048              0.4670787
      2.1270270              0.3634314
SP   3   1.00
      4.7279710             -0.1303938              0.0745976
      1.1903377             -0.1307889              0.3078467
      0.3594117              1.1309444              0.7434568
SP   1   1.00
      0.1267512              1.0000000              1.0000000
D    1   1.00
      0.8020000              1.0000000
D    1   1.00
      0.2005000              1.0000000
F    1   1.00
      0.5000000              1.0000000
****
C     0
S    6   1.00
   3047.5249000              0.0018347
    457.3695100              0.0140373
    103.9486900              0.0688426
     29.2101550              0.2321844
      9.2866630              0.4679413
      3.1639270              0.3623120
SP   3   1.00
      7.8682724             -0.1193324              0.0689991
      1.8812885             -0.1608542              0.3164240
      0.5442493              1.1434564              0.7443083
SP   1   1.00
      0.1687144              1.0000000              1.0000000
D    1   1.00
      1.2520000              1.0000000
D    1   1.00
      0.3130000              1.0000000
F    1   1.00
      0.8000000              1.0000000
****
N     0
S    6   1.00
   4173.5110000              0.0018348
    627.4579000              0.0139950
    142.9021000              0.0685870
     40.2343300              0.2322410
     12.8202100              0.4690700
      4.3904370              0.3604550
SP   3   1.00
     11.6263580             -0.1149610              0.0675800
      2.7162800             -0.1691180              0.3239070
      0.7722180              1.1458520              0.7408950
SP   1   1.00
      0.2120313              1.0000000              1.0000000
D    1   1.00
      1.8260000              1.0000000
D    1   1.00
      0.4565000              1.0000000
F    1   1.00
      1.0000000              1.0000000
****
O     0
S    6   1.00
   5484.6717000              0.0018311
    825.2349500              0.0139501
    188.0469600              0.0684451
     52.9645000              0.2327143
     16.8975700              0.4701930
      5.7996353              0.3585209
SP   3   1.00
     15.5396160             -0.1107775              0.0708743
      3.5999336             -0.1480263              0.3397528
      1.0137618              1.1307670              0.7271586
SP   1   1.00
      0.2700058              1.0000000              1.0000000
D    1   1.00
      2.5840000              1.0000000
D    1   1.00
      0.6460000              1.0000000
F    1   1.00
      1.4000000              1.0000000
****
F     0
S    6   1.00
   7001.7130900              0.0018196169
   1051.3660900              0.0139160796
    239.2856900              0.0684053245
     67.3974453              0.233185760
     21.5199573              0.471267439
      7.40310130             0.356618546
SP   3   1.00
     20.8479528             -0.108506975            0.0716287243
      4.80830834            -0.146451658            0.3459121030
      1.34406986             1.128688580            0.7224699570
SP   1   1.00
      0.358151393            1.0000000              1.0000000
D    1   1.00
      3.5000000              1.0000000
D    1   1.00
      0.8750000              1.0000000
F    1   1.00
      1.8500000              1.0000000
****
Al     0
S    6   1.00
  13983.1000000              0.00194267
   2098.7500000              0.0148599
    477.7050000              0.0728494
    134.3600000              0.2468300
     42.8709000              0.4872580
     14.5189000              0.3234960
SP   6   1.00
    239.6680000             -0.00292619             0.00460285
     57.4419000             -0.0374080              0.0331990
     18.2859000             -0.1144870              0.1362820
      6.5991400              0.1156350              0.3304760
      2.4904900              0.6125950              0.4491460
      0.9445400              0.3937990              0.2657040
SP   3   1.00
      1.2779000             -0.2276060             -0.0175130
      0.3975900              0.00144583             0.2445330
      0.1600950              1.0927900              0.8049340
SP   1   1.00
      0.0556577              1.0000000              1.0000000
D    1   1.00
      0.6500000              1.0000000
D    1   1.00
      0.1625000              1.0000000
F    1   1.00
      0.2500000              1.0000000
****
Si     0
S    6   1.00
  16115.9000000              0.00195948
   2425.5800000              0.01492880
    553.8670000              0.07284780
    156.3400000              0.24613000
     50.0683000              0.48591400
     17.0178000              0.32500200
SP   6   1.00
    292.7180000             -0.00278094             0.00443826
     69.8731000             -0.03571460             0.03266790
     22.3363000             -0.11498500             0.13472100
      8.1503900              0.09356340             0.32867800
      3.1345800              0.60301700             0.44964000
      1.2254300              0.41895900             0.26137200
SP   3   1.00
      1.7273800             -0.24463000            -0.01779510
      0.5729220              0.00431572             0.25353900
      0.2221920              1.09818000             0.80066900
SP   1   1.00
      0.0778369              1.00000000             1.00000000
D    1   1.00
      0.9000000              1.0000000
D    1   1.00
      0.2250000              1.0000000
F    1   1.00
      0.3200000              1.0000000
****
P     0
S    6   1.00
  19413.3000000              0.0018516
   2909.4200000              0.0142062
    661.3640000              0.0699995
    185.7590000              0.2400790
     59.1943000              0.4847620
     20.0310000              0.3352000
SP   6   1.00
    339.4780000             -0.00278217             0.00456462
     81.0101000             -0.0360499              0.03369360
     25.8780000             -0.1166310              0.13975500
      9.4522100              0.0968328              0.33936200
      3.6656600              0.6144180              0.45092100
      1.4674600              0.4037980              0.23858600
SP   3   1.00
      2.1562300             -0.2529230             -0.01776530
      0.7489970              0.0328517              0.27405800
      0.2831450              1.0812500              0.78542100
SP   1   1.00
      0.0998317              1.0000000              1.00000000
D    1   1.00
      1.1000000              1.0000000
D    1   1.00
      0.2750000              1.0000000
F    1   1.00
      0.4500000              1.0000000
****
S     0
S    6   1.00
  21917.1000000              0.0018690
   3301.4900000              0.0142300
    754.1460000              0.0696960
    212.7110000              0.2384870
     67.9896000              0.4833070
     23.0515000              0.3380740
SP   6   1.00
    423.7350000             -0.0023767              0.0040610
    100.7100000             -0.0316930              0.0306810
     32.1599000             -0.1133170              0.1304520
     11.8079000              0.0560900              0.3272050
      4.6311000              0.5922550              0.4528510
      1.8702500              0.4550060              0.2560420
SP   3   1.00
      2.6158400             -0.2503740             -0.0145110
      0.9221670              0.0669570              0.3102630
      0.3412870              1.0545100              0.7544830
SP   1   1.00
      0.1171670              1.0000000              1.0000000
D    1   1.00
      1.3000000              1.0000000
D    1   1.00
      0.3250000              1.0000000
F    1   1.00
      0.5500000              1.0000000
****
Cl     0
S    6   1.00
  25180.1000000              0.0018330
   3780.3500000              0.0140340
    860.4740000              0.0690970
    242.1450000              0.2374520
     77.3349000              0.4830340
     26.2470000              0.3398560
SP   6   1.00
    491.7650000             -0.0022974              0.0039894
    116.9840000             -0.0307140              0.0303180
     37.4153000             -0.1125280              0.1298800
     13.7834000              0.0450160              0.3279510
      5.4521500              0.5893530              0.4535270
      2.2258800              0.4652060              0.2521540
SP   3   1.00
      3.1864900             -0.2518300             -0.0142990
      1.1442700              0.0615890              0.3235720
      0.4203770              1.0601800              0.7435070
SP   1   1.00
      0.1426570              1.0000000              1.0000000
D    1   1.00
      1.5000000              1.0000000
D    1   1.00
      0.3750000              1.0000000
F    1   1.00
      0.7000000              1.0000000
****
}

set {
reference uhf
freeze_core true
e_convergence 10
d_convergence 10
dft_spherical_points 1202
dft_radial_points 99
}

e = energy('b3lyp')

print_out('Grab this energy {0}'.format(e))
--------------------------------------------------------------------------

    Molecular point group: c1

    Geometry (in Bohr), charge = 0, multiplicity = 2:

       Center              X                  Y                   Z               Mass
    ------------   -----------------  -----------------  -----------------  -----------------
         C           -0.323244279138    -0.000002371823    -0.000139547025    12.000000000000
         C            0.061149216762    -1.400411504923    -2.425258911625    12.000000000000
         C            0.060945293462     2.800120310077     0.000313691775    12.000000000000
         C            0.060980932262    -1.399704208723     2.424661233675    12.000000000000
         H            2.083371343862    -1.644573199823    -2.847882481525     1.007825032230
         H           -0.763339554338    -0.391377070923    -4.023055320625     1.007825032230
         H           -0.763411942838    -3.289158550023    -2.350594849825     1.007825032230
         H            2.086853331062     3.288602538177     0.000382332775     1.007825032230
         H           -0.765327309238     3.681233526677     1.677076394375     1.007825032230
         H           -0.765509173138     3.680243418677    -1.675713268025     1.007825032230
         H            2.090613740262    -1.644121659623     2.847864276575     1.007825032230
         H           -0.767269531638    -3.295143034623     2.348324033675     1.007825032230
         H           -0.767014579438    -0.385732456523     4.028641819875     1.007825032230

  Charge       = 0
  Multiplicity = 2
  Basis Set: ANONYMOUS4C086074
    Blend: 6-31G_2DFP_
  Basis Set: (ANONYMOUS4C086074 AUX)
    Blend: DEF2-UNIVERSAL-JKFIT

    Orbital Energies [Eh]
    ---------------------

    Alpha Occupied:

       1A    -10.180291     2A    -10.167648     3A    -10.167068
       4A    -10.166486     5A     -0.798024     6A     -0.686519
       7A     -0.685875     8A     -0.530941     9A     -0.441135
      10A     -0.434826    11A     -0.434654    12A     -0.382683
      13A     -0.382239    14A     -0.363411    15A     -0.338190
      16A     -0.338126    17A     -0.168982

    Alpha Virtual:

      18A      0.076063    19A      0.134088    20A      0.134092
      21A      0.142398    22A      0.142604    23A      0.154981
      24A      0.178291    25A      0.178938    26A      0.203836
      27A      0.214681    28A      0.276181    29A      0.276272
      30A      0.399143    31A      0.399302    32A      0.403253
      33A      0.423948    34A      0.424138    35A      0.456773
      36A      0.495310    37A      0.495450    38A      0.512107
      39A      0.513920    40A      0.578648    41A      0.578896
      42A      0.591223    43A      0.591824    44A      0.602548
      45A      0.624646    46A      0.631470    47A      0.635962
      48A      0.636725    49A      0.663347    50A      0.663712
      51A      0.683532    52A      0.684158    53A      0.734862
      54A      0.825026    55A      0.825821    56A      0.854053
      57A      0.914973    58A      0.914997    59A      0.944176
      60A      0.944923    61A      0.960981    62A      0.961479
      63A      1.003285    64A      1.127859    65A      1.128514
      66A      1.142638    67A      1.162570    68A      1.162746
      69A      1.223752    70A      1.274438    71A      1.274797
      72A      1.279516    73A      1.324202    74A      1.324905
      75A      1.356317    76A      1.365931    77A      1.366459
      78A      1.391962    79A      1.402941    80A      1.403714
      81A      1.416777    82A      1.417404    83A      1.427662
      84A      1.492015    85A      1.498502    86A      1.542937
      87A      1.543044    88A      1.574269    89A      1.574835
      90A      1.669014    91A      1.739841    92A      1.739966
      93A      1.768304    94A      1.829424    95A      1.832585
      96A      1.972299    97A      2.017961    98A      2.019714
      99A      2.019971   100A      2.053057   101A      2.053145
     102A      2.738214   103A      2.739108   104A      2.791147
     105A      2.811516   106A      2.889765   107A      2.890311
     108A      2.895385   109A      2.929237   110A      2.929435
     111A      2.958956   112A      2.963831   113A      2.964879
     114A      3.034194   115A      3.071005   116A      3.071453
     117A      3.084785   118A      3.168752   119A      3.169014
     120A      3.181188   121A      3.284916   122A      3.285056
     123A      3.327362   124A      3.327450   125A      3.375512
     126A      3.489416   127A      3.491080   128A      3.514163
     129A      3.525688   130A      3.568569   131A      3.568650
     132A      3.575059   133A      3.664807   134A      3.666296
     135A      3.679088   136A      3.693593   137A      3.694504
     138A      3.776289   139A      3.777454   140A      3.788826
     141A      3.912864   142A      3.913770   143A      4.034998
     144A      4.110285   145A      4.111786   146A      4.146052
     147A      4.150095   148A      4.173994   149A      4.201540
     150A      4.203608   151A      4.205783   152A      4.211524
     153A      4.315156   154A      4.316503   155A      4.358310
     156A      4.423034   157A      4.423442   158A      4.441592
     159A      4.516929   160A      4.517396   161A      4.578570
     162A      4.579455   163A      4.617909   164A      4.710769
     165A      4.775275   166A      4.775497   167A      4.838196
     168A      4.961557   169A      5.001539   170A      5.002655
     171A      5.227311   172A      5.242838   173A      5.250196
     174A      5.352745   175A      5.358773   176A      5.480653

    Beta Occupied:

       1A    -10.168411     2A    -10.167829     3A    -10.167248
       4A    -10.166476     5A     -0.781334     6A     -0.684315
       7A     -0.683672     8A     -0.511959     9A     -0.431189
      10A     -0.430995    11A     -0.421790    12A     -0.376761
      13A     -0.376298    14A     -0.362391    15A     -0.333321
      16A     -0.333271

    Beta Virtual:

      17A     -0.025913    18A      0.077075    19A      0.134930
      20A      0.135048    21A      0.144318    22A      0.144427
      23A      0.163482    24A      0.181987    25A      0.182615
      26A      0.214913    27A      0.219170    28A      0.282507
      29A      0.282603    30A      0.400315    31A      0.400481
      32A      0.419707    33A      0.426758    34A      0.426954
      35A      0.468757    36A      0.497578    37A      0.497718
      38A      0.513851    39A      0.556234    40A      0.584190
      41A      0.584451    42A      0.597418    43A      0.597974
      44A      0.609961    45A      0.628059    46A      0.631664
      47A      0.639270    48A      0.639990    49A      0.666898
      50A      0.667291    51A      0.686213    52A      0.686769
      53A      0.757309    54A      0.830184    55A      0.831031
      56A      0.855419    57A      0.922943    58A      0.922963
      59A      0.946020    60A      0.953864    61A      0.966324
      62A      0.966765    63A      1.008515    64A      1.131866
      65A      1.132552    66A      1.156053    67A      1.167620
      68A      1.167823    69A      1.232667    70A      1.280066
      71A      1.280429    72A      1.285245    73A      1.329166
      74A      1.329964    75A      1.365736    76A      1.371129
      77A      1.371629    78A      1.393029    79A      1.406420
      80A      1.407231    81A      1.421783    82A      1.422501
      83A      1.427919    84A      1.493076    85A      1.508966
      86A      1.547321    87A      1.547519    88A      1.582131
      89A      1.582680    90A      1.673854    91A      1.745619
      92A      1.745710    93A      1.779121    94A      1.833335
      95A      1.836436    96A      1.973170    97A      2.026183
      98A      2.026299    99A      2.039461   100A      2.059674
     101A      2.059884   102A      2.746504   103A      2.747427
     104A      2.811927   105A      2.816249   106A      2.902509
     107A      2.902888   108A      2.925102   109A      2.931799
     110A      2.931895   111A      2.960018   112A      2.968366
     113A      2.969494   114A      3.042171   115A      3.080888
     116A      3.081447   117A      3.086642   118A      3.184365
     119A      3.184702   120A      3.188854   121A      3.289737
     122A      3.289931   123A      3.331181   124A      3.331229
     125A      3.383363   126A      3.492187   127A      3.493787
     128A      3.512526   129A      3.528696   130A      3.574822
     131A      3.581891   132A      3.581965   133A      3.669343
     134A      3.670926   135A      3.692400   136A      3.725307
     137A      3.726229   138A      3.780908   139A      3.782012
     140A      3.817318   141A      3.922657   142A      3.923535
     143A      4.045801   144A      4.117401   145A      4.118470
     146A      4.153433   147A      4.157060   148A      4.188101
     149A      4.208182   150A      4.209743   151A      4.212881
     152A      4.216026   153A      4.322626   154A      4.323724
     155A      4.361697   156A      4.431329   157A      4.431658
     158A      4.444528   159A      4.524845   160A      4.525189
     161A      4.589235   162A      4.590028   163A      4.625121
     164A      4.721116   165A      4.782193   166A      4.782481
     167A      4.841109   168A      4.966375   169A      5.005618
     170A      5.006699   171A      5.233037   172A      5.244641
     173A      5.251992   174A      5.359267   175A      5.365265
     176A      5.482981

    Final Occupation by Irrep:
              A
    DOCC [    16 ]
    SOCC [     1 ]

  @DF-UKS Final Energy:  -157.81307843945930

   => Energetics <=

    Nuclear Repulsion Energy =            125.4226099060810071
    One-Electron Energy =                -458.8039456638257434
    Two-Electron Energy =                 195.8752887669505185
    DFT Exchange-Correlation Energy =     -20.3070314486650751
    Empirical Dispersion Energy =           0.0000000000000000
    VV10 Nonlocal Energy =                  0.0000000000000000
    Total Energy =                       -157.8130784394593036

  UHF NO Occupations:
  HONO-2 :   15  A 1.9995992
  HONO-1 :   16  A 1.9989827
  HONO-0 :   17  A 1.0000000
  LUNO+0 :   18  A 0.0010173
  LUNO+1 :   19  A 0.0004008
  LUNO+2 :   20  A 0.0001968
  LUNO+3 :   21  A 0.0001967

Computation Completed

Properties will be evaluated at   0.000000,   0.000000,   0.000000 [a0]

Properties computed using the SCF density matrix

  Nuclear Dipole Moment: [e a0]
     X:     0.8280      Y:    -0.0000      Z:     0.0025

  Electronic Dipole Moment: [e a0]
     X:    -0.7502      Y:     0.0000      Z:    -0.0050

  Dipole Moment: [e a0]
     X:     0.0778      Y:     0.0000      Z:    -0.0025     Total:     0.0778

  Dipole Moment: [D]
     X:     0.1977      Y:     0.0000      Z:    -0.0062     Total:     0.1978

*** tstop() called on n089 at Fri Nov  5 13:23:41 2021
Module time:
	user time   =     505.87 seconds =       8.43 minutes
	system time =       4.75 seconds =       0.08 minutes
	total time  =        129 seconds =       2.15 minutes
Total time:
	user time   =     505.87 seconds =       8.43 minutes
	system time =       4.75 seconds =       0.08 minutes
	total time  =        129 seconds =       2.15 minutes
Grab this energy -157.8130784394593
    Psi4 stopped on: Friday, 05 November 2021 01:23PM
    Psi4 wall time for execution: 0:02:08.38

*** Psi4 exiting successfully. Buy a developer a beer!
