                               Psi4 1.4a2.dev629

  ==> Input File <==

--------------------------------------------------------------------------
import os
memory 14 GB

molecule {
 C   -0.3201724605   -0.0002482710    0.0000000000
 C    0.0619106840   -1.4007062389   -2.4263422720
 C    0.0634582864    2.8014558412   -0.0000000000
 C    0.0619106840   -1.4007062389    2.4263422720
 H    2.0849821200   -1.6410524550   -2.8453753850
 H   -0.7680837526   -0.3905220020   -4.0277738272
 H   -0.7665795047   -3.2924693827   -2.3495043801
 H    2.0897025179    3.2939375868   -0.0000000000
 H   -0.7650276569    3.6771653433    1.6759841172
 H   -0.7650276569    3.6771653433   -1.6759841172
 H    2.0849821200   -1.6410524550    2.8453753850
 H   -0.7665795047   -3.2924693827    2.3495043801
 H   -0.7680837526   -0.3905220020    4.0277738272
units bohr
0 2
}

basis {

assign 6-31g_2dfp_

[ 6-31g_2dfp_ ]

spherical

!----------------------------------------------------------------------
! Basis Set Exchange
! Version v0.8.13
! https://www.basissetexchange.org
!----------------------------------------------------------------------
!   Basis set: 6-31G(2df,p)
! Description: 6-31G(2df,p)
!        Role: orbital
!     Version: 0  (Data from the original Basis Set Exchange)
!----------------------------------------------------------------------

****
H     0
S    3   1.00
     18.7311370              0.03349460
      2.8253937              0.23472695
      0.6401217              0.81375733
S    1   1.00
      0.1612778              1.00000000
P    1   1.00
      1.5000000              1.0000000
P    1   1.00
      0.3750000              1.0000000
****
B     0
S    6   1.00
   2068.8823000              0.0018663
    310.6495700              0.0142515
     70.6830330              0.0695516
     19.8610800              0.2325729
      6.2993048              0.4670787
      2.1270270              0.3634314
SP   3   1.00
      4.7279710             -0.1303938              0.0745976
      1.1903377             -0.1307889              0.3078467
      0.3594117              1.1309444              0.7434568
SP   1   1.00
      0.1267512              1.0000000              1.0000000
D    1   1.00
      0.8020000              1.0000000
D    1   1.00
      0.2005000              1.0000000
F    1   1.00
      0.5000000              1.0000000
****
C     0
S    6   1.00
   3047.5249000              0.0018347
    457.3695100              0.0140373
    103.9486900              0.0688426
     29.2101550              0.2321844
      9.2866630              0.4679413
      3.1639270              0.3623120
SP   3   1.00
      7.8682724             -0.1193324              0.0689991
      1.8812885             -0.1608542              0.3164240
      0.5442493              1.1434564              0.7443083
SP   1   1.00
      0.1687144              1.0000000              1.0000000
D    1   1.00
      1.2520000              1.0000000
D    1   1.00
      0.3130000              1.0000000
F    1   1.00
      0.8000000              1.0000000
****
N     0
S    6   1.00
   4173.5110000              0.0018348
    627.4579000              0.0139950
    142.9021000              0.0685870
     40.2343300              0.2322410
     12.8202100              0.4690700
      4.3904370              0.3604550
SP   3   1.00
     11.6263580             -0.1149610              0.0675800
      2.7162800             -0.1691180              0.3239070
      0.7722180              1.1458520              0.7408950
SP   1   1.00
      0.2120313              1.0000000              1.0000000
D    1   1.00
      1.8260000              1.0000000
D    1   1.00
      0.4565000              1.0000000
F    1   1.00
      1.0000000              1.0000000
****
O     0
S    6   1.00
   5484.6717000              0.0018311
    825.2349500              0.0139501
    188.0469600              0.0684451
     52.9645000              0.2327143
     16.8975700              0.4701930
      5.7996353              0.3585209
SP   3   1.00
     15.5396160             -0.1107775              0.0708743
      3.5999336             -0.1480263              0.3397528
      1.0137618              1.1307670              0.7271586
SP   1   1.00
      0.2700058              1.0000000              1.0000000
D    1   1.00
      2.5840000              1.0000000
D    1   1.00
      0.6460000              1.0000000
F    1   1.00
      1.4000000              1.0000000
****
F     0
S    6   1.00
   7001.7130900              0.0018196169
   1051.3660900              0.0139160796
    239.2856900              0.0684053245
     67.3974453              0.233185760
     21.5199573              0.471267439
      7.40310130             0.356618546
SP   3   1.00
     20.8479528             -0.108506975            0.0716287243
      4.80830834            -0.146451658            0.3459121030
      1.34406986             1.128688580            0.7224699570
SP   1   1.00
      0.358151393            1.0000000              1.0000000
D    1   1.00
      3.5000000              1.0000000
D    1   1.00
      0.8750000              1.0000000
F    1   1.00
      1.8500000              1.0000000
****
Al     0
S    6   1.00
  13983.1000000              0.00194267
   2098.7500000              0.0148599
    477.7050000              0.0728494
    134.3600000              0.2468300
     42.8709000              0.4872580
     14.5189000              0.3234960
SP   6   1.00
    239.6680000             -0.00292619             0.00460285
     57.4419000             -0.0374080              0.0331990
     18.2859000             -0.1144870              0.1362820
      6.5991400              0.1156350              0.3304760
      2.4904900              0.6125950              0.4491460
      0.9445400              0.3937990              0.2657040
SP   3   1.00
      1.2779000             -0.2276060             -0.0175130
      0.3975900              0.00144583             0.2445330
      0.1600950              1.0927900              0.8049340
SP   1   1.00
      0.0556577              1.0000000              1.0000000
D    1   1.00
      0.6500000              1.0000000
D    1   1.00
      0.1625000              1.0000000
F    1   1.00
      0.2500000              1.0000000
****
Si     0
S    6   1.00
  16115.9000000              0.00195948
   2425.5800000              0.01492880
    553.8670000              0.07284780
    156.3400000              0.24613000
     50.0683000              0.48591400
     17.0178000              0.32500200
SP   6   1.00
    292.7180000             -0.00278094             0.00443826
     69.8731000             -0.03571460             0.03266790
     22.3363000             -0.11498500             0.13472100
      8.1503900              0.09356340             0.32867800
      3.1345800              0.60301700             0.44964000
      1.2254300              0.41895900             0.26137200
SP   3   1.00
      1.7273800             -0.24463000            -0.01779510
      0.5729220              0.00431572             0.25353900
      0.2221920              1.09818000             0.80066900
SP   1   1.00
      0.0778369              1.00000000             1.00000000
D    1   1.00
      0.9000000              1.0000000
D    1   1.00
      0.2250000              1.0000000
F    1   1.00
      0.3200000              1.0000000
****
P     0
S    6   1.00
  19413.3000000              0.0018516
   2909.4200000              0.0142062
    661.3640000              0.0699995
    185.7590000              0.2400790
     59.1943000              0.4847620
     20.0310000              0.3352000
SP   6   1.00
    339.4780000             -0.00278217             0.00456462
     81.0101000             -0.0360499              0.03369360
     25.8780000             -0.1166310              0.13975500
      9.4522100              0.0968328              0.33936200
      3.6656600              0.6144180              0.45092100
      1.4674600              0.4037980              0.23858600
SP   3   1.00
      2.1562300             -0.2529230             -0.01776530
      0.7489970              0.0328517              0.27405800
      0.2831450              1.0812500              0.78542100
SP   1   1.00
      0.0998317              1.0000000              1.00000000
D    1   1.00
      1.1000000              1.0000000
D    1   1.00
      0.2750000              1.0000000
F    1   1.00
      0.4500000              1.0000000
****
S     0
S    6   1.00
  21917.1000000              0.0018690
   3301.4900000              0.0142300
    754.1460000              0.0696960
    212.7110000              0.2384870
     67.9896000              0.4833070
     23.0515000              0.3380740
SP   6   1.00
    423.7350000             -0.0023767              0.0040610
    100.7100000             -0.0316930              0.0306810
     32.1599000             -0.1133170              0.1304520
     11.8079000              0.0560900              0.3272050
      4.6311000              0.5922550              0.4528510
      1.8702500              0.4550060              0.2560420
SP   3   1.00
      2.6158400             -0.2503740             -0.0145110
      0.9221670              0.0669570              0.3102630
      0.3412870              1.0545100              0.7544830
SP   1   1.00
      0.1171670              1.0000000              1.0000000
D    1   1.00
      1.3000000              1.0000000
D    1   1.00
      0.3250000              1.0000000
F    1   1.00
      0.5500000              1.0000000
****
Cl     0
S    6   1.00
  25180.1000000              0.0018330
   3780.3500000              0.0140340
    860.4740000              0.0690970
    242.1450000              0.2374520
     77.3349000              0.4830340
     26.2470000              0.3398560
SP   6   1.00
    491.7650000             -0.0022974              0.0039894
    116.9840000             -0.0307140              0.0303180
     37.4153000             -0.1125280              0.1298800
     13.7834000              0.0450160              0.3279510
      5.4521500              0.5893530              0.4535270
      2.2258800              0.4652060              0.2521540
SP   3   1.00
      3.1864900             -0.2518300             -0.0142990
      1.1442700              0.0615890              0.3235720
      0.4203770              1.0601800              0.7435070
SP   1   1.00
      0.1426570              1.0000000              1.0000000
D    1   1.00
      1.5000000              1.0000000
D    1   1.00
      0.3750000              1.0000000
F    1   1.00
      0.7000000              1.0000000
****
}

set {
reference uhf
freeze_core true
e_convergence 10
d_convergence 10
dft_spherical_points 1202
dft_radial_points 99
}

e = energy('b3lyp')

print_out('Grab this energy {0}'.format(e))
--------------------------------------------------------------------------

    Molecular point group: cs

    Geometry (in Bohr), charge = 0, multiplicity = 2:

       Center              X                  Y                   Z               Mass
    ------------   -----------------  -----------------  -----------------  -----------------
         C           -0.321549058606    -0.000208374959     0.000000000000    12.000000000000
         C            0.060534085894    -1.400666342859    -2.426342272000    12.000000000000
         C            0.062081688294     2.801495737241     0.000000000000    12.000000000000
         C            0.060534085894    -1.400666342859     2.426342272000    12.000000000000
         H            2.083605521894    -1.641012558959    -2.845375385000     1.007825032230
         H           -0.769460350706    -0.390482105959    -4.027773827200     1.007825032230
         H           -0.767956102806    -3.292429486659    -2.349504380100     1.007825032230
         H            2.088325919794     3.293977482841     0.000000000000     1.007825032230
         H           -0.766404255006     3.677205239341     1.675984117200     1.007825032230
         H           -0.766404255006     3.677205239341    -1.675984117200     1.007825032230
         H            2.083605521894    -1.641012558959     2.845375385000     1.007825032230
         H           -0.767956102806    -3.292429486659     2.349504380100     1.007825032230
         H           -0.769460350706    -0.390482105959     4.027773827200     1.007825032230

  Charge       = 0
  Multiplicity = 2
  Basis Set: ANONYMOUSFD8D506C
    Blend: 6-31G_2DFP_
  Basis Set: (ANONYMOUSFD8D506C AUX)
    Blend: DEF2-UNIVERSAL-JKFIT

    Orbital Energies [Eh]
    ---------------------

    Alpha Occupied:

       1Ap   -10.180229     1App  -10.167023     2Ap   -10.167003
       3Ap   -10.166948     4Ap    -0.797820     2App   -0.686229
       5Ap    -0.686170     6Ap    -0.530754     7Ap    -0.441360
       3App   -0.434613     8Ap    -0.434439     4App   -0.383072
       9Ap    -0.382621     5App   -0.363329     6App   -0.338102
      10Ap    -0.337797    11Ap    -0.168846

    Alpha Virtual:

      12Ap     0.076056    13Ap     0.134097     7App    0.134196
      14Ap     0.142342     8App    0.142751    15Ap     0.154945
      16Ap     0.178743     9App    0.179020    17Ap     0.203596
      10App    0.214670    18Ap     0.276104    11App    0.276144
      12App    0.399123    19Ap     0.399369    20Ap     0.403383
      13App    0.424001    21Ap     0.424206    22Ap     0.456599
      14App    0.495328    23Ap     0.495348    15App    0.512266
      24Ap     0.513978    16App    0.578599    25Ap     0.578843
      26Ap     0.591660    17App    0.592200    27Ap     0.602912
      28Ap     0.624621    18App    0.631610    29Ap     0.635899
      19App    0.636359    20App    0.663546    30Ap     0.663624
      21App    0.683715    31Ap     0.683941    32Ap     0.735122
      33Ap     0.825522    22App    0.825638    23App    0.853868
      34Ap     0.914873    24App    0.915508    25App    0.944213
      35Ap     0.944631    36Ap     0.961134    26App    0.961289
      37Ap     1.002571    27App    1.127464    38Ap     1.128277
      39Ap     1.142576    28App    1.163279    40Ap     1.163587
      41Ap     1.223743    29App    1.274679    42Ap     1.274859
      43Ap     1.279519    44Ap     1.324171    30App    1.324308
      45Ap     1.357007    31App    1.365699    46Ap     1.365729
      32App    1.392372    47Ap     1.404171    33App    1.405165
      48Ap     1.417398    34App    1.418022    35App    1.428111
      36App    1.491037    49Ap     1.499565    37App    1.542396
      50Ap     1.542471    51Ap     1.573868    38App    1.574894
      52Ap     1.669296    53Ap     1.739515    39App    1.739731
      54Ap     1.768539    40App    1.830646    55Ap     1.831505
      41App    1.971163    56Ap     2.018573    57Ap     2.019266
      42App    2.019430    58Ap     2.052554    43App    2.053481
      59Ap     2.738807    44App    2.738830    60Ap     2.791148
      45App    2.811152    46App    2.889970    61Ap     2.890256
      62Ap     2.894943    63Ap     2.929038    47App    2.929654
      48App    2.958826    49App    2.964240    64Ap     2.964581
      65Ap     3.034045    66Ap     3.071269    50App    3.072542
      51App    3.084290    52App    3.168576    67Ap     3.169030
      68Ap     3.180381    53App    3.284847    69Ap     3.285081
      54App    3.325367    70Ap     3.327107    71Ap     3.375914
      72Ap     3.489294    55App    3.491404    56App    3.514466
      73Ap     3.525176    57App    3.568583    74Ap     3.568894
      58App    3.575748    75Ap     3.665921    59App    3.666844
      76Ap     3.678635    77Ap     3.693747    60App    3.695061
      61App    3.777622    78Ap     3.777734    79Ap     3.790490
      62App    3.912000    80Ap     3.912252    81Ap     4.035621
      82Ap     4.110864    63App    4.111126    83Ap     4.147849
      64App    4.147927    84Ap     4.173377    85Ap     4.202721
      65App    4.203027    86Ap     4.204086    66App    4.210933
      87Ap     4.315965    67App    4.316370    68App    4.358859
      88Ap     4.424989    69App    4.425164    70App    4.442540
      89Ap     4.516031    71App    4.517367    72App    4.578158
      90Ap     4.578214    91Ap     4.618409    92Ap     4.709846
      93Ap     4.774268    73App    4.775434    74App    4.837144
      94Ap     4.962797    95Ap     5.003118    75App    5.004198
      96Ap     5.228149    97Ap     5.246243    76App    5.247343
      77App    5.355031    98Ap     5.355103    78App    5.479857

    Beta Occupied:

       1App  -10.167775     1Ap   -10.167761     2Ap   -10.167718
       3Ap   -10.166405     4Ap    -0.781130     2App   -0.684023
       5Ap    -0.683974     6Ap    -0.511720     3App   -0.430984
       7Ap    -0.430788     8Ap    -0.422065     4App   -0.377175
       9Ap    -0.376711     5App   -0.362311     6App   -0.333216
      10Ap    -0.332934

    Beta Virtual:

      11Ap    -0.025595    12Ap     0.077064    13Ap     0.134962
       7App    0.135048    14Ap     0.144245     8App    0.144608
      15Ap     0.163372    16Ap     0.182421     9App    0.182707
      10App    0.214903    17Ap     0.219000    18Ap     0.282435
      11App    0.282485    12App    0.400291    19Ap     0.400530
      20Ap     0.419771    13App    0.426814    21Ap     0.427022
      22Ap     0.468570    14App    0.497586    23Ap     0.497611
      15App    0.513996    24Ap     0.556369    16App    0.584153
      25Ap     0.584410    26Ap     0.597822    17App    0.598367
      27Ap     0.610303    28Ap     0.628030    18App    0.631776
      29Ap     0.639205    19App    0.639650    20App    0.667074
      30Ap     0.667169    21App    0.686368    31Ap     0.686562
      32Ap     0.757639    33Ap     0.830673    22App    0.830783
      23App    0.855219    34Ap     0.922868    24App    0.923448
      25App    0.946052    35Ap     0.953591    36Ap     0.966473
      26App    0.966598    37Ap     1.007763    27App    1.131641
      38Ap     1.132365    39Ap     1.155937    28App    1.168257
      40Ap     1.168639    41Ap     1.232722    29App    1.280272
      42Ap     1.280427    43Ap     1.285279    44Ap     1.329096
      30App    1.329245    45Ap     1.366421    31App    1.370921
      46Ap     1.371007    32App    1.393419    47Ap     1.407651
      33App    1.408653    48Ap     1.422465    34App    1.423065
      35App    1.428415    36App    1.492081    49Ap     1.510026
      37App    1.546608    50Ap     1.546876    51Ap     1.581753
      38App    1.582945    52Ap     1.674157    53Ap     1.745273
      39App    1.745481    54Ap     1.779311    40App    1.834513
      55Ap     1.835362    41App    1.972025    56Ap     2.025727
      42App    2.025850    57Ap     2.039921    58Ap     2.059236
      43App    2.060184    59Ap     2.747128    44App    2.747174
      45App    2.811564    60Ap     2.816335    46App    2.902620
      61Ap     2.902983    62Ap     2.924704    63Ap     2.931561
      47App    2.932147    48App    2.959893    49App    2.968765
      64Ap     2.969109    65Ap     3.041940    66Ap     3.081111
      50App    3.082470    51App    3.086102    52App    3.184405
      67Ap     3.184864    68Ap     3.187992    53App    3.289654
      69Ap     3.289959    54App    3.329164    70Ap     3.330886
      71Ap     3.383771    72Ap     3.492039    55App    3.494103
      56App    3.512829    73Ap     3.528259    57App    3.575351
      74Ap     3.581948    58App    3.582331    75Ap     3.670761
      59App    3.671645    76Ap     3.691939    77Ap     3.725606
      60App    3.726424    61App    3.782136    78Ap     3.782204
      79Ap     3.818993    62App    3.921809    80Ap     3.922071
      81Ap     4.046498    82Ap     4.117733    63App    4.117936
      83Ap     4.154958    64App    4.155200    84Ap     4.187408
      65App    4.208969    85Ap     4.209474    86Ap     4.211255
      66App    4.215370    87Ap     4.323446    67App    4.323796
      68App    4.362206    88Ap     4.433135    69App    4.433331
      70App    4.445451    89Ap     4.523830    71App    4.525147
      72App    4.588767    90Ap     4.588854    91Ap     4.625677
      92Ap     4.720098    93Ap     4.781216    73App    4.782440
      74App    4.840064    94Ap     4.967575    95Ap     5.007161
      75App    5.008210    96Ap     5.233896    97Ap     5.248039
      76App    5.249135    77App    5.361536    98Ap     5.361593
      78App    5.482179

    Final Occupation by Irrep:
             Ap   App
    DOCC [    10,    6 ]
    SOCC [     1,    0 ]

  @DF-UKS Final Energy:  -157.81306940378656

   => Energetics <=

    Nuclear Repulsion Energy =            125.4033591840645698
    One-Electron Energy =                -458.7664712823479931
    Two-Electron Energy =                 195.8574412863410714
    DFT Exchange-Correlation Energy =     -20.3073985918442084
    Empirical Dispersion Energy =           0.0000000000000000
    VV10 Nonlocal Energy =                  0.0000000000000000
    Total Energy =                       -157.8130694037865567

  UHF NO Occupations:
  HONO-2 :    9 Ap 1.9996018
  HONO-1 :   10 Ap 1.9989796
  HONO-0 :   11 Ap 1.0000000
  LUNO+0 :   12 Ap 0.0010204
  LUNO+1 :   13 Ap 0.0003982
  LUNO+2 :   14 Ap 0.0001976
  LUNO+3 :    7App 0.0001973

Computation Completed

Properties will be evaluated at   0.000000,   0.000000,   0.000000 [a0]

Properties computed using the SCF density matrix

  Nuclear Dipole Moment: [e a0]
     X:     0.8175      Y:     0.0003      Z:     0.0000

  Electronic Dipole Moment: [e a0]
     X:    -0.7395      Y:    -0.0010      Z:     0.0000

  Dipole Moment: [e a0]
     X:     0.0780      Y:    -0.0008      Z:     0.0000     Total:     0.0780

  Dipole Moment: [D]
     X:     0.1983      Y:    -0.0019      Z:     0.0000     Total:     0.1983

*** tstop() called on n070 at Fri Nov  5 13:36:24 2021
Module time:
	user time   =     573.49 seconds =       9.56 minutes
	system time =      12.85 seconds =       0.21 minutes
	total time  =        149 seconds =       2.48 minutes
Total time:
	user time   =     573.49 seconds =       9.56 minutes
	system time =      12.85 seconds =       0.21 minutes
	total time  =        149 seconds =       2.48 minutes
Grab this energy -157.81306940378656
    Psi4 stopped on: Friday, 05 November 2021 01:36PM
    Psi4 wall time for execution: 0:02:28.19

*** Psi4 exiting successfully. Buy a developer a beer!
