                               Psi4 1.4a2.dev629

  ==> Input File <==

--------------------------------------------------------------------------
import os
memory 14 GB

molecule {
 C   -0.3243569804    0.0000050028   -0.0049997899
 C    0.0595591390   -1.4070703860   -2.4308879852
 C    0.0599592300    2.8018992928    0.0062288707
 C    0.0606039720   -1.3948217966    2.4221307116
 H    2.0895755716   -1.6530968878   -2.8518801170
 H   -0.7658968747   -0.3993879204   -4.0310273040
 H   -0.7688179580   -3.2955935286   -2.3501577880
 H    2.0901063603    3.2884980520    0.0111481974
 H   -0.7693585029    3.6723979661    1.6835717278
 H   -0.7638518380    3.6875569147   -1.6646900533
 H    2.0909233914   -1.6355082637    2.8437123667
 H   -0.7642335427   -3.2840503379    2.3497243238
 H   -0.7668198445   -0.3808524211    4.0171268394
units bohr
0 2
}

basis {

assign 6-31g_2dfp_

[ 6-31g_2dfp_ ]

spherical

!----------------------------------------------------------------------
! Basis Set Exchange
! Version v0.8.13
! https://www.basissetexchange.org
!----------------------------------------------------------------------
!   Basis set: 6-31G(2df,p)
! Description: 6-31G(2df,p)
!        Role: orbital
!     Version: 0  (Data from the original Basis Set Exchange)
!----------------------------------------------------------------------

****
H     0
S    3   1.00
     18.7311370              0.03349460
      2.8253937              0.23472695
      0.6401217              0.81375733
S    1   1.00
      0.1612778              1.00000000
P    1   1.00
      1.5000000              1.0000000
P    1   1.00
      0.3750000              1.0000000
****
B     0
S    6   1.00
   2068.8823000              0.0018663
    310.6495700              0.0142515
     70.6830330              0.0695516
     19.8610800              0.2325729
      6.2993048              0.4670787
      2.1270270              0.3634314
SP   3   1.00
      4.7279710             -0.1303938              0.0745976
      1.1903377             -0.1307889              0.3078467
      0.3594117              1.1309444              0.7434568
SP   1   1.00
      0.1267512              1.0000000              1.0000000
D    1   1.00
      0.8020000              1.0000000
D    1   1.00
      0.2005000              1.0000000
F    1   1.00
      0.5000000              1.0000000
****
C     0
S    6   1.00
   3047.5249000              0.0018347
    457.3695100              0.0140373
    103.9486900              0.0688426
     29.2101550              0.2321844
      9.2866630              0.4679413
      3.1639270              0.3623120
SP   3   1.00
      7.8682724             -0.1193324              0.0689991
      1.8812885             -0.1608542              0.3164240
      0.5442493              1.1434564              0.7443083
SP   1   1.00
      0.1687144              1.0000000              1.0000000
D    1   1.00
      1.2520000              1.0000000
D    1   1.00
      0.3130000              1.0000000
F    1   1.00
      0.8000000              1.0000000
****
N     0
S    6   1.00
   4173.5110000              0.0018348
    627.4579000              0.0139950
    142.9021000              0.0685870
     40.2343300              0.2322410
     12.8202100              0.4690700
      4.3904370              0.3604550
SP   3   1.00
     11.6263580             -0.1149610              0.0675800
      2.7162800             -0.1691180              0.3239070
      0.7722180              1.1458520              0.7408950
SP   1   1.00
      0.2120313              1.0000000              1.0000000
D    1   1.00
      1.8260000              1.0000000
D    1   1.00
      0.4565000              1.0000000
F    1   1.00
      1.0000000              1.0000000
****
O     0
S    6   1.00
   5484.6717000              0.0018311
    825.2349500              0.0139501
    188.0469600              0.0684451
     52.9645000              0.2327143
     16.8975700              0.4701930
      5.7996353              0.3585209
SP   3   1.00
     15.5396160             -0.1107775              0.0708743
      3.5999336             -0.1480263              0.3397528
      1.0137618              1.1307670              0.7271586
SP   1   1.00
      0.2700058              1.0000000              1.0000000
D    1   1.00
      2.5840000              1.0000000
D    1   1.00
      0.6460000              1.0000000
F    1   1.00
      1.4000000              1.0000000
****
F     0
S    6   1.00
   7001.7130900              0.0018196169
   1051.3660900              0.0139160796
    239.2856900              0.0684053245
     67.3974453              0.233185760
     21.5199573              0.471267439
      7.40310130             0.356618546
SP   3   1.00
     20.8479528             -0.108506975            0.0716287243
      4.80830834            -0.146451658            0.3459121030
      1.34406986             1.128688580            0.7224699570
SP   1   1.00
      0.358151393            1.0000000              1.0000000
D    1   1.00
      3.5000000              1.0000000
D    1   1.00
      0.8750000              1.0000000
F    1   1.00
      1.8500000              1.0000000
****
Al     0
S    6   1.00
  13983.1000000              0.00194267
   2098.7500000              0.0148599
    477.7050000              0.0728494
    134.3600000              0.2468300
     42.8709000              0.4872580
     14.5189000              0.3234960
SP   6   1.00
    239.6680000             -0.00292619             0.00460285
     57.4419000             -0.0374080              0.0331990
     18.2859000             -0.1144870              0.1362820
      6.5991400              0.1156350              0.3304760
      2.4904900              0.6125950              0.4491460
      0.9445400              0.3937990              0.2657040
SP   3   1.00
      1.2779000             -0.2276060             -0.0175130
      0.3975900              0.00144583             0.2445330
      0.1600950              1.0927900              0.8049340
SP   1   1.00
      0.0556577              1.0000000              1.0000000
D    1   1.00
      0.6500000              1.0000000
D    1   1.00
      0.1625000              1.0000000
F    1   1.00
      0.2500000              1.0000000
****
Si     0
S    6   1.00
  16115.9000000              0.00195948
   2425.5800000              0.01492880
    553.8670000              0.07284780
    156.3400000              0.24613000
     50.0683000              0.48591400
     17.0178000              0.32500200
SP   6   1.00
    292.7180000             -0.00278094             0.00443826
     69.8731000             -0.03571460             0.03266790
     22.3363000             -0.11498500             0.13472100
      8.1503900              0.09356340             0.32867800
      3.1345800              0.60301700             0.44964000
      1.2254300              0.41895900             0.26137200
SP   3   1.00
      1.7273800             -0.24463000            -0.01779510
      0.5729220              0.00431572             0.25353900
      0.2221920              1.09818000             0.80066900
SP   1   1.00
      0.0778369              1.00000000             1.00000000
D    1   1.00
      0.9000000              1.0000000
D    1   1.00
      0.2250000              1.0000000
F    1   1.00
      0.3200000              1.0000000
****
P     0
S    6   1.00
  19413.3000000              0.0018516
   2909.4200000              0.0142062
    661.3640000              0.0699995
    185.7590000              0.2400790
     59.1943000              0.4847620
     20.0310000              0.3352000
SP   6   1.00
    339.4780000             -0.00278217             0.00456462
     81.0101000             -0.0360499              0.03369360
     25.8780000             -0.1166310              0.13975500
      9.4522100              0.0968328              0.33936200
      3.6656600              0.6144180              0.45092100
      1.4674600              0.4037980              0.23858600
SP   3   1.00
      2.1562300             -0.2529230             -0.01776530
      0.7489970              0.0328517              0.27405800
      0.2831450              1.0812500              0.78542100
SP   1   1.00
      0.0998317              1.0000000              1.00000000
D    1   1.00
      1.1000000              1.0000000
D    1   1.00
      0.2750000              1.0000000
F    1   1.00
      0.4500000              1.0000000
****
S     0
S    6   1.00
  21917.1000000              0.0018690
   3301.4900000              0.0142300
    754.1460000              0.0696960
    212.7110000              0.2384870
     67.9896000              0.4833070
     23.0515000              0.3380740
SP   6   1.00
    423.7350000             -0.0023767              0.0040610
    100.7100000             -0.0316930              0.0306810
     32.1599000             -0.1133170              0.1304520
     11.8079000              0.0560900              0.3272050
      4.6311000              0.5922550              0.4528510
      1.8702500              0.4550060              0.2560420
SP   3   1.00
      2.6158400             -0.2503740             -0.0145110
      0.9221670              0.0669570              0.3102630
      0.3412870              1.0545100              0.7544830
SP   1   1.00
      0.1171670              1.0000000              1.0000000
D    1   1.00
      1.3000000              1.0000000
D    1   1.00
      0.3250000              1.0000000
F    1   1.00
      0.5500000              1.0000000
****
Cl     0
S    6   1.00
  25180.1000000              0.0018330
   3780.3500000              0.0140340
    860.4740000              0.0690970
    242.1450000              0.2374520
     77.3349000              0.4830340
     26.2470000              0.3398560
SP   6   1.00
    491.7650000             -0.0022974              0.0039894
    116.9840000             -0.0307140              0.0303180
     37.4153000             -0.1125280              0.1298800
     13.7834000              0.0450160              0.3279510
      5.4521500              0.5893530              0.4535270
      2.2258800              0.4652060              0.2521540
SP   3   1.00
      3.1864900             -0.2518300             -0.0142990
      1.1442700              0.0615890              0.3235720
      0.4203770              1.0601800              0.7435070
SP   1   1.00
      0.1426570              1.0000000              1.0000000
D    1   1.00
      1.5000000              1.0000000
D    1   1.00
      0.3750000              1.0000000
F    1   1.00
      0.7000000              1.0000000
****
}

set {
reference uhf
freeze_core true
e_convergence 10
d_convergence 10
dft_spherical_points 1202
dft_radial_points 99
}

e = energy('b3lyp')

print_out('Grab this energy {0}'.format(e))
--------------------------------------------------------------------------

    Molecular point group: c1

    Geometry (in Bohr), charge = 0, multiplicity = 2:

       Center              X                  Y                   Z               Mass
    ------------   -----------------  -----------------  -----------------  -----------------
         C           -0.323549059717     0.000003099112    -0.003549805744    12.000000000000
         C            0.060367059683    -1.407072289688    -2.429438001044    12.000000000000
         C            0.060767150683     2.801897389112     0.007678854856    12.000000000000
         C            0.061411892683    -1.394823700288     2.423580695756    12.000000000000
         H            2.090383492283    -1.653098791488    -2.850430132844     1.007825032230
         H           -0.765088954017    -0.399389824088    -4.029577319844     1.007825032230
         H           -0.768010037317    -3.295595432288    -2.348707803844     1.007825032230
         H            2.090914280983     3.288496148312     0.012598181556     1.007825032230
         H           -0.768550582217     3.672396062412     1.685021711956     1.007825032230
         H           -0.763043917317     3.687555011012    -1.663240069144     1.007825032230
         H            2.091731312083    -1.635510167388     2.845162350856     1.007825032230
         H           -0.763425622017    -3.284052241588     2.351174307956     1.007825032230
         H           -0.766011923817    -0.380854324788     4.018576823556     1.007825032230

  Charge       = 0
  Multiplicity = 2
  Basis Set: ANONYMOUSAB887693
    Blend: 6-31G_2DFP_
  Basis Set: (ANONYMOUSAB887693 AUX)
    Blend: DEF2-UNIVERSAL-JKFIT

    Orbital Energies [Eh]
    ---------------------

    Alpha Occupied:

       1A    -10.180401     2A    -10.167290     3A    -10.167019
       4A    -10.166746     5A     -0.797732     6A     -0.686402
       7A     -0.685961     8A     -0.530770     9A     -0.441027
      10A     -0.434981    11A     -0.434451    12A     -0.382606
      13A     -0.382316    14A     -0.363789    15A     -0.338325
      16A     -0.337778    17A     -0.168999

    Alpha Virtual:

      18A      0.076157    19A      0.133910    20A      0.134384
      21A      0.142561    22A      0.142843    23A      0.154713
      24A      0.178383    25A      0.178827    26A      0.203502
      27A      0.215081    28A      0.275792    29A      0.276131
      30A      0.398933    31A      0.399220    32A      0.403325
      33A      0.424157    34A      0.424424    35A      0.456520
      36A      0.495164    37A      0.495966    38A      0.512054
      39A      0.513833    40A      0.578368    41A      0.578896
      42A      0.591363    43A      0.591383    44A      0.601822
      45A      0.625279    46A      0.632156    47A      0.636402
      48A      0.636842    49A      0.662708    50A      0.663147
      51A      0.683866    52A      0.684345    53A      0.735056
      54A      0.824548    55A      0.826186    56A      0.853636
      57A      0.914563    58A      0.915047    59A      0.944337
      60A      0.944654    61A      0.961046    62A      0.961557
      63A      1.003282    64A      1.127209    65A      1.129531
      66A      1.141495    67A      1.163047    68A      1.164018
      69A      1.223746    70A      1.273735    71A      1.274781
      72A      1.279190    73A      1.324054    74A      1.324222
      75A      1.356511    76A      1.365235    77A      1.366655
      78A      1.392377    79A      1.402248    80A      1.403872
      81A      1.417601    82A      1.418608    83A      1.427714
      84A      1.491425    85A      1.498138    86A      1.542122
      87A      1.542818    88A      1.572988    89A      1.576741
      90A      1.671083    91A      1.737503    92A      1.739612
      93A      1.766491    94A      1.832291    95A      1.833308
      96A      1.972740    97A      2.017496    98A      2.018207
      99A      2.020522   100A      2.048980   101A      2.053934
     102A      2.738543   103A      2.739065   104A      2.790530
     105A      2.811895   106A      2.889477   107A      2.889674
     108A      2.894602   109A      2.929521   110A      2.929880
     111A      2.958857   112A      2.963077   113A      2.964873
     114A      3.033322   115A      3.070240   116A      3.072245
     117A      3.085785   118A      3.167902   119A      3.169454
     120A      3.180514   121A      3.284500   122A      3.285926
     123A      3.326847   124A      3.328747   125A      3.375830
     126A      3.489412   127A      3.490386   128A      3.512825
     129A      3.526505   130A      3.566791   131A      3.569029
     132A      3.574559   133A      3.665900   134A      3.666127
     135A      3.680261   136A      3.693839   137A      3.694764
     138A      3.776356   139A      3.777986   140A      3.788517
     141A      3.911375   142A      3.914208   143A      4.034896
     144A      4.109954   145A      4.112708   146A      4.145855
     147A      4.149122   148A      4.171454   149A      4.202176
     150A      4.202736   151A      4.205515   152A      4.209809
     153A      4.315491   154A      4.315550   155A      4.360238
     156A      4.423526   157A      4.423818   158A      4.443785
     159A      4.515329   160A      4.517076   161A      4.577903
     162A      4.580024   163A      4.617397   164A      4.708926
     165A      4.773448   166A      4.776019   167A      4.838298
     168A      4.963170   169A      5.000662   170A      5.002643
     171A      5.225314   172A      5.249659   173A      5.249983
     174A      5.352848   175A      5.354255   176A      5.481291

    Beta Occupied:

       1A    -10.168048     2A    -10.167780     3A    -10.167512
       4A    -10.166583     5A     -0.781065     6A     -0.684221
       7A     -0.683772     8A     -0.511790     9A     -0.431385
      10A     -0.430839    11A     -0.421665    12A     -0.376676
      13A     -0.376366    14A     -0.362782    15A     -0.333448
      16A     -0.332894

    Beta Virtual:

      17A     -0.025873    18A      0.077183    19A      0.134860
      20A      0.135358    21A      0.144413    22A      0.144680
      23A      0.163192    24A      0.182016    25A      0.182479
      26A      0.215303    27A      0.218883    28A      0.282132
      29A      0.282495    30A      0.400159    31A      0.400394
      32A      0.419807    33A      0.426952    34A      0.427251
      35A      0.468331    36A      0.497431    37A      0.498241
      38A      0.513797    39A      0.556136    40A      0.583975
      41A      0.584445    42A      0.597521    43A      0.597565
      44A      0.609364    45A      0.628536    46A      0.632313
      47A      0.639631    48A      0.640107    49A      0.666274
      50A      0.666768    51A      0.686439    52A      0.687020
      53A      0.757574    54A      0.829727    55A      0.831386
      56A      0.854998    57A      0.922538    58A      0.923048
      59A      0.946189    60A      0.953616    61A      0.966266
      62A      0.966878    63A      1.008480    64A      1.131281
      65A      1.133590    66A      1.154946    67A      1.168066
      68A      1.169101    69A      1.232700    70A      1.279306
      71A      1.280360    72A      1.284887    73A      1.329073
      74A      1.329275    75A      1.365909    76A      1.370444
      77A      1.372068    78A      1.393455    79A      1.405689
      80A      1.407254    81A      1.422613    82A      1.423619
      83A      1.427994    84A      1.492450    85A      1.508589
      86A      1.546460    87A      1.547353    88A      1.580986
      89A      1.584455    90A      1.675980    91A      1.743264
      92A      1.745365    93A      1.777258    94A      1.836130
      95A      1.837182    96A      1.973589    97A      2.023702
      98A      2.026843    99A      2.039549   100A      2.055920
     101A      2.060683   102A      2.746842   103A      2.747455
     104A      2.812310   105A      2.815628   106A      2.902173
     107A      2.902303   108A      2.924108   109A      2.932096
     110A      2.932275   111A      2.959921   112A      2.967613
     113A      2.969348   114A      3.041472   115A      3.079989
     116A      3.082195   117A      3.087706   118A      3.183778
     119A      3.185094   120A      3.188181   121A      3.289400
     122A      3.290690   123A      3.330609   124A      3.332526
     125A      3.383621   126A      3.492106   127A      3.493065
     128A      3.511199   129A      3.529545   130A      3.573954
     131A      3.580526   132A      3.582772   133A      3.670537
     134A      3.670802   135A      3.693533   136A      3.725508
     137A      3.726339   138A      3.780844   139A      3.782511
     140A      3.817000   141A      3.921248   142A      3.924081
     143A      4.045846   144A      4.116778   145A      4.119519
     146A      4.153112   147A      4.156269   148A      4.185538
     149A      4.208224   150A      4.210600   151A      4.211562
     152A      4.214469   153A      4.322848   154A      4.322945
     155A      4.363555   156A      4.431735   157A      4.431995
     158A      4.446662   159A      4.523248   160A      4.524798
     161A      4.588384   162A      4.590664   163A      4.624498
     164A      4.719387   165A      4.780315   166A      4.782959
     167A      4.841205   168A      4.967975   169A      5.004729
     170A      5.006708   171A      5.230993   172A      5.251426
     173A      5.251759   174A      5.359282   175A      5.360725
     176A      5.483599

    Final Occupation by Irrep:
              A
    DOCC [    16 ]
    SOCC [     1 ]

  @DF-UKS Final Energy:  -157.81305178475137

   => Energetics <=

    Nuclear Repulsion Energy =            125.3895297755608738
    One-Electron Energy =                -458.7386472684165142
    Two-Electron Energy =                 195.8431053098855728
    DFT Exchange-Correlation Energy =     -20.3070396017813302
    Empirical Dispersion Energy =           0.0000000000000000
    VV10 Nonlocal Energy =                  0.0000000000000000
    Total Energy =                       -157.8130517847513659

  UHF NO Occupations:
  HONO-2 :   15  A 1.9995985
  HONO-1 :   16  A 1.9989796
  HONO-0 :   17  A 1.0000000
  LUNO+0 :   18  A 0.0010204
  LUNO+1 :   19  A 0.0004015
  LUNO+2 :   20  A 0.0001979
  LUNO+3 :   21  A 0.0001972

Computation Completed

Properties will be evaluated at   0.000000,   0.000000,   0.000000 [a0]

Properties computed using the SCF density matrix

  Nuclear Dipole Moment: [e a0]
     X:     0.8329      Y:    -0.0000      Z:     0.0102

  Electronic Dipole Moment: [e a0]
     X:    -0.7582      Y:     0.0000      Z:    -0.0110

  Dipole Moment: [e a0]
     X:     0.0747      Y:    -0.0000      Z:    -0.0007     Total:     0.0747

  Dipole Moment: [D]
     X:     0.1899      Y:    -0.0000      Z:    -0.0019     Total:     0.1899

*** tstop() called on n032 at Fri Nov  5 14:55:00 2021
Module time:
	user time   =     633.94 seconds =      10.57 minutes
	system time =      11.98 seconds =       0.20 minutes
	total time  =        162 seconds =       2.70 minutes
Total time:
	user time   =     633.94 seconds =      10.57 minutes
	system time =      11.98 seconds =       0.20 minutes
	total time  =        162 seconds =       2.70 minutes
Grab this energy -157.81305178475137
    Psi4 stopped on: Friday, 05 November 2021 02:55PM
    Psi4 wall time for execution: 0:02:42.38

*** Psi4 exiting successfully. Buy a developer a beer!
