                               Psi4 1.4a2.dev629

  ==> Input File <==

--------------------------------------------------------------------------
import os
memory 14 GB

molecule {
 C   -0.3233396275    0.0015122010    0.0000000000
 C    0.0607168696   -1.4020837540   -2.4254160815
 C    0.0618649641    2.8022222783   -0.0000000000
 C    0.0607168696   -1.4020837540    2.4254160815
 H    2.0890681084   -1.6434425375   -2.8474737994
 H   -0.7663363180   -0.3863194379   -4.0262454750
 H   -0.7665989702   -3.2941900327   -2.3485621855
 H    2.0825351086    3.2886929911    0.0000000000
 H   -0.7636838507    3.6798098700    1.6723652069
 H   -0.7636838507    3.6798098700   -1.6723652069
 H    2.0890681084   -1.6434425375    2.8474737994
 H   -0.7665989702   -3.2941900327    2.3485621855
 H   -0.7663363180   -0.3863194379    4.0262454750
units bohr
0 2
}

basis {

assign 6-31g_2dfp_

[ 6-31g_2dfp_ ]

spherical

!----------------------------------------------------------------------
! Basis Set Exchange
! Version v0.8.13
! https://www.basissetexchange.org
!----------------------------------------------------------------------
!   Basis set: 6-31G(2df,p)
! Description: 6-31G(2df,p)
!        Role: orbital
!     Version: 0  (Data from the original Basis Set Exchange)
!----------------------------------------------------------------------

****
H     0
S    3   1.00
     18.7311370              0.03349460
      2.8253937              0.23472695
      0.6401217              0.81375733
S    1   1.00
      0.1612778              1.00000000
P    1   1.00
      1.5000000              1.0000000
P    1   1.00
      0.3750000              1.0000000
****
B     0
S    6   1.00
   2068.8823000              0.0018663
    310.6495700              0.0142515
     70.6830330              0.0695516
     19.8610800              0.2325729
      6.2993048              0.4670787
      2.1270270              0.3634314
SP   3   1.00
      4.7279710             -0.1303938              0.0745976
      1.1903377             -0.1307889              0.3078467
      0.3594117              1.1309444              0.7434568
SP   1   1.00
      0.1267512              1.0000000              1.0000000
D    1   1.00
      0.8020000              1.0000000
D    1   1.00
      0.2005000              1.0000000
F    1   1.00
      0.5000000              1.0000000
****
C     0
S    6   1.00
   3047.5249000              0.0018347
    457.3695100              0.0140373
    103.9486900              0.0688426
     29.2101550              0.2321844
      9.2866630              0.4679413
      3.1639270              0.3623120
SP   3   1.00
      7.8682724             -0.1193324              0.0689991
      1.8812885             -0.1608542              0.3164240
      0.5442493              1.1434564              0.7443083
SP   1   1.00
      0.1687144              1.0000000              1.0000000
D    1   1.00
      1.2520000              1.0000000
D    1   1.00
      0.3130000              1.0000000
F    1   1.00
      0.8000000              1.0000000
****
N     0
S    6   1.00
   4173.5110000              0.0018348
    627.4579000              0.0139950
    142.9021000              0.0685870
     40.2343300              0.2322410
     12.8202100              0.4690700
      4.3904370              0.3604550
SP   3   1.00
     11.6263580             -0.1149610              0.0675800
      2.7162800             -0.1691180              0.3239070
      0.7722180              1.1458520              0.7408950
SP   1   1.00
      0.2120313              1.0000000              1.0000000
D    1   1.00
      1.8260000              1.0000000
D    1   1.00
      0.4565000              1.0000000
F    1   1.00
      1.0000000              1.0000000
****
O     0
S    6   1.00
   5484.6717000              0.0018311
    825.2349500              0.0139501
    188.0469600              0.0684451
     52.9645000              0.2327143
     16.8975700              0.4701930
      5.7996353              0.3585209
SP   3   1.00
     15.5396160             -0.1107775              0.0708743
      3.5999336             -0.1480263              0.3397528
      1.0137618              1.1307670              0.7271586
SP   1   1.00
      0.2700058              1.0000000              1.0000000
D    1   1.00
      2.5840000              1.0000000
D    1   1.00
      0.6460000              1.0000000
F    1   1.00
      1.4000000              1.0000000
****
F     0
S    6   1.00
   7001.7130900              0.0018196169
   1051.3660900              0.0139160796
    239.2856900              0.0684053245
     67.3974453              0.233185760
     21.5199573              0.471267439
      7.40310130             0.356618546
SP   3   1.00
     20.8479528             -0.108506975            0.0716287243
      4.80830834            -0.146451658            0.3459121030
      1.34406986             1.128688580            0.7224699570
SP   1   1.00
      0.358151393            1.0000000              1.0000000
D    1   1.00
      3.5000000              1.0000000
D    1   1.00
      0.8750000              1.0000000
F    1   1.00
      1.8500000              1.0000000
****
Al     0
S    6   1.00
  13983.1000000              0.00194267
   2098.7500000              0.0148599
    477.7050000              0.0728494
    134.3600000              0.2468300
     42.8709000              0.4872580
     14.5189000              0.3234960
SP   6   1.00
    239.6680000             -0.00292619             0.00460285
     57.4419000             -0.0374080              0.0331990
     18.2859000             -0.1144870              0.1362820
      6.5991400              0.1156350              0.3304760
      2.4904900              0.6125950              0.4491460
      0.9445400              0.3937990              0.2657040
SP   3   1.00
      1.2779000             -0.2276060             -0.0175130
      0.3975900              0.00144583             0.2445330
      0.1600950              1.0927900              0.8049340
SP   1   1.00
      0.0556577              1.0000000              1.0000000
D    1   1.00
      0.6500000              1.0000000
D    1   1.00
      0.1625000              1.0000000
F    1   1.00
      0.2500000              1.0000000
****
Si     0
S    6   1.00
  16115.9000000              0.00195948
   2425.5800000              0.01492880
    553.8670000              0.07284780
    156.3400000              0.24613000
     50.0683000              0.48591400
     17.0178000              0.32500200
SP   6   1.00
    292.7180000             -0.00278094             0.00443826
     69.8731000             -0.03571460             0.03266790
     22.3363000             -0.11498500             0.13472100
      8.1503900              0.09356340             0.32867800
      3.1345800              0.60301700             0.44964000
      1.2254300              0.41895900             0.26137200
SP   3   1.00
      1.7273800             -0.24463000            -0.01779510
      0.5729220              0.00431572             0.25353900
      0.2221920              1.09818000             0.80066900
SP   1   1.00
      0.0778369              1.00000000             1.00000000
D    1   1.00
      0.9000000              1.0000000
D    1   1.00
      0.2250000              1.0000000
F    1   1.00
      0.3200000              1.0000000
****
P     0
S    6   1.00
  19413.3000000              0.0018516
   2909.4200000              0.0142062
    661.3640000              0.0699995
    185.7590000              0.2400790
     59.1943000              0.4847620
     20.0310000              0.3352000
SP   6   1.00
    339.4780000             -0.00278217             0.00456462
     81.0101000             -0.0360499              0.03369360
     25.8780000             -0.1166310              0.13975500
      9.4522100              0.0968328              0.33936200
      3.6656600              0.6144180              0.45092100
      1.4674600              0.4037980              0.23858600
SP   3   1.00
      2.1562300             -0.2529230             -0.01776530
      0.7489970              0.0328517              0.27405800
      0.2831450              1.0812500              0.78542100
SP   1   1.00
      0.0998317              1.0000000              1.00000000
D    1   1.00
      1.1000000              1.0000000
D    1   1.00
      0.2750000              1.0000000
F    1   1.00
      0.4500000              1.0000000
****
S     0
S    6   1.00
  21917.1000000              0.0018690
   3301.4900000              0.0142300
    754.1460000              0.0696960
    212.7110000              0.2384870
     67.9896000              0.4833070
     23.0515000              0.3380740
SP   6   1.00
    423.7350000             -0.0023767              0.0040610
    100.7100000             -0.0316930              0.0306810
     32.1599000             -0.1133170              0.1304520
     11.8079000              0.0560900              0.3272050
      4.6311000              0.5922550              0.4528510
      1.8702500              0.4550060              0.2560420
SP   3   1.00
      2.6158400             -0.2503740             -0.0145110
      0.9221670              0.0669570              0.3102630
      0.3412870              1.0545100              0.7544830
SP   1   1.00
      0.1171670              1.0000000              1.0000000
D    1   1.00
      1.3000000              1.0000000
D    1   1.00
      0.3250000              1.0000000
F    1   1.00
      0.5500000              1.0000000
****
Cl     0
S    6   1.00
  25180.1000000              0.0018330
   3780.3500000              0.0140340
    860.4740000              0.0690970
    242.1450000              0.2374520
     77.3349000              0.4830340
     26.2470000              0.3398560
SP   6   1.00
    491.7650000             -0.0022974              0.0039894
    116.9840000             -0.0307140              0.0303180
     37.4153000             -0.1125280              0.1298800
     13.7834000              0.0450160              0.3279510
      5.4521500              0.5893530              0.4535270
      2.2258800              0.4652060              0.2521540
SP   3   1.00
      3.1864900             -0.2518300             -0.0142990
      1.1442700              0.0615890              0.3235720
      0.4203770              1.0601800              0.7435070
SP   1   1.00
      0.1426570              1.0000000              1.0000000
D    1   1.00
      1.5000000              1.0000000
D    1   1.00
      0.3750000              1.0000000
F    1   1.00
      0.7000000              1.0000000
****
}

set {
reference uhf
freeze_core true
e_convergence 10
d_convergence 10
dft_spherical_points 1202
dft_radial_points 99
}

e = energy('b3lyp')

print_out('Grab this energy {0}'.format(e))
--------------------------------------------------------------------------

    Molecular point group: cs

    Geometry (in Bohr), charge = 0, multiplicity = 2:

       Center              X                  Y                   Z               Mass
    ------------   -----------------  -----------------  -----------------  -----------------
         C           -0.323339446575     0.001596034812     0.000000000000    12.000000000000
         C            0.060717050525    -1.401999920188    -2.425416081500    12.000000000000
         C            0.061865145025     2.802306112112     0.000000000000    12.000000000000
         C            0.060717050525    -1.401999920188     2.425416081500    12.000000000000
         H            2.089068289325    -1.643358703688    -2.847473799400     1.007825032230
         H           -0.766336137075    -0.386235604088    -4.026245475000     1.007825032230
         H           -0.766598789275    -3.294106198888    -2.348562185500     1.007825032230
         H            2.082535289525     3.288776824912     0.000000000000     1.007825032230
         H           -0.763683669775     3.679893703812     1.672365206900     1.007825032230
         H           -0.763683669775     3.679893703812    -1.672365206900     1.007825032230
         H            2.089068289325    -1.643358703688     2.847473799400     1.007825032230
         H           -0.766598789275    -3.294106198888     2.348562185500     1.007825032230
         H           -0.766336137075    -0.386235604088     4.026245475000     1.007825032230

  Charge       = 0
  Multiplicity = 2
  Basis Set: ANONYMOUS86E02193
    Blend: 6-31G_2DFP_
  Basis Set: (ANONYMOUS86E02193 AUX)
    Blend: DEF2-UNIVERSAL-JKFIT

    Orbital Energies [Eh]
    ---------------------

    Alpha Occupied:

       1Ap   -10.180342     1App  -10.167350     2Ap   -10.167320
       3Ap   -10.166374     4Ap    -0.797767     5Ap    -0.686589
       2App   -0.685785     6Ap    -0.530776     7Ap    -0.441126
       3App   -0.434768     8Ap    -0.434575     9Ap    -0.382858
       4App   -0.382337     5App   -0.363614    10Ap    -0.338261
       6App   -0.337734    11Ap    -0.168961

    Alpha Virtual:

      12Ap     0.076071     7App    0.134115    13Ap     0.134186
      14Ap     0.142594     8App    0.142671    15Ap     0.154872
       9App    0.178505    16Ap     0.179058    17Ap     0.203547
      10App    0.214804    11App    0.275904    18Ap     0.276067
      12App    0.399042    19Ap     0.399414    20Ap     0.403342
      21Ap     0.423998    13App    0.424197    22Ap     0.456592
      14App    0.495356    23Ap     0.495425    15App    0.512161
      24Ap     0.513978    16App    0.578657    25Ap     0.578975
      17App    0.591315    26Ap     0.591921    27Ap     0.602598
      28Ap     0.624769    18App    0.631736    29Ap     0.635872
      19App    0.636667    20App    0.663139    30Ap     0.663688
      21App    0.683554    31Ap     0.684163    32Ap     0.734994
      33Ap     0.825006    22App    0.825798    23App    0.853919
      34Ap     0.914912    24App    0.915139    25App    0.944130
      35Ap     0.944611    36Ap     0.961116    26App    0.961476
      37Ap     1.003456    27App    1.127807    38Ap     1.128416
      39Ap     1.142214    40Ap     1.163154    28App    1.163381
      41Ap     1.223324    29App    1.274129    42Ap     1.274839
      43Ap     1.279357    44Ap     1.324067    30App    1.324651
      45Ap     1.355978    31App    1.366026    46Ap     1.366086
      32App    1.392414    33App    1.403440    47Ap     1.404666
      34App    1.416534    48Ap     1.417693    35App    1.427924
      36App    1.491495    49Ap     1.499089    37App    1.542713
      50Ap     1.542954    51Ap     1.573852    38App    1.575053
      52Ap     1.669790    39App    1.739393    53Ap     1.739468
      54Ap     1.768286    40App    1.829872    55Ap     1.832974
      41App    1.971719    56Ap     2.017623    57Ap     2.019172
      42App    2.019556    58Ap     2.052013    43App    2.053330
      59Ap     2.738087    44App    2.738886    60Ap     2.790923
      45App    2.811428    46App    2.889004    61Ap     2.890850
      62Ap     2.894983    47App    2.929436    63Ap     2.929557
      48App    2.959011    49App    2.964156    64Ap     2.964604
      65Ap     3.034026    50App    3.070910    66Ap     3.071654
      51App    3.084375    67Ap     3.168479    52App    3.169035
      68Ap     3.180636    53App    3.285168    69Ap     3.285465
      70Ap     3.327075    54App    3.327250    71Ap     3.375602
      72Ap     3.489389    55App    3.490945    56App    3.514011
      73Ap     3.525328    74Ap     3.568345    57App    3.568360
      58App    3.575231    59App    3.665455    75Ap     3.667297
      76Ap     3.679588    60App    3.693643    77Ap     3.694658
      61App    3.776238    78Ap     3.777380    79Ap     3.789125
      62App    3.911426    80Ap     3.913019    81Ap     4.034435
      63App    4.110820    82Ap     4.111783    83Ap     4.146343
      64App    4.149814    84Ap     4.173318    85Ap     4.201278
      65App    4.202315    86Ap     4.205148    66App    4.211161
      67App    4.314458    87Ap     4.317456    68App    4.358928
      88Ap     4.423680    69App    4.425229    70App    4.443460
      71App    4.516410    89Ap     4.517234    90Ap     4.578100
      72App    4.578471    91Ap     4.617527    92Ap     4.709509
      93Ap     4.774552    73App    4.774646    74App    4.836884
      94Ap     4.962853    75App    5.002661    95Ap     5.003277
      96Ap     5.227872    97Ap     5.243367    76App    5.250171
      77App    5.352483    98Ap     5.358727    78App    5.479445

    Beta Occupied:

       1App  -10.168105     1Ap   -10.168085     2Ap   -10.167137
       3Ap   -10.166515     4Ap    -0.781092     5Ap    -0.684388
       2App   -0.683591     6Ap    -0.511748     3App   -0.431156
       7Ap    -0.430928     8Ap    -0.421825     9Ap    -0.376959
       4App   -0.376407     5App   -0.362597    10Ap    -0.333391
       6App   -0.332851

    Beta Virtual:

      11Ap    -0.025742    12Ap     0.077080    13Ap     0.135032
       7App    0.135050    14Ap     0.144493     8App    0.144511
      15Ap     0.163331     9App    0.182174    16Ap     0.182733
      10App    0.215033    17Ap     0.218930    11App    0.282268
      18Ap     0.282399    12App    0.400208    19Ap     0.400588
      20Ap     0.419786    21Ap     0.426808    13App    0.427012
      22Ap     0.468500    14App    0.497613    23Ap     0.497688
      15App    0.513896    24Ap     0.556324    16App    0.584199
      25Ap     0.584532    17App    0.597507    26Ap     0.598096
      27Ap     0.610011    28Ap     0.628149    18App    0.631909
      29Ap     0.639176    19App    0.639917    20App    0.666685
      30Ap     0.667270    21App    0.686226    31Ap     0.686761
      32Ap     0.757517    33Ap     0.830152    22App    0.830989
      23App    0.855273    34Ap     0.922886    24App    0.923107
      25App    0.945967    35Ap     0.953538    36Ap     0.966442
      26App    0.966763    37Ap     1.008696    27App    1.131808
      38Ap     1.132471    39Ap     1.155592    40Ap     1.168204
      28App    1.168478    41Ap     1.232297    29App    1.279699
      42Ap     1.280463    43Ap     1.285112    44Ap     1.329019
      30App    1.329676    45Ap     1.365387    46Ap     1.371298
      31App    1.371308    32App    1.393479    33App    1.406869
      47Ap     1.408160    34App    1.421557    48Ap     1.422768
      35App    1.428195    36App    1.492544    49Ap     1.509532
      37App    1.547153    50Ap     1.547326    51Ap     1.581743
      38App    1.582908    52Ap     1.674636    39App    1.745138
      53Ap     1.745245    54Ap     1.779067    40App    1.833754
      55Ap     1.836803    41App    1.972580    56Ap     2.024945
      42App    2.025879    57Ap     2.039708    58Ap     2.058646
      43App    2.060124    59Ap     2.746403    44App    2.747242
      45App    2.811839    60Ap     2.816059    46App    2.901782
      61Ap     2.903475    62Ap     2.924647    47App    2.931837
      63Ap     2.932134    48App    2.960073    49App    2.968649
      64Ap     2.969202    65Ap     3.041960    50App    3.080727
      66Ap     3.081628    51App    3.086221    67Ap     3.184076
      52App    3.184846    68Ap     3.188409    53App    3.290023
      69Ap     3.290207    70Ap     3.330887    54App    3.331046
      71Ap     3.383421    72Ap     3.492166    55App    3.493627
      56App    3.512377    73Ap     3.528373    57App    3.574905
      74Ap     3.581698    58App    3.581872    59App    3.670055
      75Ap     3.672199    76Ap     3.692908    60App    3.725466
      77Ap     3.726067    61App    3.780734    78Ap     3.781937
      79Ap     3.817669    62App    3.921235    80Ap     3.922845
      81Ap     4.045318    63App    4.117834    82Ap     4.118382
      83Ap     4.153738    64App    4.156863    84Ap     4.187371
      65App    4.208184    85Ap     4.208310    86Ap     4.212090
      66App    4.215640    67App    4.321986    87Ap     4.324801
      68App    4.362293    88Ap     4.431957    69App    4.433373
      70App    4.446356    71App    4.524276    89Ap     4.524951
      90Ap     4.588725    72App    4.589047    91Ap     4.624719
      92Ap     4.719854    73App    4.781547    93Ap     4.781558
      74App    4.839800    94Ap     4.967649    75App    5.006718
      95Ap     5.007298    96Ap     5.233586    97Ap     5.245149
      76App    5.251964    77App    5.358958    98Ap     5.365209
      78App    5.481766

    Final Occupation by Irrep:
             Ap   App
    DOCC [    10,    6 ]
    SOCC [     1,    0 ]

  @DF-UKS Final Energy:  -157.81305706240951

   => Energetics <=

    Nuclear Repulsion Energy =            125.3946644192053697
    One-Electron Energy =                -458.7489601884625472
    Two-Electron Energy =                 195.8483856702692947
    DFT Exchange-Correlation Energy =     -20.3071469634216086
    Empirical Dispersion Energy =           0.0000000000000000
    VV10 Nonlocal Energy =                  0.0000000000000000
    Total Energy =                       -157.8130570624095128

  UHF NO Occupations:
  HONO-2 :    9 Ap 1.9996009
  HONO-1 :   10 Ap 1.9989805
  HONO-0 :   11 Ap 1.0000000
  LUNO+0 :   12 Ap 0.0010195
  LUNO+1 :   13 Ap 0.0003991
  LUNO+2 :    7App 0.0001980
  LUNO+3 :   14 Ap 0.0001971

Computation Completed

Properties will be evaluated at   0.000000,   0.000000,   0.000000 [a0]

Properties computed using the SCF density matrix

  Nuclear Dipole Moment: [e a0]
     X:     0.8272      Y:     0.0006      Z:     0.0000

  Electronic Dipole Moment: [e a0]
     X:    -0.7493      Y:     0.0019      Z:     0.0000

  Dipole Moment: [e a0]
     X:     0.0779      Y:     0.0025      Z:     0.0000     Total:     0.0780

  Dipole Moment: [D]
     X:     0.1980      Y:     0.0063      Z:     0.0000     Total:     0.1981

*** tstop() called on n080 at Fri Nov  5 11:51:53 2021
Module time:
	user time   =     498.84 seconds =       8.31 minutes
	system time =       4.64 seconds =       0.08 minutes
	total time  =        126 seconds =       2.10 minutes
Total time:
	user time   =     498.84 seconds =       8.31 minutes
	system time =       4.64 seconds =       0.08 minutes
	total time  =        126 seconds =       2.10 minutes
Grab this energy -157.8130570624095
    Psi4 stopped on: Friday, 05 November 2021 11:51AM
    Psi4 wall time for execution: 0:02:06.60

*** Psi4 exiting successfully. Buy a developer a beer!
