                               Psi4 1.4a2.dev629

  ==> Input File <==

--------------------------------------------------------------------------
import os
memory 14 GB

molecule {
 C   -0.3233391757    0.0002447040   -0.0004325980
 C    0.0619642570   -1.4003092844   -2.4265305664
 C    0.0599114649    2.8018832449   -0.0013877093
 C    0.0614285682   -1.4016058572    2.4259954176
 H    2.0877684916   -1.6455019253   -2.8501596212
 H   -0.7618456682   -0.3864545857   -4.0224927589
 H   -0.7668856756   -3.2931842606   -2.3481721439
 H    2.0835474590    3.2820140047   -0.0034916270
 H   -0.7704904565    3.6844960656    1.6789999218
 H   -0.7640786037    3.6826732190   -1.6742210903
 H    2.0893462596   -1.6485265926    2.8483972654
 H   -0.7642812378   -3.2894179999    2.3495982694
 H   -0.7656535595   -0.3863350461    4.0238972407
units bohr
0 2
}

basis {

assign 6-31g_2dfp_

[ 6-31g_2dfp_ ]

spherical

!----------------------------------------------------------------------
! Basis Set Exchange
! Version v0.8.13
! https://www.basissetexchange.org
!----------------------------------------------------------------------
!   Basis set: 6-31G(2df,p)
! Description: 6-31G(2df,p)
!        Role: orbital
!     Version: 0  (Data from the original Basis Set Exchange)
!----------------------------------------------------------------------

****
H     0
S    3   1.00
     18.7311370              0.03349460
      2.8253937              0.23472695
      0.6401217              0.81375733
S    1   1.00
      0.1612778              1.00000000
P    1   1.00
      1.5000000              1.0000000
P    1   1.00
      0.3750000              1.0000000
****
B     0
S    6   1.00
   2068.8823000              0.0018663
    310.6495700              0.0142515
     70.6830330              0.0695516
     19.8610800              0.2325729
      6.2993048              0.4670787
      2.1270270              0.3634314
SP   3   1.00
      4.7279710             -0.1303938              0.0745976
      1.1903377             -0.1307889              0.3078467
      0.3594117              1.1309444              0.7434568
SP   1   1.00
      0.1267512              1.0000000              1.0000000
D    1   1.00
      0.8020000              1.0000000
D    1   1.00
      0.2005000              1.0000000
F    1   1.00
      0.5000000              1.0000000
****
C     0
S    6   1.00
   3047.5249000              0.0018347
    457.3695100              0.0140373
    103.9486900              0.0688426
     29.2101550              0.2321844
      9.2866630              0.4679413
      3.1639270              0.3623120
SP   3   1.00
      7.8682724             -0.1193324              0.0689991
      1.8812885             -0.1608542              0.3164240
      0.5442493              1.1434564              0.7443083
SP   1   1.00
      0.1687144              1.0000000              1.0000000
D    1   1.00
      1.2520000              1.0000000
D    1   1.00
      0.3130000              1.0000000
F    1   1.00
      0.8000000              1.0000000
****
N     0
S    6   1.00
   4173.5110000              0.0018348
    627.4579000              0.0139950
    142.9021000              0.0685870
     40.2343300              0.2322410
     12.8202100              0.4690700
      4.3904370              0.3604550
SP   3   1.00
     11.6263580             -0.1149610              0.0675800
      2.7162800             -0.1691180              0.3239070
      0.7722180              1.1458520              0.7408950
SP   1   1.00
      0.2120313              1.0000000              1.0000000
D    1   1.00
      1.8260000              1.0000000
D    1   1.00
      0.4565000              1.0000000
F    1   1.00
      1.0000000              1.0000000
****
O     0
S    6   1.00
   5484.6717000              0.0018311
    825.2349500              0.0139501
    188.0469600              0.0684451
     52.9645000              0.2327143
     16.8975700              0.4701930
      5.7996353              0.3585209
SP   3   1.00
     15.5396160             -0.1107775              0.0708743
      3.5999336             -0.1480263              0.3397528
      1.0137618              1.1307670              0.7271586
SP   1   1.00
      0.2700058              1.0000000              1.0000000
D    1   1.00
      2.5840000              1.0000000
D    1   1.00
      0.6460000              1.0000000
F    1   1.00
      1.4000000              1.0000000
****
F     0
S    6   1.00
   7001.7130900              0.0018196169
   1051.3660900              0.0139160796
    239.2856900              0.0684053245
     67.3974453              0.233185760
     21.5199573              0.471267439
      7.40310130             0.356618546
SP   3   1.00
     20.8479528             -0.108506975            0.0716287243
      4.80830834            -0.146451658            0.3459121030
      1.34406986             1.128688580            0.7224699570
SP   1   1.00
      0.358151393            1.0000000              1.0000000
D    1   1.00
      3.5000000              1.0000000
D    1   1.00
      0.8750000              1.0000000
F    1   1.00
      1.8500000              1.0000000
****
Al     0
S    6   1.00
  13983.1000000              0.00194267
   2098.7500000              0.0148599
    477.7050000              0.0728494
    134.3600000              0.2468300
     42.8709000              0.4872580
     14.5189000              0.3234960
SP   6   1.00
    239.6680000             -0.00292619             0.00460285
     57.4419000             -0.0374080              0.0331990
     18.2859000             -0.1144870              0.1362820
      6.5991400              0.1156350              0.3304760
      2.4904900              0.6125950              0.4491460
      0.9445400              0.3937990              0.2657040
SP   3   1.00
      1.2779000             -0.2276060             -0.0175130
      0.3975900              0.00144583             0.2445330
      0.1600950              1.0927900              0.8049340
SP   1   1.00
      0.0556577              1.0000000              1.0000000
D    1   1.00
      0.6500000              1.0000000
D    1   1.00
      0.1625000              1.0000000
F    1   1.00
      0.2500000              1.0000000
****
Si     0
S    6   1.00
  16115.9000000              0.00195948
   2425.5800000              0.01492880
    553.8670000              0.07284780
    156.3400000              0.24613000
     50.0683000              0.48591400
     17.0178000              0.32500200
SP   6   1.00
    292.7180000             -0.00278094             0.00443826
     69.8731000             -0.03571460             0.03266790
     22.3363000             -0.11498500             0.13472100
      8.1503900              0.09356340             0.32867800
      3.1345800              0.60301700             0.44964000
      1.2254300              0.41895900             0.26137200
SP   3   1.00
      1.7273800             -0.24463000            -0.01779510
      0.5729220              0.00431572             0.25353900
      0.2221920              1.09818000             0.80066900
SP   1   1.00
      0.0778369              1.00000000             1.00000000
D    1   1.00
      0.9000000              1.0000000
D    1   1.00
      0.2250000              1.0000000
F    1   1.00
      0.3200000              1.0000000
****
P     0
S    6   1.00
  19413.3000000              0.0018516
   2909.4200000              0.0142062
    661.3640000              0.0699995
    185.7590000              0.2400790
     59.1943000              0.4847620
     20.0310000              0.3352000
SP   6   1.00
    339.4780000             -0.00278217             0.00456462
     81.0101000             -0.0360499              0.03369360
     25.8780000             -0.1166310              0.13975500
      9.4522100              0.0968328              0.33936200
      3.6656600              0.6144180              0.45092100
      1.4674600              0.4037980              0.23858600
SP   3   1.00
      2.1562300             -0.2529230             -0.01776530
      0.7489970              0.0328517              0.27405800
      0.2831450              1.0812500              0.78542100
SP   1   1.00
      0.0998317              1.0000000              1.00000000
D    1   1.00
      1.1000000              1.0000000
D    1   1.00
      0.2750000              1.0000000
F    1   1.00
      0.4500000              1.0000000
****
S     0
S    6   1.00
  21917.1000000              0.0018690
   3301.4900000              0.0142300
    754.1460000              0.0696960
    212.7110000              0.2384870
     67.9896000              0.4833070
     23.0515000              0.3380740
SP   6   1.00
    423.7350000             -0.0023767              0.0040610
    100.7100000             -0.0316930              0.0306810
     32.1599000             -0.1133170              0.1304520
     11.8079000              0.0560900              0.3272050
      4.6311000              0.5922550              0.4528510
      1.8702500              0.4550060              0.2560420
SP   3   1.00
      2.6158400             -0.2503740             -0.0145110
      0.9221670              0.0669570              0.3102630
      0.3412870              1.0545100              0.7544830
SP   1   1.00
      0.1171670              1.0000000              1.0000000
D    1   1.00
      1.3000000              1.0000000
D    1   1.00
      0.3250000              1.0000000
F    1   1.00
      0.5500000              1.0000000
****
Cl     0
S    6   1.00
  25180.1000000              0.0018330
   3780.3500000              0.0140340
    860.4740000              0.0690970
    242.1450000              0.2374520
     77.3349000              0.4830340
     26.2470000              0.3398560
SP   6   1.00
    491.7650000             -0.0022974              0.0039894
    116.9840000             -0.0307140              0.0303180
     37.4153000             -0.1125280              0.1298800
     13.7834000              0.0450160              0.3279510
      5.4521500              0.5893530              0.4535270
      2.2258800              0.4652060              0.2521540
SP   3   1.00
      3.1864900             -0.2518300             -0.0142990
      1.1442700              0.0615890              0.3235720
      0.4203770              1.0601800              0.7435070
SP   1   1.00
      0.1426570              1.0000000              1.0000000
D    1   1.00
      1.5000000              1.0000000
D    1   1.00
      0.3750000              1.0000000
F    1   1.00
      0.7000000              1.0000000
****
}

set {
reference uhf
freeze_core true
e_convergence 10
d_convergence 10
dft_spherical_points 1202
dft_radial_points 99
}

e = energy('b3lyp')

print_out('Grab this energy {0}'.format(e))
--------------------------------------------------------------------------

    Molecular point group: c1

    Geometry (in Bohr), charge = 0, multiplicity = 2:

       Center              X                  Y                   Z               Mass
    ------------   -----------------  -----------------  -----------------  -----------------
         C           -0.323340157851     0.000204145143     0.000021079812    12.000000000000
         C            0.061963274849    -1.400349843257    -2.426076888588    12.000000000000
         C            0.059910482749     2.801842686043    -0.000934031488    12.000000000000
         C            0.061427586049    -1.401646416057     2.426449095412    12.000000000000
         H            2.087767509449    -1.645542484157    -2.849705943388     1.007825032230
         H           -0.761846650351    -0.386495144557    -4.022039081088     1.007825032230
         H           -0.766886657751    -3.293224819457    -2.347718466088     1.007825032230
         H            2.083546476849     3.281973445843    -0.003037949188     1.007825032230
         H           -0.770491438651     3.684455506743     1.679453599612     1.007825032230
         H           -0.764079585851     3.682632660143    -1.673767412488     1.007825032230
         H            2.089345277449    -1.648567151457     2.848850943212     1.007825032230
         H           -0.764282219951    -3.289458558757     2.350051947212     1.007825032230
         H           -0.765654541651    -0.386375604957     4.024350918512     1.007825032230

  Charge       = 0
  Multiplicity = 2
  Basis Set: ANONYMOUSA8ED00F2
    Blend: 6-31G_2DFP_
  Basis Set: (ANONYMOUSA8ED00F2 AUX)
    Blend: DEF2-UNIVERSAL-JKFIT

    Orbital Energies [Eh]
    ---------------------

    Alpha Occupied:

       1A    -10.180343     2A    -10.167055     3A    -10.167014
       4A    -10.166976     5A     -0.797767     6A     -0.686256
       7A     -0.686121     8A     -0.530778     9A     -0.441127
      10A     -0.434876    11A     -0.434464    12A     -0.382825
      13A     -0.382372    14A     -0.363611    15A     -0.338221
      16A     -0.337775    17A     -0.168961

    Alpha Virtual:

      18A      0.076070    19A      0.134029    20A      0.134276
      21A      0.142335    22A      0.142918    23A      0.154883
      24A      0.178615    25A      0.178937    26A      0.203551
      27A      0.214803    28A      0.275874    29A      0.276098
      30A      0.398949    31A      0.399504    32A      0.403345
      33A      0.423906    34A      0.424289    35A      0.456595
      36A      0.495336    37A      0.495442    38A      0.512162
      39A      0.513981    40A      0.578665    41A      0.578957
      42A      0.591337    43A      0.591908    44A      0.602603
      45A      0.624716    46A      0.631740    47A      0.635965
      48A      0.636611    49A      0.663199    50A      0.663628
      51A      0.683634    52A      0.684087    53A      0.734993
      54A      0.825147    55A      0.825665    56A      0.853915
      57A      0.914641    58A      0.915407    59A      0.944107
      60A      0.944608    61A      0.961199    62A      0.961412
      63A      1.003454    64A      1.127614    65A      1.128610
      66A      1.142205    67A      1.163105    68A      1.163446
      69A      1.223323    70A      1.274221    71A      1.274741
      72A      1.279373    73A      1.324124    74A      1.324573
      75A      1.355972    76A      1.365759    77A      1.366361
      78A      1.392443    79A      1.403556    80A      1.404531
      81A      1.416299    82A      1.417910    83A      1.427917
      84A      1.491505    85A      1.499054    86A      1.542817
      87A      1.542870    88A      1.573924    89A      1.574989
      90A      1.669836    91A      1.738706    92A      1.740107
      93A      1.768336    94A      1.830498    95A      1.832285
      96A      1.971749    97A      2.017631    98A      2.018868
      99A      2.019892   100A      2.051960   101A      2.053341
     102A      2.738303   103A      2.738670   104A      2.790927
     105A      2.811429   106A      2.889701   107A      2.890175
     108A      2.894973   109A      2.929190   110A      2.929803
     111A      2.958955   112A      2.964220   113A      2.964583
     114A      3.034004   115A      3.070439   116A      3.072065
     117A      3.084442   118A      3.168309   119A      3.169257
     120A      3.180583   121A      3.285114   122A      3.285508
     123A      3.326212   124A      3.328122   125A      3.375627
     126A      3.489055   127A      3.491269   128A      3.514010
     129A      3.525334   130A      3.567874   131A      3.568758
     132A      3.575272   133A      3.665745   134A      3.667031
     135A      3.679653   136A      3.693436   137A      3.694818
     138A      3.776648   139A      3.776928   140A      3.789180
     141A      3.911634   142A      3.912823   143A      4.034437
     144A      4.110800   145A      4.111864   146A      4.147800
     147A      4.148344   148A      4.173345   149A      4.201869
     150A      4.202864   151A      4.204004   152A      4.210970
     153A      4.315289   154A      4.316644   155A      4.358977
     156A      4.423909   157A      4.425029   158A      4.443430
     159A      4.515614   160A      4.518035   161A      4.578264
     162A      4.578287   163A      4.617597   164A      4.709378
     165A      4.773496   166A      4.775740   167A      4.836918
     168A      4.962866   169A      5.002286   170A      5.003638
     171A      5.227601   172A      5.246695   173A      5.247345
     174A      5.354266   175A      5.356784   176A      5.479410

    Beta Occupied:

       1A    -10.167807     2A    -10.167770     3A    -10.167747
       4A    -10.166520     5A     -0.781092     6A     -0.684058
       7A     -0.683924     8A     -0.511749     9A     -0.431253
      10A     -0.430832    11A     -0.421822    12A     -0.376915
      13A     -0.376451    14A     -0.362595    15A     -0.333333
      16A     -0.332909

    Beta Virtual:

      17A     -0.025743    18A      0.077079    19A      0.134898
      20A      0.135189    21A      0.144201    22A      0.144794
      23A      0.163341    24A      0.182283    25A      0.182613
      26A      0.215033    27A      0.218932    28A      0.282222
      29A      0.282446    30A      0.400116    31A      0.400677
      32A      0.419791    33A      0.426716    34A      0.427101
      35A      0.468502    36A      0.497592    37A      0.497709
      38A      0.513897    39A      0.556325    40A      0.584212
      41A      0.584512    42A      0.597498    43A      0.598108
      44A      0.610020    45A      0.628096    46A      0.631910
      47A      0.639254    48A      0.639880    49A      0.666776
      50A      0.667179    51A      0.686296    52A      0.686694
      53A      0.757516    54A      0.830328    55A      0.830821
      56A      0.855268    57A      0.922644    58A      0.923347
      59A      0.945946    60A      0.953531    61A      0.966502
      62A      0.966723    63A      1.008694    64A      1.131681
      65A      1.132599    66A      1.155576    67A      1.168154
      68A      1.168549    69A      1.232295    70A      1.279809
      71A      1.280347    72A      1.285126    73A      1.329113
      74A      1.329562    75A      1.365373    76A      1.371075
      77A      1.371547    78A      1.393503    79A      1.407012
      80A      1.408003    81A      1.421388    82A      1.422907
      83A      1.428198    84A      1.492555    85A      1.509494
      86A      1.547154    87A      1.547359    88A      1.581707
      89A      1.582941    90A      1.674683    91A      1.744455
      92A      1.745887    93A      1.779112    94A      1.834352
      95A      1.836142    96A      1.972610    97A      2.024872
      98A      2.025995    99A      2.039684   100A      2.058675
     101A      2.060072   102A      2.746626   103A      2.747018
     104A      2.811841   105A      2.816062   106A      2.902366
     107A      2.902911   108A      2.924654   109A      2.931680
     110A      2.932275   111A      2.960036   112A      2.968747
     113A      2.969126   114A      3.041938   115A      3.080312
     116A      3.081855   117A      3.086418   118A      3.184092
     119A      3.184967   120A      3.188272   121A      3.289881
     122A      3.290340   123A      3.330012   124A      3.331930
     125A      3.383445   126A      3.491810   127A      3.493974
     128A      3.512375   129A      3.528380   130A      3.574864
     131A      3.581272   132A      3.582307   133A      3.670592
     134A      3.671683   135A      3.692949   136A      3.725348
     137A      3.726174   138A      3.781172   139A      3.781471
     140A      3.817704   141A      3.921383   142A      3.922705
     143A      4.045326   144A      4.117415   145A      4.118887
     146A      4.154771   147A      4.155805   148A      4.187379
     149A      4.208036   150A      4.209699   151A      4.210832
     152A      4.215459   153A      4.322780   154A      4.324039
     155A      4.362338   156A      4.432140   157A      4.433224
     158A      4.446316   159A      4.523401   160A      4.525829
     161A      4.588828   162A      4.588924   163A      4.624789
     164A      4.719720   165A      4.780457   166A      4.782687
     167A      4.839836   168A      4.967660   169A      5.006339
     170A      5.007664   171A      5.233204   172A      5.248595
     173A      5.249129   174A      5.360755   175A      5.363250
     176A      5.481732

    Final Occupation by Irrep:
              A
    DOCC [    16 ]
    SOCC [     1 ]

  @DF-UKS Final Energy:  -157.81305482171643

   => Energetics <=

    Nuclear Repulsion Energy =            125.3946507084878732
    One-Electron Energy =                -458.7489201292133885
    Two-Electron Energy =                 195.8483615193142384
    DFT Exchange-Correlation Energy =     -20.3071469203051542
    Empirical Dispersion Energy =           0.0000000000000000
    VV10 Nonlocal Energy =                  0.0000000000000000
    Total Energy =                       -157.8130548217164346

  UHF NO Occupations:
  HONO-2 :   15  A 1.9996009
  HONO-1 :   16  A 1.9989805
  HONO-0 :   17  A 1.0000000
  LUNO+0 :   18  A 0.0010195
  LUNO+1 :   19  A 0.0003991
  LUNO+2 :   20  A 0.0001977
  LUNO+3 :   21  A 0.0001974

Computation Completed

Properties will be evaluated at   0.000000,   0.000000,   0.000000 [a0]

Properties computed using the SCF density matrix

  Nuclear Dipole Moment: [e a0]
     X:     0.8272      Y:    -0.0003      Z:     0.0032

  Electronic Dipole Moment: [e a0]
     X:    -0.7493      Y:     0.0011      Z:    -0.0049

  Dipole Moment: [e a0]
     X:     0.0779      Y:     0.0008      Z:    -0.0017     Total:     0.0779

  Dipole Moment: [D]
     X:     0.1980      Y:     0.0019      Z:    -0.0044     Total:     0.1981

*** tstop() called on n079 at Fri Nov  5 14:34:08 2021
Module time:
	user time   =     497.75 seconds =       8.30 minutes
	system time =       4.77 seconds =       0.08 minutes
	total time  =        126 seconds =       2.10 minutes
Total time:
	user time   =     497.75 seconds =       8.30 minutes
	system time =       4.77 seconds =       0.08 minutes
	total time  =        126 seconds =       2.10 minutes
Grab this energy -157.81305482171643
    Psi4 stopped on: Friday, 05 November 2021 02:34PM
    Psi4 wall time for execution: 0:02:06.35

*** Psi4 exiting successfully. Buy a developer a beer!
