                               Psi4 1.4a2.dev629

  ==> Input File <==

--------------------------------------------------------------------------
import os
memory 14 GB

molecule {
 C   -0.3233267875    0.0060117973    0.0000000000
 C    0.0610658131   -1.4050172003   -2.4196249895
 C    0.0611702045    2.8092741930   -0.0000000000
 C    0.0610658131   -1.4050172003    2.4196249895
 H    2.0873636113   -1.6496053807   -2.8388979225
 H   -0.7622643806   -0.3963963664   -4.0236192110
 H   -0.7674467478   -3.2935638293   -2.3359334072
 H    2.0859420087    3.2973578687   -0.0000000000
 H   -0.7669149472    3.6882486904    1.6766015856
 H   -0.7669149472    3.6882486904   -1.6766015856
 H    2.0873636113   -1.6496053807    2.8388979225
 H   -0.7674467478   -3.2935638293    2.3359334072
 H   -0.7622643806   -0.3963963664    4.0236192110
units bohr
0 2
}

basis {

assign 6-31g_2dfp_

[ 6-31g_2dfp_ ]

spherical

!----------------------------------------------------------------------
! Basis Set Exchange
! Version v0.8.13
! https://www.basissetexchange.org
!----------------------------------------------------------------------
!   Basis set: 6-31G(2df,p)
! Description: 6-31G(2df,p)
!        Role: orbital
!     Version: 0  (Data from the original Basis Set Exchange)
!----------------------------------------------------------------------

****
H     0
S    3   1.00
     18.7311370              0.03349460
      2.8253937              0.23472695
      0.6401217              0.81375733
S    1   1.00
      0.1612778              1.00000000
P    1   1.00
      1.5000000              1.0000000
P    1   1.00
      0.3750000              1.0000000
****
B     0
S    6   1.00
   2068.8823000              0.0018663
    310.6495700              0.0142515
     70.6830330              0.0695516
     19.8610800              0.2325729
      6.2993048              0.4670787
      2.1270270              0.3634314
SP   3   1.00
      4.7279710             -0.1303938              0.0745976
      1.1903377             -0.1307889              0.3078467
      0.3594117              1.1309444              0.7434568
SP   1   1.00
      0.1267512              1.0000000              1.0000000
D    1   1.00
      0.8020000              1.0000000
D    1   1.00
      0.2005000              1.0000000
F    1   1.00
      0.5000000              1.0000000
****
C     0
S    6   1.00
   3047.5249000              0.0018347
    457.3695100              0.0140373
    103.9486900              0.0688426
     29.2101550              0.2321844
      9.2866630              0.4679413
      3.1639270              0.3623120
SP   3   1.00
      7.8682724             -0.1193324              0.0689991
      1.8812885             -0.1608542              0.3164240
      0.5442493              1.1434564              0.7443083
SP   1   1.00
      0.1687144              1.0000000              1.0000000
D    1   1.00
      1.2520000              1.0000000
D    1   1.00
      0.3130000              1.0000000
F    1   1.00
      0.8000000              1.0000000
****
N     0
S    6   1.00
   4173.5110000              0.0018348
    627.4579000              0.0139950
    142.9021000              0.0685870
     40.2343300              0.2322410
     12.8202100              0.4690700
      4.3904370              0.3604550
SP   3   1.00
     11.6263580             -0.1149610              0.0675800
      2.7162800             -0.1691180              0.3239070
      0.7722180              1.1458520              0.7408950
SP   1   1.00
      0.2120313              1.0000000              1.0000000
D    1   1.00
      1.8260000              1.0000000
D    1   1.00
      0.4565000              1.0000000
F    1   1.00
      1.0000000              1.0000000
****
O     0
S    6   1.00
   5484.6717000              0.0018311
    825.2349500              0.0139501
    188.0469600              0.0684451
     52.9645000              0.2327143
     16.8975700              0.4701930
      5.7996353              0.3585209
SP   3   1.00
     15.5396160             -0.1107775              0.0708743
      3.5999336             -0.1480263              0.3397528
      1.0137618              1.1307670              0.7271586
SP   1   1.00
      0.2700058              1.0000000              1.0000000
D    1   1.00
      2.5840000              1.0000000
D    1   1.00
      0.6460000              1.0000000
F    1   1.00
      1.4000000              1.0000000
****
F     0
S    6   1.00
   7001.7130900              0.0018196169
   1051.3660900              0.0139160796
    239.2856900              0.0684053245
     67.3974453              0.233185760
     21.5199573              0.471267439
      7.40310130             0.356618546
SP   3   1.00
     20.8479528             -0.108506975            0.0716287243
      4.80830834            -0.146451658            0.3459121030
      1.34406986             1.128688580            0.7224699570
SP   1   1.00
      0.358151393            1.0000000              1.0000000
D    1   1.00
      3.5000000              1.0000000
D    1   1.00
      0.8750000              1.0000000
F    1   1.00
      1.8500000              1.0000000
****
Al     0
S    6   1.00
  13983.1000000              0.00194267
   2098.7500000              0.0148599
    477.7050000              0.0728494
    134.3600000              0.2468300
     42.8709000              0.4872580
     14.5189000              0.3234960
SP   6   1.00
    239.6680000             -0.00292619             0.00460285
     57.4419000             -0.0374080              0.0331990
     18.2859000             -0.1144870              0.1362820
      6.5991400              0.1156350              0.3304760
      2.4904900              0.6125950              0.4491460
      0.9445400              0.3937990              0.2657040
SP   3   1.00
      1.2779000             -0.2276060             -0.0175130
      0.3975900              0.00144583             0.2445330
      0.1600950              1.0927900              0.8049340
SP   1   1.00
      0.0556577              1.0000000              1.0000000
D    1   1.00
      0.6500000              1.0000000
D    1   1.00
      0.1625000              1.0000000
F    1   1.00
      0.2500000              1.0000000
****
Si     0
S    6   1.00
  16115.9000000              0.00195948
   2425.5800000              0.01492880
    553.8670000              0.07284780
    156.3400000              0.24613000
     50.0683000              0.48591400
     17.0178000              0.32500200
SP   6   1.00
    292.7180000             -0.00278094             0.00443826
     69.8731000             -0.03571460             0.03266790
     22.3363000             -0.11498500             0.13472100
      8.1503900              0.09356340             0.32867800
      3.1345800              0.60301700             0.44964000
      1.2254300              0.41895900             0.26137200
SP   3   1.00
      1.7273800             -0.24463000            -0.01779510
      0.5729220              0.00431572             0.25353900
      0.2221920              1.09818000             0.80066900
SP   1   1.00
      0.0778369              1.00000000             1.00000000
D    1   1.00
      0.9000000              1.0000000
D    1   1.00
      0.2250000              1.0000000
F    1   1.00
      0.3200000              1.0000000
****
P     0
S    6   1.00
  19413.3000000              0.0018516
   2909.4200000              0.0142062
    661.3640000              0.0699995
    185.7590000              0.2400790
     59.1943000              0.4847620
     20.0310000              0.3352000
SP   6   1.00
    339.4780000             -0.00278217             0.00456462
     81.0101000             -0.0360499              0.03369360
     25.8780000             -0.1166310              0.13975500
      9.4522100              0.0968328              0.33936200
      3.6656600              0.6144180              0.45092100
      1.4674600              0.4037980              0.23858600
SP   3   1.00
      2.1562300             -0.2529230             -0.01776530
      0.7489970              0.0328517              0.27405800
      0.2831450              1.0812500              0.78542100
SP   1   1.00
      0.0998317              1.0000000              1.00000000
D    1   1.00
      1.1000000              1.0000000
D    1   1.00
      0.2750000              1.0000000
F    1   1.00
      0.4500000              1.0000000
****
S     0
S    6   1.00
  21917.1000000              0.0018690
   3301.4900000              0.0142300
    754.1460000              0.0696960
    212.7110000              0.2384870
     67.9896000              0.4833070
     23.0515000              0.3380740
SP   6   1.00
    423.7350000             -0.0023767              0.0040610
    100.7100000             -0.0316930              0.0306810
     32.1599000             -0.1133170              0.1304520
     11.8079000              0.0560900              0.3272050
      4.6311000              0.5922550              0.4528510
      1.8702500              0.4550060              0.2560420
SP   3   1.00
      2.6158400             -0.2503740             -0.0145110
      0.9221670              0.0669570              0.3102630
      0.3412870              1.0545100              0.7544830
SP   1   1.00
      0.1171670              1.0000000              1.0000000
D    1   1.00
      1.3000000              1.0000000
D    1   1.00
      0.3250000              1.0000000
F    1   1.00
      0.5500000              1.0000000
****
Cl     0
S    6   1.00
  25180.1000000              0.0018330
   3780.3500000              0.0140340
    860.4740000              0.0690970
    242.1450000              0.2374520
     77.3349000              0.4830340
     26.2470000              0.3398560
SP   6   1.00
    491.7650000             -0.0022974              0.0039894
    116.9840000             -0.0307140              0.0303180
     37.4153000             -0.1125280              0.1298800
     13.7834000              0.0450160              0.3279510
      5.4521500              0.5893530              0.4535270
      2.2258800              0.4652060              0.2521540
SP   3   1.00
      3.1864900             -0.2518300             -0.0142990
      1.1442700              0.0615890              0.3235720
      0.4203770              1.0601800              0.7435070
SP   1   1.00
      0.1426570              1.0000000              1.0000000
D    1   1.00
      1.5000000              1.0000000
D    1   1.00
      0.3750000              1.0000000
F    1   1.00
      0.7000000              1.0000000
****
}

set {
reference uhf
freeze_core true
e_convergence 10
d_convergence 10
dft_spherical_points 1202
dft_radial_points 99
}

e = energy('b3lyp')

print_out('Grab this energy {0}'.format(e))
--------------------------------------------------------------------------

    Molecular point group: cs

    Geometry (in Bohr), charge = 0, multiplicity = 2:

       Center              X                  Y                   Z               Mass
    ------------   -----------------  -----------------  -----------------  -----------------
         C           -0.323329682010     0.005000732660     0.000000000000    12.000000000000
         C            0.061062918590    -1.406028264940    -2.419624989500    12.000000000000
         C            0.061167309990     2.808263128360     0.000000000000    12.000000000000
         C            0.061062918590    -1.406028264940     2.419624989500    12.000000000000
         H            2.087360716790    -1.650616445340    -2.838897922500     1.007825032230
         H           -0.762267275110    -0.397407431040    -4.023619211000     1.007825032230
         H           -0.767449642310    -3.294574893940    -2.335933407200     1.007825032230
         H            2.085939114190     3.296346804060     0.000000000000     1.007825032230
         H           -0.766917841710     3.687237625760     1.676601585600     1.007825032230
         H           -0.766917841710     3.687237625760    -1.676601585600     1.007825032230
         H            2.087360716790    -1.650616445340     2.838897922500     1.007825032230
         H           -0.767449642310    -3.294574893940     2.335933407200     1.007825032230
         H           -0.762267275110    -0.397407431040     4.023619211000     1.007825032230

  Charge       = 0
  Multiplicity = 2
  Basis Set: ANONYMOUS1CC71F58
    Blend: 6-31G_2DFP_
  Basis Set: (ANONYMOUS1CC71F58 AUX)
    Blend: DEF2-UNIVERSAL-JKFIT

    Orbital Energies [Eh]
    ---------------------

    Alpha Occupied:

       1Ap   -10.180341     2Ap   -10.167359     1App  -10.166859
       3Ap   -10.166827     4Ap    -0.797769     5Ap    -0.686487
       2App   -0.685884     6Ap    -0.530777     7Ap    -0.441129
       8Ap    -0.434924     3App   -0.434414     9Ap    -0.382783
       4App   -0.382414     5App   -0.363612    10Ap    -0.338568
       6App   -0.337424    11Ap    -0.168961

    Alpha Virtual:

      12Ap     0.076072    13Ap     0.133952     7App    0.134359
      14Ap     0.142551     8App    0.142702    15Ap     0.154879
      16Ap     0.178504     9App    0.179051    17Ap     0.203546
      10App    0.214810    18Ap     0.275942    11App    0.276029
      19Ap     0.399135    12App    0.399264    20Ap     0.403404
      21Ap     0.423966    13App    0.424244    22Ap     0.456598
      23Ap     0.494949    14App    0.495820    15App    0.512173
      24Ap     0.513988    25Ap     0.578589    16App    0.579022
      26Ap     0.591634    17App    0.591644    27Ap     0.602574
      28Ap     0.624767    18App    0.631748    19App    0.636048
      29Ap     0.636465    30Ap     0.663283    20App    0.663542
      31Ap     0.683601    21App    0.684113    32Ap     0.734994
      33Ap     0.824577    22App    0.826224    23App    0.853913
      34Ap     0.914672    24App    0.915385    25App    0.944053
      35Ap     0.944512    26App    0.961063    36Ap     0.961729
      37Ap     1.003466    38Ap     1.126927    27App    1.129317
      39Ap     1.142211    40Ap     1.162755    28App    1.163778
      41Ap     1.223320    42Ap     1.274181    29App    1.274842
      43Ap     1.279336    30App    1.324203    44Ap     1.324503
      45Ap     1.355991    46Ap     1.365101    31App    1.366959
      32App    1.392477    47Ap     1.403524    33App    1.404650
      48Ap     1.416891    34App    1.417326    35App    1.427937
      36App    1.491442    49Ap     1.499070    50Ap     1.542634
      37App    1.543031    51Ap     1.572281    38App    1.576722
      52Ap     1.669796    53Ap     1.738388    39App    1.740365
      54Ap     1.768427    55Ap     1.830824    40App    1.831984
      41App    1.971707    56Ap     2.017032    57Ap     2.018431
      42App    2.020940    58Ap     2.049514    43App    2.055842
      59Ap     2.738265    44App    2.738703    60Ap     2.790920
      45App    2.811445    46App    2.889187    61Ap     2.890709
      62Ap     2.894942    63Ap     2.929489    47App    2.929511
      48App    2.958976    64Ap     2.963175    49App    2.965619
      65Ap     3.034019    66Ap     3.070428    50App    3.072115
      51App    3.084388    67Ap     3.167877    52App    3.169718
      68Ap     3.180550    53App    3.284379    69Ap     3.286220
      70Ap     3.326153    54App    3.328173    71Ap     3.375688
      72Ap     3.489684    55App    3.490515    56App    3.514049
      73Ap     3.525294    74Ap     3.567233    57App    3.569333
      58App    3.575490    59App    3.666333    75Ap     3.666414
      76Ap     3.679717    60App    3.693644    77Ap     3.694557
      61App    3.776023    78Ap     3.777517    79Ap     3.789282
      80Ap     3.911166    62App    3.913291    81Ap     4.034473
      82Ap     4.109796    63App    4.112962    83Ap     4.146642
      64App    4.149581    84Ap     4.173234    85Ap     4.201439
      86Ap     4.202671    65App    4.204609    66App    4.210981
      67App    4.315142    87Ap     4.316746    68App    4.358995
      88Ap     4.423752    69App    4.424880    70App    4.443721
      89Ap     4.516172    71App    4.517534    90Ap     4.577470
      72App    4.579045    91Ap     4.617535    92Ap     4.709442
      93Ap     4.773166    73App    4.776036    74App    4.836945
      94Ap     4.962868    95Ap     5.001697    75App    5.004207
      96Ap     5.228000    76App    5.246423    97Ap     5.247263
      98Ap     5.354820    77App    5.356179    78App    5.479318

    Beta Occupied:

       1Ap   -10.168116     1App  -10.167613     2Ap   -10.167597
       3Ap   -10.166518     4Ap    -0.781094     5Ap    -0.684291
       2App   -0.683686     6Ap    -0.511748     7Ap    -0.431303
       3App   -0.430784     8Ap    -0.421820     9Ap    -0.376885
       4App   -0.376483     5App   -0.362595    10Ap    -0.333694
       6App   -0.332545

    Beta Virtual:

      11Ap    -0.025743    12Ap     0.077081    13Ap     0.134844
       7App    0.135247    14Ap     0.144410     8App    0.144584
      15Ap     0.163339    16Ap     0.182178     9App    0.182720
      10App    0.215039    17Ap     0.218928    18Ap     0.282264
      11App    0.282403    19Ap     0.400382    12App    0.400410
      20Ap     0.419787    21Ap     0.426766    13App    0.427070
      22Ap     0.468510    23Ap     0.497212    14App    0.498081
      15App    0.513909    24Ap     0.556329    25Ap     0.584169
      16App    0.584544    26Ap     0.597808    17App    0.597827
      27Ap     0.609998    28Ap     0.628142    18App    0.631915
      19App    0.639309    29Ap     0.639765    30Ap     0.666824
      20App    0.667127    31Ap     0.686183    21App    0.686803
      32Ap     0.757516    33Ap     0.829739    22App    0.831398
      23App    0.855267    34Ap     0.922628    24App    0.923370
      25App    0.945913    35Ap     0.953430    26App    0.966304
      36Ap     0.967091    37Ap     1.008705    38Ap     1.130979
      27App    1.133326    39Ap     1.155585    40Ap     1.167784
      28App    1.168895    41Ap     1.232290    42Ap     1.279803
      29App    1.280416    43Ap     1.285089    30App    1.329167
      44Ap     1.329519    45Ap     1.365408    46Ap     1.370216
      31App    1.372321    32App    1.393539    47Ap     1.407032
      33App    1.408075    48Ap     1.421919    34App    1.422387
      35App    1.428219    36App    1.492493    49Ap     1.509513
      50Ap     1.546943    37App    1.547528    51Ap     1.580318
      38App    1.584437    52Ap     1.674644    53Ap     1.744159
      39App    1.746124    54Ap     1.779198    55Ap     1.834663
      40App    1.835854    41App    1.972572    56Ap     2.023528
      42App    2.027385    57Ap     2.039662    58Ap     2.056300
      43App    2.062486    59Ap     2.746550    44App    2.747090
      45App    2.811857    60Ap     2.816054    46App    2.901920
      61Ap     2.903348    62Ap     2.924637    47App    2.931871
      63Ap     2.932112    48App    2.960047    64Ap     2.967762
      49App    2.970110    65Ap     3.041954    66Ap     3.080237
      50App    3.081961    51App    3.086379    67Ap     3.183723
      52App    3.185366    68Ap     3.188225    53App    3.289275
      69Ap     3.290927    70Ap     3.329938    54App    3.332000
      71Ap     3.383504    72Ap     3.492438    55App    3.493208
      56App    3.512431    73Ap     3.528351    57App    3.574733
      74Ap     3.580609    58App    3.583245    59App    3.671002
      75Ap     3.671244    76Ap     3.693006    60App    3.725512
      77Ap     3.725943    61App    3.780470    78Ap     3.782201
      79Ap     3.817749    80Ap     3.921006    62App    3.923088
      81Ap     4.045360    82Ap     4.116618    63App    4.119768
      83Ap     4.153873    64App    4.156772    84Ap     4.187293
      85Ap     4.207366    65App    4.210521    86Ap     4.210639
      66App    4.215492    67App    4.322532    87Ap     4.324238
      68App    4.362357    88Ap     4.431996    69App    4.432954
      70App    4.446718    89Ap     4.524045    71App    4.525233
      90Ap     4.587970    72App    4.589749    91Ap     4.624727
      92Ap     4.719788    93Ap     4.780103    73App    4.783005
      74App    4.839864    94Ap     4.967661    95Ap     5.005737
      75App    5.008246    96Ap     5.233708    76App    5.248210
      97Ap     5.249053    98Ap     5.361302    77App    5.362658
      78App    5.481639

    Final Occupation by Irrep:
             Ap   App
    DOCC [    10,    6 ]
    SOCC [     1,    0 ]

  @DF-UKS Final Energy:  -157.81306178950132

   => Energetics <=

    Nuclear Repulsion Energy =            125.3948998273682349
    One-Electron Energy =                -458.7494482183050195
    Two-Electron Energy =                 195.8486314003338293
    DFT Exchange-Correlation Energy =     -20.3071447988983849
    Empirical Dispersion Energy =           0.0000000000000000
    VV10 Nonlocal Energy =                  0.0000000000000000
    Total Energy =                       -157.8130617895013188

  UHF NO Occupations:
  HONO-2 :    9 Ap 1.9996009
  HONO-1 :   10 Ap 1.9989804
  HONO-0 :   11 Ap 1.0000000
  LUNO+0 :   12 Ap 0.0010196
  LUNO+1 :   13 Ap 0.0003991
  LUNO+2 :    7App 0.0001983
  LUNO+3 :   14 Ap 0.0001968

Computation Completed

Properties will be evaluated at   0.000000,   0.000000,   0.000000 [a0]

Properties computed using the SCF density matrix

  Nuclear Dipole Moment: [e a0]
     X:     0.8272      Y:    -0.0071      Z:     0.0000

  Electronic Dipole Moment: [e a0]
     X:    -0.7493      Y:     0.0079      Z:     0.0000

  Dipole Moment: [e a0]
     X:     0.0779      Y:     0.0008      Z:     0.0000     Total:     0.0779

  Dipole Moment: [D]
     X:     0.1980      Y:     0.0021      Z:     0.0000     Total:     0.1981

*** tstop() called on n067 at Fri Nov  5 11:58:07 2021
Module time:
	user time   =     543.66 seconds =       9.06 minutes
	system time =      12.47 seconds =       0.21 minutes
	total time  =        140 seconds =       2.33 minutes
Total time:
	user time   =     543.66 seconds =       9.06 minutes
	system time =      12.47 seconds =       0.21 minutes
	total time  =        140 seconds =       2.33 minutes
Grab this energy -157.81306178950132
    Psi4 stopped on: Friday, 05 November 2021 11:58AM
    Psi4 wall time for execution: 0:02:19.88

*** Psi4 exiting successfully. Buy a developer a beer!
