                               Psi4 1.4a2.dev629

  ==> Input File <==

--------------------------------------------------------------------------
import os
memory 14 GB

molecule {
 C   -0.3233416160   -0.0004992216   -0.0004980738
 C    0.0592577403   -1.4010651785   -2.4264259485
 C    0.0623958788    2.8016623769   -0.0003851877
 C    0.0616439967   -1.4013141387    2.4260867766
 H    2.0925698147   -1.6438155780   -2.8468207288
 H   -0.7684514239   -0.3919415730   -4.0236058433
 H   -0.7677362105   -3.2881527243   -2.3510877297
 H    2.0826750067    3.2885863956   -0.0001849906
 H   -0.7649346789    3.6806671606    1.6799295709
 H   -0.7625385664    3.6797386344   -1.6793259179
 H    2.0854289037   -1.6444025916    2.8474688366
 H   -0.7632332565   -3.2923070679    2.3480559190
 H   -0.7663434652   -0.3871808077    4.0267933172
units bohr
0 2
}

basis {

assign 6-31g_2dfp_

[ 6-31g_2dfp_ ]

spherical

!----------------------------------------------------------------------
! Basis Set Exchange
! Version v0.8.13
! https://www.basissetexchange.org
!----------------------------------------------------------------------
!   Basis set: 6-31G(2df,p)
! Description: 6-31G(2df,p)
!        Role: orbital
!     Version: 0  (Data from the original Basis Set Exchange)
!----------------------------------------------------------------------

****
H     0
S    3   1.00
     18.7311370              0.03349460
      2.8253937              0.23472695
      0.6401217              0.81375733
S    1   1.00
      0.1612778              1.00000000
P    1   1.00
      1.5000000              1.0000000
P    1   1.00
      0.3750000              1.0000000
****
B     0
S    6   1.00
   2068.8823000              0.0018663
    310.6495700              0.0142515
     70.6830330              0.0695516
     19.8610800              0.2325729
      6.2993048              0.4670787
      2.1270270              0.3634314
SP   3   1.00
      4.7279710             -0.1303938              0.0745976
      1.1903377             -0.1307889              0.3078467
      0.3594117              1.1309444              0.7434568
SP   1   1.00
      0.1267512              1.0000000              1.0000000
D    1   1.00
      0.8020000              1.0000000
D    1   1.00
      0.2005000              1.0000000
F    1   1.00
      0.5000000              1.0000000
****
C     0
S    6   1.00
   3047.5249000              0.0018347
    457.3695100              0.0140373
    103.9486900              0.0688426
     29.2101550              0.2321844
      9.2866630              0.4679413
      3.1639270              0.3623120
SP   3   1.00
      7.8682724             -0.1193324              0.0689991
      1.8812885             -0.1608542              0.3164240
      0.5442493              1.1434564              0.7443083
SP   1   1.00
      0.1687144              1.0000000              1.0000000
D    1   1.00
      1.2520000              1.0000000
D    1   1.00
      0.3130000              1.0000000
F    1   1.00
      0.8000000              1.0000000
****
N     0
S    6   1.00
   4173.5110000              0.0018348
    627.4579000              0.0139950
    142.9021000              0.0685870
     40.2343300              0.2322410
     12.8202100              0.4690700
      4.3904370              0.3604550
SP   3   1.00
     11.6263580             -0.1149610              0.0675800
      2.7162800             -0.1691180              0.3239070
      0.7722180              1.1458520              0.7408950
SP   1   1.00
      0.2120313              1.0000000              1.0000000
D    1   1.00
      1.8260000              1.0000000
D    1   1.00
      0.4565000              1.0000000
F    1   1.00
      1.0000000              1.0000000
****
O     0
S    6   1.00
   5484.6717000              0.0018311
    825.2349500              0.0139501
    188.0469600              0.0684451
     52.9645000              0.2327143
     16.8975700              0.4701930
      5.7996353              0.3585209
SP   3   1.00
     15.5396160             -0.1107775              0.0708743
      3.5999336             -0.1480263              0.3397528
      1.0137618              1.1307670              0.7271586
SP   1   1.00
      0.2700058              1.0000000              1.0000000
D    1   1.00
      2.5840000              1.0000000
D    1   1.00
      0.6460000              1.0000000
F    1   1.00
      1.4000000              1.0000000
****
F     0
S    6   1.00
   7001.7130900              0.0018196169
   1051.3660900              0.0139160796
    239.2856900              0.0684053245
     67.3974453              0.233185760
     21.5199573              0.471267439
      7.40310130             0.356618546
SP   3   1.00
     20.8479528             -0.108506975            0.0716287243
      4.80830834            -0.146451658            0.3459121030
      1.34406986             1.128688580            0.7224699570
SP   1   1.00
      0.358151393            1.0000000              1.0000000
D    1   1.00
      3.5000000              1.0000000
D    1   1.00
      0.8750000              1.0000000
F    1   1.00
      1.8500000              1.0000000
****
Al     0
S    6   1.00
  13983.1000000              0.00194267
   2098.7500000              0.0148599
    477.7050000              0.0728494
    134.3600000              0.2468300
     42.8709000              0.4872580
     14.5189000              0.3234960
SP   6   1.00
    239.6680000             -0.00292619             0.00460285
     57.4419000             -0.0374080              0.0331990
     18.2859000             -0.1144870              0.1362820
      6.5991400              0.1156350              0.3304760
      2.4904900              0.6125950              0.4491460
      0.9445400              0.3937990              0.2657040
SP   3   1.00
      1.2779000             -0.2276060             -0.0175130
      0.3975900              0.00144583             0.2445330
      0.1600950              1.0927900              0.8049340
SP   1   1.00
      0.0556577              1.0000000              1.0000000
D    1   1.00
      0.6500000              1.0000000
D    1   1.00
      0.1625000              1.0000000
F    1   1.00
      0.2500000              1.0000000
****
Si     0
S    6   1.00
  16115.9000000              0.00195948
   2425.5800000              0.01492880
    553.8670000              0.07284780
    156.3400000              0.24613000
     50.0683000              0.48591400
     17.0178000              0.32500200
SP   6   1.00
    292.7180000             -0.00278094             0.00443826
     69.8731000             -0.03571460             0.03266790
     22.3363000             -0.11498500             0.13472100
      8.1503900              0.09356340             0.32867800
      3.1345800              0.60301700             0.44964000
      1.2254300              0.41895900             0.26137200
SP   3   1.00
      1.7273800             -0.24463000            -0.01779510
      0.5729220              0.00431572             0.25353900
      0.2221920              1.09818000             0.80066900
SP   1   1.00
      0.0778369              1.00000000             1.00000000
D    1   1.00
      0.9000000              1.0000000
D    1   1.00
      0.2250000              1.0000000
F    1   1.00
      0.3200000              1.0000000
****
P     0
S    6   1.00
  19413.3000000              0.0018516
   2909.4200000              0.0142062
    661.3640000              0.0699995
    185.7590000              0.2400790
     59.1943000              0.4847620
     20.0310000              0.3352000
SP   6   1.00
    339.4780000             -0.00278217             0.00456462
     81.0101000             -0.0360499              0.03369360
     25.8780000             -0.1166310              0.13975500
      9.4522100              0.0968328              0.33936200
      3.6656600              0.6144180              0.45092100
      1.4674600              0.4037980              0.23858600
SP   3   1.00
      2.1562300             -0.2529230             -0.01776530
      0.7489970              0.0328517              0.27405800
      0.2831450              1.0812500              0.78542100
SP   1   1.00
      0.0998317              1.0000000              1.00000000
D    1   1.00
      1.1000000              1.0000000
D    1   1.00
      0.2750000              1.0000000
F    1   1.00
      0.4500000              1.0000000
****
S     0
S    6   1.00
  21917.1000000              0.0018690
   3301.4900000              0.0142300
    754.1460000              0.0696960
    212.7110000              0.2384870
     67.9896000              0.4833070
     23.0515000              0.3380740
SP   6   1.00
    423.7350000             -0.0023767              0.0040610
    100.7100000             -0.0316930              0.0306810
     32.1599000             -0.1133170              0.1304520
     11.8079000              0.0560900              0.3272050
      4.6311000              0.5922550              0.4528510
      1.8702500              0.4550060              0.2560420
SP   3   1.00
      2.6158400             -0.2503740             -0.0145110
      0.9221670              0.0669570              0.3102630
      0.3412870              1.0545100              0.7544830
SP   1   1.00
      0.1171670              1.0000000              1.0000000
D    1   1.00
      1.3000000              1.0000000
D    1   1.00
      0.3250000              1.0000000
F    1   1.00
      0.5500000              1.0000000
****
Cl     0
S    6   1.00
  25180.1000000              0.0018330
   3780.3500000              0.0140340
    860.4740000              0.0690970
    242.1450000              0.2374520
     77.3349000              0.4830340
     26.2470000              0.3398560
SP   6   1.00
    491.7650000             -0.0022974              0.0039894
    116.9840000             -0.0307140              0.0303180
     37.4153000             -0.1125280              0.1298800
     13.7834000              0.0450160              0.3279510
      5.4521500              0.5893530              0.4535270
      2.2258800              0.4652060              0.2521540
SP   3   1.00
      3.1864900             -0.2518300             -0.0142990
      1.1442700              0.0615890              0.3235720
      0.4203770              1.0601800              0.7435070
SP   1   1.00
      0.1426570              1.0000000              1.0000000
D    1   1.00
      1.5000000              1.0000000
D    1   1.00
      0.3750000              1.0000000
F    1   1.00
      0.7000000              1.0000000
****
}

set {
reference uhf
freeze_core true
e_convergence 10
d_convergence 10
dft_spherical_points 1202
dft_radial_points 99
}

e = energy('b3lyp')

print_out('Grab this energy {0}'.format(e))
--------------------------------------------------------------------------

    Molecular point group: c1

    Geometry (in Bohr), charge = 0, multiplicity = 2:

       Center              X                  Y                   Z               Mass
    ------------   -----------------  -----------------  -----------------  -----------------
         C           -0.323340842617    -0.000264550693    -0.000262624322    12.000000000000
         C            0.059258513683    -1.400830507593    -2.426190499022    12.000000000000
         C            0.062396652183     2.801897047807    -0.000149738222    12.000000000000
         C            0.061644770083    -1.401079467793     2.426322226078    12.000000000000
         H            2.092570588083    -1.643580907093    -2.846585279322     1.007825032230
         H           -0.768450650517    -0.391706902093    -4.023370393822     1.007825032230
         H           -0.767735437117    -3.287918053393    -2.350852280222     1.007825032230
         H            2.082675780083     3.288821066507     0.000050458878     1.007825032230
         H           -0.764933905517     3.680901831507     1.680165020378     1.007825032230
         H           -0.762537793017     3.679973305307    -1.679090468422     1.007825032230
         H            2.085429677083    -1.644167920693     2.847704286078     1.007825032230
         H           -0.763232483117    -3.292072396993     2.348291368478     1.007825032230
         H           -0.766342691817    -0.386946136793     4.027028766678     1.007825032230

  Charge       = 0
  Multiplicity = 2
  Basis Set: ANONYMOUS52CFD026
    Blend: 6-31G_2DFP_
  Basis Set: (ANONYMOUS52CFD026 AUX)
    Blend: DEF2-UNIVERSAL-JKFIT

    Orbital Energies [Eh]
    ---------------------

    Alpha Occupied:

       1A    -10.180342     2A    -10.167056     3A    -10.167014
       4A    -10.166974     5A     -0.797766     6A     -0.686190
       7A     -0.686188     8A     -0.530779     9A     -0.441129
      10A     -0.434702    11A     -0.434637    12A     -0.382632
      13A     -0.382563    14A     -0.363611    15A     -0.338045
      16A     -0.337953    17A     -0.168961

    Alpha Virtual:

      18A      0.076070    19A      0.133916    20A      0.134390
      21A      0.142537    22A      0.142712    23A      0.154882
      24A      0.178660    25A      0.178900    26A      0.203549
      27A      0.214803    28A      0.275879    29A      0.276093
      30A      0.399179    31A      0.399277    32A      0.403343
      33A      0.423978    34A      0.424217    35A      0.456591
      36A      0.495184    37A      0.495590    38A      0.512161
      39A      0.513983    40A      0.578571    41A      0.579057
      42A      0.591406    43A      0.591845    44A      0.602591
      45A      0.624762    46A      0.631737    47A      0.636102
      48A      0.636428    49A      0.662904    50A      0.663945
      51A      0.683607    52A      0.684106    53A      0.734996
      54A      0.825369    55A      0.825428    56A      0.853927
      57A      0.914719    58A      0.915330    59A      0.944125
      60A      0.944608    61A      0.961112    62A      0.961487
      63A      1.003451    64A      1.128041    65A      1.128174
      66A      1.142204    67A      1.163110    68A      1.163443
      69A      1.223327    70A      1.274254    71A      1.274694
      72A      1.279386    73A      1.324295    74A      1.324417
      75A      1.355927    76A      1.366009    77A      1.366083
      78A      1.392452    79A      1.403425    80A      1.404703
      81A      1.416371    82A      1.417874    83A      1.427912
      84A      1.491486    85A      1.499074    86A      1.542203
      87A      1.543493    88A      1.574221    89A      1.574667
      90A      1.669814    91A      1.739134    92A      1.739623
      93A      1.768389    94A      1.830261    95A      1.832536
      96A      1.971700    97A      2.017821    98A      2.018867
      99A      2.019715   100A      2.051344   101A      2.053993
     102A      2.737906   103A      2.739065   104A      2.790925
     105A      2.811423   106A      2.889902   107A      2.889951
     108A      2.894994   109A      2.929484   110A      2.929510
     111A      2.959001   112A      2.963917   113A      2.964835
     114A      3.034025   115A      3.071245   116A      3.071303
     117A      3.084380   118A      3.168474   119A      3.169084
     120A      3.180616   121A      3.284856   122A      3.285776
     123A      3.326869   124A      3.327446   125A      3.375634
     126A      3.489934   127A      3.490372   128A      3.514015
     129A      3.525323   130A      3.568227   131A      3.568557
     132A      3.575166   133A      3.665369   134A      3.667406
     135A      3.679641   136A      3.693918   137A      3.694355
     138A      3.776774   139A      3.776829   140A      3.789135
     141A      3.912079   142A      3.912382   143A      4.034421
     144A      4.110702   145A      4.111988   146A      4.147249
     147A      4.148889   148A      4.173218   149A      4.201644
     150A      4.202392   151A      4.204696   152A      4.210980
     153A      4.314840   154A      4.317199   155A      4.358984
     156A      4.424023   157A      4.424930   158A      4.443423
     159A      4.515876   160A      4.517834   161A      4.578107
     162A      4.578406   163A      4.617583   164A      4.709454
     165A      4.773962   166A      4.775233   167A      4.836894
     168A      4.962872   169A      5.001878   170A      5.004005
     171A      5.227973   172A      5.243889   173A      5.249708
     174A      5.353895   175A      5.357244   176A      5.479405

    Beta Occupied:

       1A    -10.167814     2A    -10.167767     3A    -10.167742
       4A    -10.166520     5A     -0.781092     6A     -0.683998
       7A     -0.683985     8A     -0.511751     9A     -0.431065
      10A     -0.431025    11A     -0.421817    12A     -0.376748
      13A     -0.376617    14A     -0.362595    15A     -0.333158
      16A     -0.333087

    Beta Virtual:

      17A     -0.025744    18A      0.077079    19A      0.134823
      20A      0.135265    21A      0.144444    22A      0.144546
      23A      0.163337    24A      0.182306    25A      0.182597
      26A      0.215033    27A      0.218931    28A      0.282223
      29A      0.282445    30A      0.400350    31A      0.400444
      32A      0.419789    33A      0.426790    34A      0.427028
      35A      0.468499    36A      0.497434    37A      0.497864
      38A      0.513896    39A      0.556326    40A      0.584143
      41A      0.584586    42A      0.597558    43A      0.598057
      44A      0.610008    45A      0.628139    46A      0.631910
      47A      0.639384    48A      0.639698    49A      0.666514
      50A      0.667466    51A      0.686268    52A      0.686715
      53A      0.757519    54A      0.830533    55A      0.830600
      56A      0.855282    57A      0.922709    58A      0.923281
      59A      0.945963    60A      0.953537    61A      0.966377
      62A      0.966832    63A      1.008692    64A      1.132117
      65A      1.132154    66A      1.155576    67A      1.168141
      68A      1.168567    69A      1.232299    70A      1.279831
      71A      1.280307    72A      1.285144    73A      1.329288
      74A      1.329403    75A      1.365333    76A      1.371259
      77A      1.371324    78A      1.393512    79A      1.406836
      80A      1.408227    81A      1.421397    82A      1.422951
      83A      1.428181    84A      1.492534    85A      1.509517
      86A      1.546630    87A      1.547877    88A      1.582115
      89A      1.582521    90A      1.674660    91A      1.744909
      92A      1.745385    93A      1.779155    94A      1.834106
      95A      1.836404    96A      1.972563    97A      2.024766
      98A      2.026127    99A      2.039669   100A      2.058134
     101A      2.060648   102A      2.746255   103A      2.747388
     104A      2.811835   105A      2.816061   106A      2.902556
     107A      2.902719   108A      2.924651   109A      2.931923
     110A      2.932031   111A      2.960063   112A      2.968452
     113A      2.969400   114A      3.041956   115A      3.081018
     116A      3.081307   117A      3.086241   118A      3.184070
     119A      3.184957   120A      3.188328   121A      3.289640
     122A      3.290588   123A      3.330641   124A      3.331286
     125A      3.383450   126A      3.492719   127A      3.493050
     128A      3.512382   129A      3.528369   130A      3.574983
     131A      3.581539   132A      3.581963   133A      3.670054
     134A      3.672225   135A      3.692939   136A      3.725533
     137A      3.725989   138A      3.781265   139A      3.781402
     140A      3.817671   141A      3.921864   142A      3.922230
     143A      4.045307   144A      4.117545   145A      4.118773
     146A      4.154535   147A      4.156036   148A      4.187259
     149A      4.207690   150A      4.209442   151A      4.211466
     152A      4.215451   153A      4.322275   154A      4.324638
     155A      4.362346   156A      4.432236   157A      4.433147
     158A      4.446304   159A      4.523663   160A      4.525628
     161A      4.588690   162A      4.589022   163A      4.624779
     164A      4.719798   165A      4.780915   166A      4.782187
     167A      4.839811   168A      4.967668   169A      5.005945
     170A      5.008019   171A      5.233684   172A      5.245692
     173A      5.251477   174A      5.360360   175A      5.363738
     176A      5.481726

    Final Occupation by Irrep:
              A
    DOCC [    16 ]
    SOCC [     1 ]

  @DF-UKS Final Energy:  -157.81305242170083

   => Energetics <=

    Nuclear Repulsion Energy =            125.3946638358546153
    One-Electron Energy =                -458.7489394241318905
    Two-Electron Energy =                 195.8483717527570604
    DFT Exchange-Correlation Energy =     -20.3071485861805954
    Empirical Dispersion Energy =           0.0000000000000000
    VV10 Nonlocal Energy =                  0.0000000000000000
    Total Energy =                       -157.8130524217008315

  UHF NO Occupations:
  HONO-2 :   15  A 1.9996008
  HONO-1 :   16  A 1.9989804
  HONO-0 :   17  A 1.0000000
  LUNO+0 :   18  A 0.0010196
  LUNO+1 :   19  A 0.0003992
  LUNO+2 :   20  A 0.0001976
  LUNO+3 :   21  A 0.0001975

Computation Completed

Properties will be evaluated at   0.000000,   0.000000,   0.000000 [a0]

Properties computed using the SCF density matrix

  Nuclear Dipole Moment: [e a0]
     X:     0.8272      Y:     0.0016      Z:     0.0017

  Electronic Dipole Moment: [e a0]
     X:    -0.7493      Y:    -0.0023      Z:    -0.0023

  Dipole Moment: [e a0]
     X:     0.0779      Y:    -0.0006      Z:    -0.0006     Total:     0.0779

  Dipole Moment: [D]
     X:     0.1980      Y:    -0.0016      Z:    -0.0016     Total:     0.1980

*** tstop() called on n082 at Fri Nov  5 14:03:00 2021
Module time:
	user time   =     464.31 seconds =       7.74 minutes
	system time =       4.21 seconds =       0.07 minutes
	total time  =        118 seconds =       1.97 minutes
Total time:
	user time   =     464.31 seconds =       7.74 minutes
	system time =       4.21 seconds =       0.07 minutes
	total time  =        118 seconds =       1.97 minutes
Grab this energy -157.81305242170083
    Psi4 stopped on: Friday, 05 November 2021 02:03PM
    Psi4 wall time for execution: 0:01:57.85

*** Psi4 exiting successfully. Buy a developer a beer!
