                               Psi4 1.4a2.dev629

  ==> Input File <==

--------------------------------------------------------------------------
import os
memory 14 GB

molecule {
 C   -0.3233367839   -0.0000024242    0.0049114221
 C    0.0615374188   -1.4006809557   -2.4263303607
 C    0.0610222535    2.8017546858   -0.0002819731
 C    0.0607450937   -1.4010666465    2.4264343068
 H    2.0859424214   -1.6424149412   -2.8490249139
 H   -0.7631284253   -0.3888230723   -4.0257861461
 H   -0.7673375433   -3.2934136906   -2.3488780779
 H    2.0867965893    3.2880981968   -0.0044956352
 H   -0.7696904192    3.6802898949    1.6781567327
 H   -0.7616067604    3.6801969227   -1.6748409188
 H    2.0879327396   -1.6457784785    2.8458587624
 H   -0.7638046627   -3.2905749636    2.3490993706
 H   -0.7676797981   -0.3876088411    4.0251774311
units bohr
0 2
}

basis {

assign 6-31g_2dfp_

[ 6-31g_2dfp_ ]

spherical

!----------------------------------------------------------------------
! Basis Set Exchange
! Version v0.8.13
! https://www.basissetexchange.org
!----------------------------------------------------------------------
!   Basis set: 6-31G(2df,p)
! Description: 6-31G(2df,p)
!        Role: orbital
!     Version: 0  (Data from the original Basis Set Exchange)
!----------------------------------------------------------------------

****
H     0
S    3   1.00
     18.7311370              0.03349460
      2.8253937              0.23472695
      0.6401217              0.81375733
S    1   1.00
      0.1612778              1.00000000
P    1   1.00
      1.5000000              1.0000000
P    1   1.00
      0.3750000              1.0000000
****
B     0
S    6   1.00
   2068.8823000              0.0018663
    310.6495700              0.0142515
     70.6830330              0.0695516
     19.8610800              0.2325729
      6.2993048              0.4670787
      2.1270270              0.3634314
SP   3   1.00
      4.7279710             -0.1303938              0.0745976
      1.1903377             -0.1307889              0.3078467
      0.3594117              1.1309444              0.7434568
SP   1   1.00
      0.1267512              1.0000000              1.0000000
D    1   1.00
      0.8020000              1.0000000
D    1   1.00
      0.2005000              1.0000000
F    1   1.00
      0.5000000              1.0000000
****
C     0
S    6   1.00
   3047.5249000              0.0018347
    457.3695100              0.0140373
    103.9486900              0.0688426
     29.2101550              0.2321844
      9.2866630              0.4679413
      3.1639270              0.3623120
SP   3   1.00
      7.8682724             -0.1193324              0.0689991
      1.8812885             -0.1608542              0.3164240
      0.5442493              1.1434564              0.7443083
SP   1   1.00
      0.1687144              1.0000000              1.0000000
D    1   1.00
      1.2520000              1.0000000
D    1   1.00
      0.3130000              1.0000000
F    1   1.00
      0.8000000              1.0000000
****
N     0
S    6   1.00
   4173.5110000              0.0018348
    627.4579000              0.0139950
    142.9021000              0.0685870
     40.2343300              0.2322410
     12.8202100              0.4690700
      4.3904370              0.3604550
SP   3   1.00
     11.6263580             -0.1149610              0.0675800
      2.7162800             -0.1691180              0.3239070
      0.7722180              1.1458520              0.7408950
SP   1   1.00
      0.2120313              1.0000000              1.0000000
D    1   1.00
      1.8260000              1.0000000
D    1   1.00
      0.4565000              1.0000000
F    1   1.00
      1.0000000              1.0000000
****
O     0
S    6   1.00
   5484.6717000              0.0018311
    825.2349500              0.0139501
    188.0469600              0.0684451
     52.9645000              0.2327143
     16.8975700              0.4701930
      5.7996353              0.3585209
SP   3   1.00
     15.5396160             -0.1107775              0.0708743
      3.5999336             -0.1480263              0.3397528
      1.0137618              1.1307670              0.7271586
SP   1   1.00
      0.2700058              1.0000000              1.0000000
D    1   1.00
      2.5840000              1.0000000
D    1   1.00
      0.6460000              1.0000000
F    1   1.00
      1.4000000              1.0000000
****
F     0
S    6   1.00
   7001.7130900              0.0018196169
   1051.3660900              0.0139160796
    239.2856900              0.0684053245
     67.3974453              0.233185760
     21.5199573              0.471267439
      7.40310130             0.356618546
SP   3   1.00
     20.8479528             -0.108506975            0.0716287243
      4.80830834            -0.146451658            0.3459121030
      1.34406986             1.128688580            0.7224699570
SP   1   1.00
      0.358151393            1.0000000              1.0000000
D    1   1.00
      3.5000000              1.0000000
D    1   1.00
      0.8750000              1.0000000
F    1   1.00
      1.8500000              1.0000000
****
Al     0
S    6   1.00
  13983.1000000              0.00194267
   2098.7500000              0.0148599
    477.7050000              0.0728494
    134.3600000              0.2468300
     42.8709000              0.4872580
     14.5189000              0.3234960
SP   6   1.00
    239.6680000             -0.00292619             0.00460285
     57.4419000             -0.0374080              0.0331990
     18.2859000             -0.1144870              0.1362820
      6.5991400              0.1156350              0.3304760
      2.4904900              0.6125950              0.4491460
      0.9445400              0.3937990              0.2657040
SP   3   1.00
      1.2779000             -0.2276060             -0.0175130
      0.3975900              0.00144583             0.2445330
      0.1600950              1.0927900              0.8049340
SP   1   1.00
      0.0556577              1.0000000              1.0000000
D    1   1.00
      0.6500000              1.0000000
D    1   1.00
      0.1625000              1.0000000
F    1   1.00
      0.2500000              1.0000000
****
Si     0
S    6   1.00
  16115.9000000              0.00195948
   2425.5800000              0.01492880
    553.8670000              0.07284780
    156.3400000              0.24613000
     50.0683000              0.48591400
     17.0178000              0.32500200
SP   6   1.00
    292.7180000             -0.00278094             0.00443826
     69.8731000             -0.03571460             0.03266790
     22.3363000             -0.11498500             0.13472100
      8.1503900              0.09356340             0.32867800
      3.1345800              0.60301700             0.44964000
      1.2254300              0.41895900             0.26137200
SP   3   1.00
      1.7273800             -0.24463000            -0.01779510
      0.5729220              0.00431572             0.25353900
      0.2221920              1.09818000             0.80066900
SP   1   1.00
      0.0778369              1.00000000             1.00000000
D    1   1.00
      0.9000000              1.0000000
D    1   1.00
      0.2250000              1.0000000
F    1   1.00
      0.3200000              1.0000000
****
P     0
S    6   1.00
  19413.3000000              0.0018516
   2909.4200000              0.0142062
    661.3640000              0.0699995
    185.7590000              0.2400790
     59.1943000              0.4847620
     20.0310000              0.3352000
SP   6   1.00
    339.4780000             -0.00278217             0.00456462
     81.0101000             -0.0360499              0.03369360
     25.8780000             -0.1166310              0.13975500
      9.4522100              0.0968328              0.33936200
      3.6656600              0.6144180              0.45092100
      1.4674600              0.4037980              0.23858600
SP   3   1.00
      2.1562300             -0.2529230             -0.01776530
      0.7489970              0.0328517              0.27405800
      0.2831450              1.0812500              0.78542100
SP   1   1.00
      0.0998317              1.0000000              1.00000000
D    1   1.00
      1.1000000              1.0000000
D    1   1.00
      0.2750000              1.0000000
F    1   1.00
      0.4500000              1.0000000
****
S     0
S    6   1.00
  21917.1000000              0.0018690
   3301.4900000              0.0142300
    754.1460000              0.0696960
    212.7110000              0.2384870
     67.9896000              0.4833070
     23.0515000              0.3380740
SP   6   1.00
    423.7350000             -0.0023767              0.0040610
    100.7100000             -0.0316930              0.0306810
     32.1599000             -0.1133170              0.1304520
     11.8079000              0.0560900              0.3272050
      4.6311000              0.5922550              0.4528510
      1.8702500              0.4550060              0.2560420
SP   3   1.00
      2.6158400             -0.2503740             -0.0145110
      0.9221670              0.0669570              0.3102630
      0.3412870              1.0545100              0.7544830
SP   1   1.00
      0.1171670              1.0000000              1.0000000
D    1   1.00
      1.3000000              1.0000000
D    1   1.00
      0.3250000              1.0000000
F    1   1.00
      0.5500000              1.0000000
****
Cl     0
S    6   1.00
  25180.1000000              0.0018330
   3780.3500000              0.0140340
    860.4740000              0.0690970
    242.1450000              0.2374520
     77.3349000              0.4830340
     26.2470000              0.3398560
SP   6   1.00
    491.7650000             -0.0022974              0.0039894
    116.9840000             -0.0307140              0.0303180
     37.4153000             -0.1125280              0.1298800
     13.7834000              0.0450160              0.3279510
      5.4521500              0.5893530              0.4535270
      2.2258800              0.4652060              0.2521540
SP   3   1.00
      3.1864900             -0.2518300             -0.0142990
      1.1442700              0.0615890              0.3235720
      0.4203770              1.0601800              0.7435070
SP   1   1.00
      0.1426570              1.0000000              1.0000000
D    1   1.00
      1.5000000              1.0000000
D    1   1.00
      0.3750000              1.0000000
F    1   1.00
      0.7000000              1.0000000
****
}

set {
reference uhf
freeze_core true
e_convergence 10
d_convergence 10
dft_spherical_points 1202
dft_radial_points 99
}

e = energy('b3lyp')

print_out('Grab this energy {0}'.format(e))
--------------------------------------------------------------------------

    Molecular point group: c1

    Geometry (in Bohr), charge = 0, multiplicity = 2:

       Center              X                  Y                   Z               Mass
    ------------   -----------------  -----------------  -----------------  -----------------
         C           -0.323338318393    -0.000002892274     0.003999736111    12.000000000000
         C            0.061535884307    -1.400681423774    -2.427242046689    12.000000000000
         C            0.061020719007     2.801754217726    -0.001193659089    12.000000000000
         C            0.060743559207    -1.401067114574     2.425522620811    12.000000000000
         H            2.085940886907    -1.642415409274    -2.849936599889     1.007825032230
         H           -0.763129959793    -0.388823540374    -4.026697832089     1.007825032230
         H           -0.767339077793    -3.293414158674    -2.349789763889     1.007825032230
         H            2.086795054807     3.288097728726    -0.005407321189     1.007825032230
         H           -0.769691953693     3.680289426826     1.677245046711     1.007825032230
         H           -0.761608294893     3.680196454626    -1.675752604789     1.007825032230
         H            2.087931205107    -1.645778946574     2.844947076411     1.007825032230
         H           -0.763806197193    -3.290575431674     2.348187684611     1.007825032230
         H           -0.767681332593    -0.387609309174     4.024265745111     1.007825032230

  Charge       = 0
  Multiplicity = 2
  Basis Set: ANONYMOUS9A26AD0B
    Blend: 6-31G_2DFP_
  Basis Set: (ANONYMOUS9A26AD0B AUX)
    Blend: DEF2-UNIVERSAL-JKFIT

    Orbital Energies [Eh]
    ---------------------

    Alpha Occupied:

       1A    -10.180342     2A    -10.167057     3A    -10.167019
       4A    -10.166969     5A     -0.797768     6A     -0.686436
       7A     -0.685939     8A     -0.530778     9A     -0.441125
      10A     -0.435071    11A     -0.434269    12A     -0.382693
      13A     -0.382505    14A     -0.363614    15A     -0.338679
      16A     -0.337315    17A     -0.168960

    Alpha Virtual:

      18A      0.076071    19A      0.134053    20A      0.134252
      21A      0.142600    22A      0.142659    23A      0.154880
      24A      0.178691    25A      0.178865    26A      0.203544
      27A      0.214802    28A      0.275807    29A      0.276164
      30A      0.398860    31A      0.399601    32A      0.403344
      33A      0.423935    34A      0.424260    35A      0.456593
      36A      0.495290    37A      0.495488    38A      0.512160
      39A      0.513977    40A      0.578674    41A      0.578948
      42A      0.591497    43A      0.591789    44A      0.602569
      45A      0.624752    46A      0.631773    47A      0.636123
      48A      0.636385    49A      0.663137    50A      0.663691
      51A      0.683707    52A      0.684007    53A      0.734994
      54A      0.825262    55A      0.825549    56A      0.853916
      57A      0.914924    58A      0.915126    59A      0.944125
      60A      0.944603    61A      0.961036    62A      0.961554
      63A      1.003457    64A      1.127556    65A      1.128611
      66A      1.142278    67A      1.162821    68A      1.163717
      69A      1.223327    70A      1.273776    71A      1.275198
      72A      1.279357    73A      1.324240    74A      1.324470
      75A      1.355990    76A      1.366018    77A      1.366085
      78A      1.392464    79A      1.404020    80A      1.404044
      81A      1.416731    82A      1.417496    83A      1.427917
      84A      1.491488    85A      1.499073    86A      1.542820
      87A      1.542871    88A      1.574231    89A      1.574683
      90A      1.669825    91A      1.738916    92A      1.739926
      93A      1.768320    94A      1.830360    95A      1.832428
      96A      1.971743    97A      2.017305    98A      2.018624
      99A      2.020428   100A      2.052637   101A      2.052680
     102A      2.738429   103A      2.738543   104A      2.790923
     105A      2.811422   106A      2.889534   107A      2.890355
     108A      2.894934   109A      2.929132   110A      2.929865
     111A      2.958928   112A      2.964205   113A      2.964632
     114A      3.033992   115A      3.070218   116A      3.072317
     117A      3.084433   118A      3.168280   119A      3.169245
     120A      3.180630   121A      3.284852   122A      3.285767
     123A      3.326390   124A      3.327919   125A      3.375616
     126A      3.489348   127A      3.490957   128A      3.514030
     129A      3.525339   130A      3.568184   131A      3.568591
     132A      3.575128   133A      3.665588   134A      3.667175
     135A      3.679651   136A      3.693915   137A      3.694348
     138A      3.776141   139A      3.777392   140A      3.789211
     141A      3.911186   142A      3.913269   143A      4.034412
     144A      4.111099   145A      4.111513   146A      4.146825
     147A      4.149361   148A      4.173423   149A      4.201629
     150A      4.202697   151A      4.204286   152A      4.211105
     153A      4.314760   154A      4.317200   155A      4.358981
     156A      4.423961   157A      4.424923   158A      4.443424
     159A      4.515929   160A      4.517759   161A      4.577996
     162A      4.578355   163A      4.617690   164A      4.709435
     165A      4.774195   166A      4.775050   167A      4.836920
     168A      4.962837   169A      5.002350   170A      5.003606
     171A      5.227610   172A      5.246738   173A      5.247246
     174A      5.354796   175A      5.356204   176A      5.479418

    Beta Occupied:

       1A    -10.167809     2A    -10.167776     3A    -10.167739
       4A    -10.166519     5A     -0.781093     6A     -0.684229
       7A     -0.683751     8A     -0.511750     9A     -0.431440
      10A     -0.430643    11A     -0.421821    12A     -0.376741
      13A     -0.376627    14A     -0.362598    15A     -0.333808
      16A     -0.332433

    Beta Virtual:

      17A     -0.025742    18A      0.077080    19A      0.134902
      20A      0.135185    21A      0.144431    22A      0.144566
      23A      0.163339    24A      0.182375    25A      0.182523
      26A      0.215031    27A      0.218927    28A      0.282188
      29A      0.282478    30A      0.400028    31A      0.400772
      32A      0.419791    33A      0.426735    34A      0.427082
      35A      0.468500    36A      0.497543    37A      0.497757
      38A      0.513895    39A      0.556319    40A      0.584202
      41A      0.584525    42A      0.597660    43A      0.597980
      44A      0.609993    45A      0.628130    46A      0.631929
      47A      0.639444    48A      0.639637    49A      0.666721
      50A      0.667234    51A      0.686366    52A      0.686619
      53A      0.757517    54A      0.830439    55A      0.830710
      56A      0.855269    57A      0.922941    58A      0.923051
      59A      0.945961    60A      0.953525    61A      0.966320
      62A      0.966888    63A      1.008698    64A      1.131627
      65A      1.132624    66A      1.155630    67A      1.167904
      68A      1.168779    69A      1.232300    70A      1.279409
      71A      1.280761    72A      1.285108    73A      1.329219
      74A      1.329469    75A      1.365406    76A      1.371276
      77A      1.371316    78A      1.393521    79A      1.407449
      80A      1.407539    81A      1.421823    82A      1.422502
      83A      1.428190    84A      1.492539    85A      1.509517
      86A      1.547196    87A      1.547314    88A      1.582127
      89A      1.582526    90A      1.674672    91A      1.744668
      92A      1.745699    93A      1.779100    94A      1.834195
      95A      1.836302    96A      1.972603    97A      2.024297
      98A      2.026536    99A      2.039669   100A      2.059345
     101A      2.059435   102A      2.746746   103A      2.746898
     104A      2.811835   105A      2.816059   106A      2.902349
     107A      2.902909   108A      2.924639   109A      2.931516
     110A      2.932448   111A      2.960017   112A      2.968733
     113A      2.969169   114A      3.041926   115A      3.080146
     116A      3.082065   117A      3.086389   118A      3.184134
     119A      3.184849   120A      3.188357   121A      3.289681
     122A      3.290537   123A      3.330159   124A      3.331760
     125A      3.383433   126A      3.492081   127A      3.493681
     128A      3.512398   129A      3.528385   130A      3.574983
     131A      3.581403   132A      3.582059   133A      3.670546
     134A      3.671716   135A      3.692947   136A      3.725665
     137A      3.725860   138A      3.780734   139A      3.781906
     140A      3.817689   141A      3.920941   142A      3.923153
     143A      4.045303   144A      4.117665   145A      4.118590
     146A      4.153838   147A      4.156785   148A      4.187450
     149A      4.207678   150A      4.209869   151A      4.210866
     152A      4.215620   153A      4.322178   154A      4.324662
     155A      4.362344   156A      4.432193   157A      4.433125
     158A      4.446304   159A      4.523759   160A      4.525510
     161A      4.588558   162A      4.588975   163A      4.624903
     164A      4.719780   165A      4.781211   166A      4.781941
     167A      4.839837   168A      4.967628   169A      5.006408
     170A      5.007630   171A      5.233223   172A      5.248535
     173A      5.249122   174A      5.361312   175A      5.362646
     176A      5.481741

    Final Occupation by Irrep:
              A
    DOCC [    16 ]
    SOCC [     1 ]

  @DF-UKS Final Energy:  -157.81305900067841

   => Energetics <=

    Nuclear Repulsion Energy =            125.3946933614956549
    One-Electron Energy =                -458.7490196803433946
    Two-Electron Energy =                 195.8484130461043264
    DFT Exchange-Correlation Energy =     -20.3071457279350156
    Empirical Dispersion Energy =           0.0000000000000000
    VV10 Nonlocal Energy =                  0.0000000000000000
    Total Energy =                       -157.8130590006784075

  UHF NO Occupations:
  HONO-2 :   15  A 1.9996009
  HONO-1 :   16  A 1.9989805
  HONO-0 :   17  A 1.0000000
  LUNO+0 :   18  A 0.0010195
  LUNO+1 :   19  A 0.0003991
  LUNO+2 :   20  A 0.0001986
  LUNO+3 :   21  A 0.0001965

Computation Completed

Properties will be evaluated at   0.000000,   0.000000,   0.000000 [a0]

Properties computed using the SCF density matrix

  Nuclear Dipole Moment: [e a0]
     X:     0.8272      Y:    -0.0000      Z:    -0.0064

  Electronic Dipole Moment: [e a0]
     X:    -0.7493      Y:     0.0000      Z:     0.0059

  Dipole Moment: [e a0]
     X:     0.0779      Y:     0.0000      Z:    -0.0005     Total:     0.0779

  Dipole Moment: [D]
     X:     0.1980      Y:     0.0000      Z:    -0.0013     Total:     0.1980

*** tstop() called on n031 at Fri Nov  5 13:56:19 2021
Module time:
	user time   =     882.30 seconds =      14.71 minutes
	system time =      17.81 seconds =       0.30 minutes
	total time  =        226 seconds =       3.77 minutes
Total time:
	user time   =     882.30 seconds =      14.71 minutes
	system time =      17.81 seconds =       0.30 minutes
	total time  =        226 seconds =       3.77 minutes
Grab this energy -157.8130590006784
    Psi4 stopped on: Friday, 05 November 2021 01:56PM
    Psi4 wall time for execution: 0:03:45.96

*** Psi4 exiting successfully. Buy a developer a beer!
