                               Psi4 1.4a2.dev629

  ==> Input File <==

--------------------------------------------------------------------------
import os
memory 14 GB

molecule {
 C   -0.3233321312   -0.0047837046   -0.0000000000
 C    0.0609216056   -1.3983836202   -2.4336842703
 C    0.0614577075    2.7915695780    0.0000000000
 C    0.0609216056   -1.3983836202    2.4336842703
 H    2.0865864532   -1.6379939418   -2.8558404563
 H   -0.7684438610   -0.3796041457   -4.0270534748
 H   -0.7637215869   -3.2902219240   -2.3617640784
 H    2.0874953377    3.2796269568    0.0000000000
 H   -0.7644570062    3.6729850598    1.6761483781
 H   -0.7644570062    3.6729850598   -1.6761483781
 H    2.0865864532   -1.6379939418    2.8558404563
 H   -0.7637215869   -3.2902219240    2.3617640784
 H   -0.7684438610   -0.3796041457    4.0270534748
units bohr
0 2
}

basis {

assign 6-31g_2dfp_

[ 6-31g_2dfp_ ]

spherical

!----------------------------------------------------------------------
! Basis Set Exchange
! Version v0.8.13
! https://www.basissetexchange.org
!----------------------------------------------------------------------
!   Basis set: 6-31G(2df,p)
! Description: 6-31G(2df,p)
!        Role: orbital
!     Version: 0  (Data from the original Basis Set Exchange)
!----------------------------------------------------------------------

****
H     0
S    3   1.00
     18.7311370              0.03349460
      2.8253937              0.23472695
      0.6401217              0.81375733
S    1   1.00
      0.1612778              1.00000000
P    1   1.00
      1.5000000              1.0000000
P    1   1.00
      0.3750000              1.0000000
****
B     0
S    6   1.00
   2068.8823000              0.0018663
    310.6495700              0.0142515
     70.6830330              0.0695516
     19.8610800              0.2325729
      6.2993048              0.4670787
      2.1270270              0.3634314
SP   3   1.00
      4.7279710             -0.1303938              0.0745976
      1.1903377             -0.1307889              0.3078467
      0.3594117              1.1309444              0.7434568
SP   1   1.00
      0.1267512              1.0000000              1.0000000
D    1   1.00
      0.8020000              1.0000000
D    1   1.00
      0.2005000              1.0000000
F    1   1.00
      0.5000000              1.0000000
****
C     0
S    6   1.00
   3047.5249000              0.0018347
    457.3695100              0.0140373
    103.9486900              0.0688426
     29.2101550              0.2321844
      9.2866630              0.4679413
      3.1639270              0.3623120
SP   3   1.00
      7.8682724             -0.1193324              0.0689991
      1.8812885             -0.1608542              0.3164240
      0.5442493              1.1434564              0.7443083
SP   1   1.00
      0.1687144              1.0000000              1.0000000
D    1   1.00
      1.2520000              1.0000000
D    1   1.00
      0.3130000              1.0000000
F    1   1.00
      0.8000000              1.0000000
****
N     0
S    6   1.00
   4173.5110000              0.0018348
    627.4579000              0.0139950
    142.9021000              0.0685870
     40.2343300              0.2322410
     12.8202100              0.4690700
      4.3904370              0.3604550
SP   3   1.00
     11.6263580             -0.1149610              0.0675800
      2.7162800             -0.1691180              0.3239070
      0.7722180              1.1458520              0.7408950
SP   1   1.00
      0.2120313              1.0000000              1.0000000
D    1   1.00
      1.8260000              1.0000000
D    1   1.00
      0.4565000              1.0000000
F    1   1.00
      1.0000000              1.0000000
****
O     0
S    6   1.00
   5484.6717000              0.0018311
    825.2349500              0.0139501
    188.0469600              0.0684451
     52.9645000              0.2327143
     16.8975700              0.4701930
      5.7996353              0.3585209
SP   3   1.00
     15.5396160             -0.1107775              0.0708743
      3.5999336             -0.1480263              0.3397528
      1.0137618              1.1307670              0.7271586
SP   1   1.00
      0.2700058              1.0000000              1.0000000
D    1   1.00
      2.5840000              1.0000000
D    1   1.00
      0.6460000              1.0000000
F    1   1.00
      1.4000000              1.0000000
****
F     0
S    6   1.00
   7001.7130900              0.0018196169
   1051.3660900              0.0139160796
    239.2856900              0.0684053245
     67.3974453              0.233185760
     21.5199573              0.471267439
      7.40310130             0.356618546
SP   3   1.00
     20.8479528             -0.108506975            0.0716287243
      4.80830834            -0.146451658            0.3459121030
      1.34406986             1.128688580            0.7224699570
SP   1   1.00
      0.358151393            1.0000000              1.0000000
D    1   1.00
      3.5000000              1.0000000
D    1   1.00
      0.8750000              1.0000000
F    1   1.00
      1.8500000              1.0000000
****
Al     0
S    6   1.00
  13983.1000000              0.00194267
   2098.7500000              0.0148599
    477.7050000              0.0728494
    134.3600000              0.2468300
     42.8709000              0.4872580
     14.5189000              0.3234960
SP   6   1.00
    239.6680000             -0.00292619             0.00460285
     57.4419000             -0.0374080              0.0331990
     18.2859000             -0.1144870              0.1362820
      6.5991400              0.1156350              0.3304760
      2.4904900              0.6125950              0.4491460
      0.9445400              0.3937990              0.2657040
SP   3   1.00
      1.2779000             -0.2276060             -0.0175130
      0.3975900              0.00144583             0.2445330
      0.1600950              1.0927900              0.8049340
SP   1   1.00
      0.0556577              1.0000000              1.0000000
D    1   1.00
      0.6500000              1.0000000
D    1   1.00
      0.1625000              1.0000000
F    1   1.00
      0.2500000              1.0000000
****
Si     0
S    6   1.00
  16115.9000000              0.00195948
   2425.5800000              0.01492880
    553.8670000              0.07284780
    156.3400000              0.24613000
     50.0683000              0.48591400
     17.0178000              0.32500200
SP   6   1.00
    292.7180000             -0.00278094             0.00443826
     69.8731000             -0.03571460             0.03266790
     22.3363000             -0.11498500             0.13472100
      8.1503900              0.09356340             0.32867800
      3.1345800              0.60301700             0.44964000
      1.2254300              0.41895900             0.26137200
SP   3   1.00
      1.7273800             -0.24463000            -0.01779510
      0.5729220              0.00431572             0.25353900
      0.2221920              1.09818000             0.80066900
SP   1   1.00
      0.0778369              1.00000000             1.00000000
D    1   1.00
      0.9000000              1.0000000
D    1   1.00
      0.2250000              1.0000000
F    1   1.00
      0.3200000              1.0000000
****
P     0
S    6   1.00
  19413.3000000              0.0018516
   2909.4200000              0.0142062
    661.3640000              0.0699995
    185.7590000              0.2400790
     59.1943000              0.4847620
     20.0310000              0.3352000
SP   6   1.00
    339.4780000             -0.00278217             0.00456462
     81.0101000             -0.0360499              0.03369360
     25.8780000             -0.1166310              0.13975500
      9.4522100              0.0968328              0.33936200
      3.6656600              0.6144180              0.45092100
      1.4674600              0.4037980              0.23858600
SP   3   1.00
      2.1562300             -0.2529230             -0.01776530
      0.7489970              0.0328517              0.27405800
      0.2831450              1.0812500              0.78542100
SP   1   1.00
      0.0998317              1.0000000              1.00000000
D    1   1.00
      1.1000000              1.0000000
D    1   1.00
      0.2750000              1.0000000
F    1   1.00
      0.4500000              1.0000000
****
S     0
S    6   1.00
  21917.1000000              0.0018690
   3301.4900000              0.0142300
    754.1460000              0.0696960
    212.7110000              0.2384870
     67.9896000              0.4833070
     23.0515000              0.3380740
SP   6   1.00
    423.7350000             -0.0023767              0.0040610
    100.7100000             -0.0316930              0.0306810
     32.1599000             -0.1133170              0.1304520
     11.8079000              0.0560900              0.3272050
      4.6311000              0.5922550              0.4528510
      1.8702500              0.4550060              0.2560420
SP   3   1.00
      2.6158400             -0.2503740             -0.0145110
      0.9221670              0.0669570              0.3102630
      0.3412870              1.0545100              0.7544830
SP   1   1.00
      0.1171670              1.0000000              1.0000000
D    1   1.00
      1.3000000              1.0000000
D    1   1.00
      0.3250000              1.0000000
F    1   1.00
      0.5500000              1.0000000
****
Cl     0
S    6   1.00
  25180.1000000              0.0018330
   3780.3500000              0.0140340
    860.4740000              0.0690970
    242.1450000              0.2374520
     77.3349000              0.4830340
     26.2470000              0.3398560
SP   6   1.00
    491.7650000             -0.0022974              0.0039894
    116.9840000             -0.0307140              0.0303180
     37.4153000             -0.1125280              0.1298800
     13.7834000              0.0450160              0.3279510
      5.4521500              0.5893530              0.4535270
      2.2258800              0.4652060              0.2521540
SP   3   1.00
      3.1864900             -0.2518300             -0.0142990
      1.1442700              0.0615890              0.3235720
      0.4203770              1.0601800              0.7435070
SP   1   1.00
      0.1426570              1.0000000              1.0000000
D    1   1.00
      1.5000000              1.0000000
D    1   1.00
      0.3750000              1.0000000
F    1   1.00
      0.7000000              1.0000000
****
}

set {
reference uhf
freeze_core true
e_convergence 10
d_convergence 10
dft_spherical_points 1202
dft_radial_points 99
}

e = energy('b3lyp')

print_out('Grab this energy {0}'.format(e))
--------------------------------------------------------------------------

    Molecular point group: cs

    Geometry (in Bohr), charge = 0, multiplicity = 2:

       Center              X                  Y                   Z               Mass
    ------------   -----------------  -----------------  -----------------  -----------------
         C           -0.323333820818    -0.002860792062     0.000000000000    12.000000000000
         C            0.060919915982    -1.396460707662    -2.433684270300    12.000000000000
         C            0.061456017882     2.793492490538     0.000000000000    12.000000000000
         C            0.060919915982    -1.396460707662     2.433684270300    12.000000000000
         H            2.086584763582    -1.636071029262    -2.855840456300     1.007825032230
         H           -0.768445550618    -0.377681233162    -4.027053474800     1.007825032230
         H           -0.763723276518    -3.288299011462    -2.361764078400     1.007825032230
         H            2.087493648082     3.281549869338     0.000000000000     1.007825032230
         H           -0.764458695818     3.674907972338     1.676148378100     1.007825032230
         H           -0.764458695818     3.674907972338    -1.676148378100     1.007825032230
         H            2.086584763582    -1.636071029262     2.855840456300     1.007825032230
         H           -0.763723276518    -3.288299011462     2.361764078400     1.007825032230
         H           -0.768445550618    -0.377681233162     4.027053474800     1.007825032230

  Charge       = 0
  Multiplicity = 2
  Basis Set: ANONYMOUS7B0D0843
    Blend: 6-31G_2DFP_
  Basis Set: (ANONYMOUS7B0D0843 AUX)
    Blend: DEF2-UNIVERSAL-JKFIT

    Orbital Energies [Eh]
    ---------------------

    Alpha Occupied:

       1Ap   -10.180341     1App  -10.167165     2Ap   -10.167136
       3Ap   -10.166744     4Ap    -0.797771     2App   -0.686428
       5Ap    -0.685942     6Ap    -0.530777     7Ap    -0.441127
       3App   -0.434855     8Ap    -0.434487     4App   -0.382832
       9Ap    -0.382365     5App   -0.363615     6App   -0.338054
      10Ap    -0.337935    11Ap    -0.168961

    Alpha Virtual:

      12Ap     0.076073     7App    0.133933    13Ap     0.134374
       8App    0.142430    14Ap     0.142829    15Ap     0.154880
       9App    0.178638    16Ap     0.178920    17Ap     0.203539
      10App    0.214806    11App    0.275592    18Ap     0.276385
      12App    0.399079    19Ap     0.399278    20Ap     0.403444
      13App    0.423925    21Ap     0.424283    22Ap     0.456597
      14App    0.494964    23Ap     0.495802    15App    0.512170
      24Ap     0.513993    16App    0.578532    25Ap     0.579081
      26Ap     0.591591    17App    0.591673    27Ap     0.602584
      28Ap     0.624766    18App    0.631776    29Ap     0.636194
      19App    0.636296    20App    0.663136    30Ap     0.663693
      21App    0.683636    31Ap     0.684075    32Ap     0.734994
      22App    0.824632    33Ap     0.826172    23App    0.853914
      24App    0.914778    34Ap     0.915275    25App    0.944059
      35Ap     0.944535    36Ap     0.961096    26App    0.961674
      37Ap     1.003470    27App    1.126897    38Ap     1.129325
      39Ap     1.142256    28App    1.162497    40Ap     1.164023
      41Ap     1.223335    29App    1.273679    42Ap     1.275243
      43Ap     1.279421    44Ap     1.324335    30App    1.324366
      45Ap     1.355997    31App    1.365115    46Ap     1.366958
      32App    1.392469    33App    1.403435    47Ap     1.404674
      34App    1.416452    48Ap     1.417790    35App    1.427936
      36App    1.491435    49Ap     1.499071    37App    1.542413
      50Ap     1.543240    38App    1.572479    51Ap     1.576524
      52Ap     1.669809    39App    1.738494    53Ap     1.740300
      54Ap     1.768366    40App    1.831396    55Ap     1.831407
      41App    1.971725    42App    2.017107    56Ap     2.018238
      57Ap     2.020991    43App    2.049475    58Ap     2.055946
      44App    2.738339    59Ap     2.738625    60Ap     2.790919
      45App    2.811439    61Ap     2.889894    46App    2.889982
      62Ap     2.894968    47App    2.929259    63Ap     2.929725
      48App    2.958971    49App    2.963451    64Ap     2.965355
      65Ap     3.034006    50App    3.070382    66Ap     3.072157
      51App    3.084381    52App    3.167879    67Ap     3.169689
      68Ap     3.180596    69Ap     3.284615    53App    3.286009
      54App    3.326038    70Ap     3.328297    71Ap     3.375657
      55App    3.489252    72Ap     3.490943    56App    3.514043
      73Ap     3.525312    57App    3.566989    74Ap     3.569679
      58App    3.575359    75Ap     3.665809    59App    3.666976
      76Ap     3.679644    77Ap     3.693518    60App    3.694689
      78Ap     3.776040    61App    3.777462    79Ap     3.789319
      62App    3.910069    80Ap     3.914402    81Ap     4.034481
      63App    4.109853    82Ap     4.112902    64App    4.146148
      83Ap     4.150028    84Ap     4.173243    65App    4.201004
      85Ap     4.202546    86Ap     4.205315    66App    4.210893
      67App    4.315242    87Ap     4.316645    68App    4.358973
      69App    4.423406    88Ap     4.425506    70App    4.443476
      71App    4.515364    89Ap     4.518290    72App    4.577181
      90Ap     4.579352    91Ap     4.617553    92Ap     4.709453
      73App    4.773506    93Ap     4.775615    74App    4.837021
      94Ap     4.962856    75App    5.002678    95Ap     5.003264
      96Ap     5.228022    76App    5.246777    97Ap     5.246879
      77App    5.354734    98Ap     5.356268    78App    5.479328

    Beta Occupied:

       1App  -10.167915     1Ap   -10.167898     2Ap   -10.167512
       3Ap   -10.166517     4Ap    -0.781097     2App   -0.684240
       5Ap    -0.683736     6Ap    -0.511749     3App   -0.431232
       7Ap    -0.430854     8Ap    -0.421822     4App   -0.376947
       9Ap    -0.376420     5App   -0.362598     6App   -0.333181
      10Ap    -0.333055

    Beta Virtual:

      11Ap    -0.025744    12Ap     0.077082     7App    0.134792
      13Ap     0.135296     8App    0.144322    14Ap     0.144677
      15Ap     0.163340     9App    0.182287    16Ap     0.182613
      10App    0.215035    17Ap     0.218921    11App    0.281937
      18Ap     0.282735    12App    0.400275    19Ap     0.400501
      20Ap     0.419804    13App    0.426719    21Ap     0.427112
      22Ap     0.468508    14App    0.497213    23Ap     0.498082
      15App    0.513906    24Ap     0.556329    16App    0.584106
      25Ap     0.584611    26Ap     0.597782    17App    0.597839
      27Ap     0.610002    28Ap     0.628145    18App    0.631932
      29Ap     0.639463    19App    0.639604    20App    0.666667
      30Ap     0.667286    21App    0.686209    31Ap     0.686775
      32Ap     0.757516    22App    0.829795    33Ap     0.831346
      23App    0.855267    24App    0.922734    34Ap     0.923259
      25App    0.945918    35Ap     0.953454    36Ap     0.966371
      26App    0.967006    37Ap     1.008708    27App    1.130937
      38Ap     1.133359    39Ap     1.155617    28App    1.167519
      40Ap     1.169149    41Ap     1.232305    29App    1.279268
      42Ap     1.280851    43Ap     1.285173    44Ap     1.329295
      30App    1.329386    45Ap     1.365415    31App    1.370275
      46Ap     1.372272    32App    1.393530    33App    1.406888
      47Ap     1.408168    34App    1.421499    48Ap     1.422818
      35App    1.428221    36App    1.492487    49Ap     1.509513
      37App    1.546713    50Ap     1.547750    38App    1.580487
      51Ap     1.584265    52Ap     1.674656    39App    1.744263
      53Ap     1.746055    54Ap     1.779145    40App    1.835224
      55Ap     1.835289    41App    1.972588    42App    2.023435
      56Ap     2.027456    57Ap     2.039594    43App    2.056277
      58Ap     2.062597    44App    2.746607    59Ap     2.747030
      45App    2.811851    60Ap     2.816053    61Ap     2.902615
      46App    2.902654    62Ap     2.924644    47App    2.931848
      63Ap     2.932115    48App    2.960045    49App    2.968000
      64Ap     2.969882    65Ap     3.041943    50App    3.080044
      66Ap     3.082180    51App    3.086345    52App    3.183720
      67Ap     3.185199    68Ap     3.188408    69Ap     3.289459
      53App    3.290768    54App    3.329843    70Ap     3.332101
      71Ap     3.383476    55App    3.491952    72Ap     3.493690
      56App    3.512429    73Ap     3.528367    57App    3.574641
      58App    3.580889    74Ap     3.583028    75Ap     3.670558
      59App    3.671724    76Ap     3.692934    77Ap     3.725173
      60App    3.726288    78Ap     3.780661    61App    3.781961
      79Ap     3.817793    62App    3.919939    80Ap     3.924168
      81Ap     4.045369    63App    4.116570    82Ap     4.119808
      64App    4.153511    83Ap     4.157092    84Ap     4.187304
      65App    4.206903    85Ap     4.210228    86Ap     4.211571
      66App    4.215372    67App    4.322674    87Ap     4.324095
      68App    4.362336    69App    4.431677    88Ap     4.433665
      70App    4.446357    71App    4.523255    89Ap     4.525972
      72App    4.587688    90Ap     4.590049    91Ap     4.624748
      92Ap     4.719799    73App    4.780397    93Ap     4.782624
      74App    4.839945    94Ap     4.967652    75App    5.006702
      95Ap     5.007316    96Ap     5.233733    76App    5.248573
      97Ap     5.248656    77App    5.361175    98Ap     5.362788
      78App    5.481650

    Final Occupation by Irrep:
             Ap   App
    DOCC [    10,    6 ]
    SOCC [     1,    0 ]

  @DF-UKS Final Energy:  -157.81306011436806

   => Energetics <=

    Nuclear Repulsion Energy =            125.3949042032205767
    One-Electron Energy =                -458.7494481273947144
    Two-Electron Energy =                 195.8486314808785096
    DFT Exchange-Correlation Energy =     -20.3071476710724212
    Empirical Dispersion Energy =           0.0000000000000000
    VV10 Nonlocal Energy =                  0.0000000000000000
    Total Energy =                       -157.8130601143680565

  UHF NO Occupations:
  HONO-2 :    9 Ap 1.9996008
  HONO-1 :   10 Ap 1.9989804
  HONO-0 :   11 Ap 1.0000000
  LUNO+0 :   12 Ap 0.0010196
  LUNO+1 :   13 Ap 0.0003992
  LUNO+2 :    7App 0.0001976
  LUNO+3 :   14 Ap 0.0001975

Computation Completed

Properties will be evaluated at   0.000000,   0.000000,   0.000000 [a0]

Properties computed using the SCF density matrix

  Nuclear Dipole Moment: [e a0]
     X:     0.8272      Y:     0.0135      Z:    -0.0000

  Electronic Dipole Moment: [e a0]
     X:    -0.7493      Y:    -0.0143      Z:     0.0000

  Dipole Moment: [e a0]
     X:     0.0779      Y:    -0.0008      Z:    -0.0000     Total:     0.0779

  Dipole Moment: [D]
     X:     0.1980      Y:    -0.0021      Z:    -0.0000     Total:     0.1981

*** tstop() called on n073 at Fri Nov  5 13:06:13 2021
Module time:
	user time   =     568.36 seconds =       9.47 minutes
	system time =      12.68 seconds =       0.21 minutes
	total time  =        146 seconds =       2.43 minutes
Total time:
	user time   =     568.36 seconds =       9.47 minutes
	system time =      12.68 seconds =       0.21 minutes
	total time  =        146 seconds =       2.43 minutes
Grab this energy -157.81306011436806
    Psi4 stopped on: Friday, 05 November 2021 01:06PM
    Psi4 wall time for execution: 0:02:26.15

*** Psi4 exiting successfully. Buy a developer a beer!
