                               Psi4 1.4a2.dev629

  ==> Input File <==

--------------------------------------------------------------------------
import os
memory 14 GB

molecule {
 C   -0.3230391156    0.0019948643   -0.0000000000
 C    0.0610779815   -1.3975006946   -2.4225325142
 C    0.0607275203    2.7954675285   -0.0000000000
 C    0.0610779815   -1.3975006946    2.4225325142
 H    2.0865303652   -1.6388796863   -2.8454918350
 H   -0.7666807995   -0.3882009347   -4.0240592489
 H   -0.7644657234   -3.2870956306   -2.3391385923
 H    2.0867273018    3.2769203569   -0.0000000000
 H   -0.7649736154    3.6744734146    1.6753496470
 H   -0.7649736154    3.6744734146   -1.6753496470
 H    2.0865303652   -1.6388796863    2.8454918350
 H   -0.7644657234   -3.2870956306    2.3391385923
 H   -0.7666807995   -0.3882009347    4.0240592489
units bohr
0 2
}

basis {

assign 6-31g_2dfp_

[ 6-31g_2dfp_ ]

spherical

!----------------------------------------------------------------------
! Basis Set Exchange
! Version v0.8.13
! https://www.basissetexchange.org
!----------------------------------------------------------------------
!   Basis set: 6-31G(2df,p)
! Description: 6-31G(2df,p)
!        Role: orbital
!     Version: 0  (Data from the original Basis Set Exchange)
!----------------------------------------------------------------------

****
H     0
S    3   1.00
     18.7311370              0.03349460
      2.8253937              0.23472695
      0.6401217              0.81375733
S    1   1.00
      0.1612778              1.00000000
P    1   1.00
      1.5000000              1.0000000
P    1   1.00
      0.3750000              1.0000000
****
B     0
S    6   1.00
   2068.8823000              0.0018663
    310.6495700              0.0142515
     70.6830330              0.0695516
     19.8610800              0.2325729
      6.2993048              0.4670787
      2.1270270              0.3634314
SP   3   1.00
      4.7279710             -0.1303938              0.0745976
      1.1903377             -0.1307889              0.3078467
      0.3594117              1.1309444              0.7434568
SP   1   1.00
      0.1267512              1.0000000              1.0000000
D    1   1.00
      0.8020000              1.0000000
D    1   1.00
      0.2005000              1.0000000
F    1   1.00
      0.5000000              1.0000000
****
C     0
S    6   1.00
   3047.5249000              0.0018347
    457.3695100              0.0140373
    103.9486900              0.0688426
     29.2101550              0.2321844
      9.2866630              0.4679413
      3.1639270              0.3623120
SP   3   1.00
      7.8682724             -0.1193324              0.0689991
      1.8812885             -0.1608542              0.3164240
      0.5442493              1.1434564              0.7443083
SP   1   1.00
      0.1687144              1.0000000              1.0000000
D    1   1.00
      1.2520000              1.0000000
D    1   1.00
      0.3130000              1.0000000
F    1   1.00
      0.8000000              1.0000000
****
N     0
S    6   1.00
   4173.5110000              0.0018348
    627.4579000              0.0139950
    142.9021000              0.0685870
     40.2343300              0.2322410
     12.8202100              0.4690700
      4.3904370              0.3604550
SP   3   1.00
     11.6263580             -0.1149610              0.0675800
      2.7162800             -0.1691180              0.3239070
      0.7722180              1.1458520              0.7408950
SP   1   1.00
      0.2120313              1.0000000              1.0000000
D    1   1.00
      1.8260000              1.0000000
D    1   1.00
      0.4565000              1.0000000
F    1   1.00
      1.0000000              1.0000000
****
O     0
S    6   1.00
   5484.6717000              0.0018311
    825.2349500              0.0139501
    188.0469600              0.0684451
     52.9645000              0.2327143
     16.8975700              0.4701930
      5.7996353              0.3585209
SP   3   1.00
     15.5396160             -0.1107775              0.0708743
      3.5999336             -0.1480263              0.3397528
      1.0137618              1.1307670              0.7271586
SP   1   1.00
      0.2700058              1.0000000              1.0000000
D    1   1.00
      2.5840000              1.0000000
D    1   1.00
      0.6460000              1.0000000
F    1   1.00
      1.4000000              1.0000000
****
F     0
S    6   1.00
   7001.7130900              0.0018196169
   1051.3660900              0.0139160796
    239.2856900              0.0684053245
     67.3974453              0.233185760
     21.5199573              0.471267439
      7.40310130             0.356618546
SP   3   1.00
     20.8479528             -0.108506975            0.0716287243
      4.80830834            -0.146451658            0.3459121030
      1.34406986             1.128688580            0.7224699570
SP   1   1.00
      0.358151393            1.0000000              1.0000000
D    1   1.00
      3.5000000              1.0000000
D    1   1.00
      0.8750000              1.0000000
F    1   1.00
      1.8500000              1.0000000
****
Al     0
S    6   1.00
  13983.1000000              0.00194267
   2098.7500000              0.0148599
    477.7050000              0.0728494
    134.3600000              0.2468300
     42.8709000              0.4872580
     14.5189000              0.3234960
SP   6   1.00
    239.6680000             -0.00292619             0.00460285
     57.4419000             -0.0374080              0.0331990
     18.2859000             -0.1144870              0.1362820
      6.5991400              0.1156350              0.3304760
      2.4904900              0.6125950              0.4491460
      0.9445400              0.3937990              0.2657040
SP   3   1.00
      1.2779000             -0.2276060             -0.0175130
      0.3975900              0.00144583             0.2445330
      0.1600950              1.0927900              0.8049340
SP   1   1.00
      0.0556577              1.0000000              1.0000000
D    1   1.00
      0.6500000              1.0000000
D    1   1.00
      0.1625000              1.0000000
F    1   1.00
      0.2500000              1.0000000
****
Si     0
S    6   1.00
  16115.9000000              0.00195948
   2425.5800000              0.01492880
    553.8670000              0.07284780
    156.3400000              0.24613000
     50.0683000              0.48591400
     17.0178000              0.32500200
SP   6   1.00
    292.7180000             -0.00278094             0.00443826
     69.8731000             -0.03571460             0.03266790
     22.3363000             -0.11498500             0.13472100
      8.1503900              0.09356340             0.32867800
      3.1345800              0.60301700             0.44964000
      1.2254300              0.41895900             0.26137200
SP   3   1.00
      1.7273800             -0.24463000            -0.01779510
      0.5729220              0.00431572             0.25353900
      0.2221920              1.09818000             0.80066900
SP   1   1.00
      0.0778369              1.00000000             1.00000000
D    1   1.00
      0.9000000              1.0000000
D    1   1.00
      0.2250000              1.0000000
F    1   1.00
      0.3200000              1.0000000
****
P     0
S    6   1.00
  19413.3000000              0.0018516
   2909.4200000              0.0142062
    661.3640000              0.0699995
    185.7590000              0.2400790
     59.1943000              0.4847620
     20.0310000              0.3352000
SP   6   1.00
    339.4780000             -0.00278217             0.00456462
     81.0101000             -0.0360499              0.03369360
     25.8780000             -0.1166310              0.13975500
      9.4522100              0.0968328              0.33936200
      3.6656600              0.6144180              0.45092100
      1.4674600              0.4037980              0.23858600
SP   3   1.00
      2.1562300             -0.2529230             -0.01776530
      0.7489970              0.0328517              0.27405800
      0.2831450              1.0812500              0.78542100
SP   1   1.00
      0.0998317              1.0000000              1.00000000
D    1   1.00
      1.1000000              1.0000000
D    1   1.00
      0.2750000              1.0000000
F    1   1.00
      0.4500000              1.0000000
****
S     0
S    6   1.00
  21917.1000000              0.0018690
   3301.4900000              0.0142300
    754.1460000              0.0696960
    212.7110000              0.2384870
     67.9896000              0.4833070
     23.0515000              0.3380740
SP   6   1.00
    423.7350000             -0.0023767              0.0040610
    100.7100000             -0.0316930              0.0306810
     32.1599000             -0.1133170              0.1304520
     11.8079000              0.0560900              0.3272050
      4.6311000              0.5922550              0.4528510
      1.8702500              0.4550060              0.2560420
SP   3   1.00
      2.6158400             -0.2503740             -0.0145110
      0.9221670              0.0669570              0.3102630
      0.3412870              1.0545100              0.7544830
SP   1   1.00
      0.1171670              1.0000000              1.0000000
D    1   1.00
      1.3000000              1.0000000
D    1   1.00
      0.3250000              1.0000000
F    1   1.00
      0.5500000              1.0000000
****
Cl     0
S    6   1.00
  25180.1000000              0.0018330
   3780.3500000              0.0140340
    860.4740000              0.0690970
    242.1450000              0.2374520
     77.3349000              0.4830340
     26.2470000              0.3398560
SP   6   1.00
    491.7650000             -0.0022974              0.0039894
    116.9840000             -0.0307140              0.0303180
     37.4153000             -0.1125280              0.1298800
     13.7834000              0.0450160              0.3279510
      5.4521500              0.5893530              0.4535270
      2.2258800              0.4652060              0.2521540
SP   3   1.00
      3.1864900             -0.2518300             -0.0142990
      1.1442700              0.0615890              0.3235720
      0.4203770              1.0601800              0.7435070
SP   1   1.00
      0.1426570              1.0000000              1.0000000
D    1   1.00
      1.5000000              1.0000000
D    1   1.00
      0.3750000              1.0000000
F    1   1.00
      0.7000000              1.0000000
****
}

set {
reference uhf
freeze_core true
e_convergence 10
d_convergence 10
dft_spherical_points 1202
dft_radial_points 99
}

e = energy('b3lyp')

print_out('Grab this energy {0}'.format(e))
--------------------------------------------------------------------------

    Molecular point group: cs

    Geometry (in Bohr), charge = 0, multiplicity = 2:

       Center              X                  Y                   Z               Mass
    ------------   -----------------  -----------------  -----------------  -----------------
         C           -0.323016841067     0.001521286641     0.000000000000    12.000000000000
         C            0.061100256033    -1.397974272259    -2.422532514200    12.000000000000
         C            0.060749794833     2.794993950841     0.000000000000    12.000000000000
         C            0.061100256033    -1.397974272259     2.422532514200    12.000000000000
         H            2.086552639733    -1.639353263959    -2.845491835000     1.007825032230
         H           -0.766658524967    -0.388674512359    -4.024059248900     1.007825032230
         H           -0.764443448867    -3.287569208259    -2.339138592300     1.007825032230
         H            2.086749576333     3.276446779241     0.000000000000     1.007825032230
         H           -0.764951340867     3.673999836941     1.675349647000     1.007825032230
         H           -0.764951340867     3.673999836941    -1.675349647000     1.007825032230
         H            2.086552639733    -1.639353263959     2.845491835000     1.007825032230
         H           -0.764443448867    -3.287569208259     2.339138592300     1.007825032230
         H           -0.766658524967    -0.388674512359     4.024059248900     1.007825032230

  Charge       = 0
  Multiplicity = 2
  Basis Set: ANONYMOUSF1B5D7C0
    Blend: 6-31G_2DFP_
  Basis Set: (ANONYMOUSF1B5D7C0 AUX)
    Blend: DEF2-UNIVERSAL-JKFIT

    Orbital Energies [Eh]
    ---------------------

    Alpha Occupied:

       1Ap   -10.179568     1App  -10.166760     2Ap   -10.166731
       3Ap   -10.166469     4Ap    -0.798817     5Ap    -0.686611
       2App   -0.686366     6Ap    -0.530774     7Ap    -0.441726
       8Ap    -0.435217     3App   -0.435083     9Ap    -0.382709
       4App   -0.382638     5App   -0.363493    10Ap    -0.338252
       6App   -0.338119    11Ap    -0.168636

    Alpha Virtual:

      12Ap     0.076043     7App    0.134165    13Ap     0.134224
      14Ap     0.142769     8App    0.142891    15Ap     0.154942
      16Ap     0.178914     9App    0.178994    17Ap     0.204642
      10App    0.215150    11App    0.276236    18Ap     0.276775
      12App    0.399168    19Ap     0.399229    20Ap     0.403145
      21Ap     0.423770    13App    0.423881    22Ap     0.457176
      23Ap     0.495559    14App    0.495676    15App    0.512496
      24Ap     0.514381    16App    0.579217    25Ap     0.579775
      17App    0.591884    26Ap     0.592470    27Ap     0.603039
      28Ap     0.625164    18App    0.632130    19App    0.637020
      29Ap     0.637122    30Ap     0.663852    20App    0.663919
      21App    0.684279    31Ap     0.684337    32Ap     0.734788
      33Ap     0.825035    22App    0.825466    23App    0.854917
      24App    0.915615    34Ap     0.915883    35Ap     0.944024
      25App    0.945463    36Ap     0.961577    26App    0.962940
      37Ap     1.004593    38Ap     1.128777    27App    1.129217
      39Ap     1.142571    40Ap     1.163932    28App    1.164155
      41Ap     1.224233    29App    1.275244    42Ap     1.275547
      43Ap     1.279863    44Ap     1.324691    30App    1.324693
      45Ap     1.356167    31App    1.367725    46Ap     1.368043
      32App    1.393960    33App    1.403452    47Ap     1.404076
      34App    1.417085    48Ap     1.417894    35App    1.429319
      36App    1.492716    49Ap     1.499658    50Ap     1.543289
      37App    1.543835    51Ap     1.575590    38App    1.575611
      52Ap     1.669771    39App    1.739681    53Ap     1.740411
      54Ap     1.769833    40App    1.832096    55Ap     1.833086
      41App    1.973117    56Ap     2.019788    42App    2.020228
      57Ap     2.020937    43App    2.056332    58Ap     2.057959
      59Ap     2.738797    44App    2.739359    60Ap     2.792082
      45App    2.814145    46App    2.890837    61Ap     2.891302
      62Ap     2.896502    47App    2.929666    63Ap     2.929703
      48App    2.959233    64Ap     2.963909    49App    2.964226
      65Ap     3.033967    66Ap     3.072128    50App    3.072368
      51App    3.085937    52App    3.169436    67Ap     3.169835
      68Ap     3.182484    53App    3.285760    69Ap     3.285862
      54App    3.327262    70Ap     3.327925    71Ap     3.374230
      55App    3.491748    72Ap     3.492103    56App    3.514798
      73Ap     3.527627    57App    3.567961    74Ap     3.568667
      58App    3.577356    75Ap     3.666157    59App    3.666492
      76Ap     3.681601    60App    3.695186    77Ap     3.696033
      78Ap     3.780040    61App    3.782539    79Ap     3.789832
      62App    3.914057    80Ap     3.914578    81Ap     4.036298
      63App    4.112964    82Ap     4.115405    64App    4.148003
      83Ap     4.149760    84Ap     4.174499    85Ap     4.204074
      65App    4.205371    86Ap     4.205492    66App    4.212434
      67App    4.316683    87Ap     4.318287    68App    4.361544
      88Ap     4.426286    69App    4.426775    70App    4.445884
      71App    4.519424    89Ap     4.520245    72App    4.581493
      90Ap     4.582163    91Ap     4.624881    92Ap     4.714240
      93Ap     4.779998    73App    4.782055    74App    4.840897
      94Ap     4.965925    75App    5.004205    95Ap     5.004936
      96Ap     5.229057    97Ap     5.247763    76App    5.248696
      77App    5.357399    98Ap     5.358849    78App    5.485121

    Beta Occupied:

       1App  -10.167515     1Ap   -10.167496     2Ap   -10.167231
       3Ap   -10.165773     4Ap    -0.782120     5Ap    -0.684386
       2App   -0.684156     6Ap    -0.511845     7Ap    -0.431568
       3App   -0.431444     8Ap    -0.422319     9Ap    -0.376752
       4App   -0.376691     5App   -0.362465    10Ap    -0.333375
       6App   -0.333251

    Beta Virtual:

      11Ap    -0.025712    12Ap     0.077064     7App    0.135056
      13Ap     0.135100    14Ap     0.144667     8App    0.144791
      15Ap     0.163447    16Ap     0.182630     9App    0.182673
      10App    0.215387    17Ap     0.219843    11App    0.282524
      18Ap     0.283044    12App    0.400370    19Ap     0.400438
      20Ap     0.419484    21Ap     0.426572    13App    0.426684
      22Ap     0.469438    23Ap     0.497837    14App    0.497948
      15App    0.514247    24Ap     0.556647    16App    0.584773
      25Ap     0.585335    17App    0.598017    26Ap     0.598573
      27Ap     0.610504    28Ap     0.628602    18App    0.632296
      19App    0.640360    29Ap     0.640501    30Ap     0.667372
      20App    0.667442    21App    0.686973    31Ap     0.687075
      32Ap     0.757132    33Ap     0.830200    22App    0.830674
      23App    0.856307    24App    0.923633    34Ap     0.923832
      25App    0.947304    35Ap     0.952856    36Ap     0.966968
      26App    0.968216    37Ap     1.009759    38Ap     1.132730
      27App    1.133320    39Ap     1.155964    40Ap     1.169088
      28App    1.169146    41Ap     1.233343    29App    1.280880
      42Ap     1.281180    43Ap     1.285551    30App    1.329664
      44Ap     1.329694    45Ap     1.365614    31App    1.372988
      46Ap     1.373244    32App    1.395029    33App    1.406860
      47Ap     1.407546    34App    1.422194    48Ap     1.422989
      35App    1.429621    36App    1.493763    49Ap     1.510167
      50Ap     1.547639    37App    1.548189    51Ap     1.583531
      38App    1.583548    52Ap     1.674624    39App    1.745438
      53Ap     1.746186    54Ap     1.780637    40App    1.835972
      55Ap     1.836957    41App    1.973980    56Ap     2.026504
      42App    2.026654    57Ap     2.042067    43App    2.063045
      58Ap     2.064723    59Ap     2.747055    44App    2.747582
      45App    2.814563    60Ap     2.817196    46App    2.903348
      61Ap     2.903733    62Ap     2.926239    47App    2.932336
      63Ap     2.932346    48App    2.960307    64Ap     2.968532
      49App    2.968813    65Ap     3.041990    66Ap     3.082131
      50App    3.082356    51App    3.087771    52App    3.185045
      67Ap     3.185514    68Ap     3.190106    53App    3.290709
      69Ap     3.290862    54App    3.331008    70Ap     3.331639
      71Ap     3.382034    55App    3.494489    72Ap     3.494807
      56App    3.513157    73Ap     3.530631    57App    3.577011
      58App    3.581478    74Ap     3.582045    59App    3.670944
      75Ap     3.671034    76Ap     3.694877    60App    3.726928
      77Ap     3.727167    78Ap     3.784649    61App    3.787056
      79Ap     3.818244    62App    3.923898    80Ap     3.924382
      81Ap     4.047120    63App    4.119610    82Ap     4.121827
      64App    4.155379    83Ap     4.157197    84Ap     4.188666
      65App    4.211288    85Ap     4.211425    86Ap     4.212122
      66App    4.216983    67App    4.324126    87Ap     4.325781
      68App    4.364891    88Ap     4.434658    69App    4.435046
      70App    4.448784    71App    4.527352    89Ap     4.528153
      72App    4.592116    90Ap     4.592777    91Ap     4.632057
      92Ap     4.724669    93Ap     4.786997    73App    4.788967
      74App    4.843815    94Ap     4.970743    75App    5.008274
      95Ap     5.009024    96Ap     5.234812    97Ap     5.249551
      76App    5.250499    77App    5.363913    98Ap     5.365405
      78App    5.487464

    Final Occupation by Irrep:
             Ap   App
    DOCC [    10,    6 ]
    SOCC [     1,    0 ]

  @DF-UKS Final Energy:  -157.81303858257644

   => Energetics <=

    Nuclear Repulsion Energy =            125.5761615495940191
    One-Electron Energy =                -459.1062838562996831
    Two-Electron Energy =                 196.0280352176909275
    DFT Exchange-Correlation Energy =     -20.3109514935617099
    Empirical Dispersion Energy =           0.0000000000000000
    VV10 Nonlocal Energy =                  0.0000000000000000
    Total Energy =                       -157.8130385825764392

  UHF NO Occupations:
  HONO-2 :    9 Ap 1.9995992
  HONO-1 :   10 Ap 1.9989874
  HONO-0 :   11 Ap 1.0000000
  LUNO+0 :   12 Ap 0.0010126
  LUNO+1 :   13 Ap 0.0004008
  LUNO+2 :    7App 0.0001957
  LUNO+3 :   14 Ap 0.0001951

Computation Completed

Properties will be evaluated at   0.000000,   0.000000,   0.000000 [a0]

Properties computed using the SCF density matrix

  Nuclear Dipole Moment: [e a0]
     X:     0.8273      Y:    -0.0033      Z:     0.0000

  Electronic Dipole Moment: [e a0]
     X:    -0.7503      Y:     0.0034      Z:     0.0000

  Dipole Moment: [e a0]
     X:     0.0770      Y:     0.0000      Z:     0.0000     Total:     0.0770

  Dipole Moment: [D]
     X:     0.1958      Y:     0.0001      Z:     0.0000     Total:     0.1958

*** tstop() called on n091 at Fri Nov  5 15:33:38 2021
Module time:
	user time   =     498.35 seconds =       8.31 minutes
	system time =       4.64 seconds =       0.08 minutes
	total time  =        126 seconds =       2.10 minutes
Total time:
	user time   =     498.35 seconds =       8.31 minutes
	system time =       4.64 seconds =       0.08 minutes
	total time  =        126 seconds =       2.10 minutes
Grab this energy -157.81303858257644
    Psi4 stopped on: Friday, 05 November 2021 03:33PM
    Psi4 wall time for execution: 0:02:06.49

*** Psi4 exiting successfully. Buy a developer a beer!
