                               Psi4 1.4a2.dev629

  ==> Input File <==

--------------------------------------------------------------------------
import os
memory 14 GB

molecule {
 C   -0.3233408010    0.0002549777    0.0000012322
 C    0.0621652465   -1.4000647190   -2.4268435049
 C    0.0589704753    2.8017669473    0.0016017772
 C    0.0621648089   -1.4028367587    2.4252447103
 H    2.0868367651   -1.6444589694   -2.8472333554
 H   -0.7658040503   -0.3884574166   -4.0253648202
 H   -0.7658122302   -3.2920283447   -2.3489301852
 H    2.0870007516    3.2880935798   -0.0006229690
 H   -0.7652045258    3.6803313428    1.6764073417
 H   -0.7648057188    3.6801977083   -1.6770108554
 H    2.0868349169   -1.6433850201    2.8478515818
 H   -0.7662018805   -3.2915698117    2.3493436571
 H   -0.7654116344   -0.3878678292    4.0255553898
units bohr
0 2
}

basis {

assign 6-31g_2dfp_

[ 6-31g_2dfp_ ]

spherical

!----------------------------------------------------------------------
! Basis Set Exchange
! Version v0.8.13
! https://www.basissetexchange.org
!----------------------------------------------------------------------
!   Basis set: 6-31G(2df,p)
! Description: 6-31G(2df,p)
!        Role: orbital
!     Version: 0  (Data from the original Basis Set Exchange)
!----------------------------------------------------------------------

****
H     0
S    3   1.00
     18.7311370              0.03349460
      2.8253937              0.23472695
      0.6401217              0.81375733
S    1   1.00
      0.1612778              1.00000000
P    1   1.00
      1.5000000              1.0000000
P    1   1.00
      0.3750000              1.0000000
****
B     0
S    6   1.00
   2068.8823000              0.0018663
    310.6495700              0.0142515
     70.6830330              0.0695516
     19.8610800              0.2325729
      6.2993048              0.4670787
      2.1270270              0.3634314
SP   3   1.00
      4.7279710             -0.1303938              0.0745976
      1.1903377             -0.1307889              0.3078467
      0.3594117              1.1309444              0.7434568
SP   1   1.00
      0.1267512              1.0000000              1.0000000
D    1   1.00
      0.8020000              1.0000000
D    1   1.00
      0.2005000              1.0000000
F    1   1.00
      0.5000000              1.0000000
****
C     0
S    6   1.00
   3047.5249000              0.0018347
    457.3695100              0.0140373
    103.9486900              0.0688426
     29.2101550              0.2321844
      9.2866630              0.4679413
      3.1639270              0.3623120
SP   3   1.00
      7.8682724             -0.1193324              0.0689991
      1.8812885             -0.1608542              0.3164240
      0.5442493              1.1434564              0.7443083
SP   1   1.00
      0.1687144              1.0000000              1.0000000
D    1   1.00
      1.2520000              1.0000000
D    1   1.00
      0.3130000              1.0000000
F    1   1.00
      0.8000000              1.0000000
****
N     0
S    6   1.00
   4173.5110000              0.0018348
    627.4579000              0.0139950
    142.9021000              0.0685870
     40.2343300              0.2322410
     12.8202100              0.4690700
      4.3904370              0.3604550
SP   3   1.00
     11.6263580             -0.1149610              0.0675800
      2.7162800             -0.1691180              0.3239070
      0.7722180              1.1458520              0.7408950
SP   1   1.00
      0.2120313              1.0000000              1.0000000
D    1   1.00
      1.8260000              1.0000000
D    1   1.00
      0.4565000              1.0000000
F    1   1.00
      1.0000000              1.0000000
****
O     0
S    6   1.00
   5484.6717000              0.0018311
    825.2349500              0.0139501
    188.0469600              0.0684451
     52.9645000              0.2327143
     16.8975700              0.4701930
      5.7996353              0.3585209
SP   3   1.00
     15.5396160             -0.1107775              0.0708743
      3.5999336             -0.1480263              0.3397528
      1.0137618              1.1307670              0.7271586
SP   1   1.00
      0.2700058              1.0000000              1.0000000
D    1   1.00
      2.5840000              1.0000000
D    1   1.00
      0.6460000              1.0000000
F    1   1.00
      1.4000000              1.0000000
****
F     0
S    6   1.00
   7001.7130900              0.0018196169
   1051.3660900              0.0139160796
    239.2856900              0.0684053245
     67.3974453              0.233185760
     21.5199573              0.471267439
      7.40310130             0.356618546
SP   3   1.00
     20.8479528             -0.108506975            0.0716287243
      4.80830834            -0.146451658            0.3459121030
      1.34406986             1.128688580            0.7224699570
SP   1   1.00
      0.358151393            1.0000000              1.0000000
D    1   1.00
      3.5000000              1.0000000
D    1   1.00
      0.8750000              1.0000000
F    1   1.00
      1.8500000              1.0000000
****
Al     0
S    6   1.00
  13983.1000000              0.00194267
   2098.7500000              0.0148599
    477.7050000              0.0728494
    134.3600000              0.2468300
     42.8709000              0.4872580
     14.5189000              0.3234960
SP   6   1.00
    239.6680000             -0.00292619             0.00460285
     57.4419000             -0.0374080              0.0331990
     18.2859000             -0.1144870              0.1362820
      6.5991400              0.1156350              0.3304760
      2.4904900              0.6125950              0.4491460
      0.9445400              0.3937990              0.2657040
SP   3   1.00
      1.2779000             -0.2276060             -0.0175130
      0.3975900              0.00144583             0.2445330
      0.1600950              1.0927900              0.8049340
SP   1   1.00
      0.0556577              1.0000000              1.0000000
D    1   1.00
      0.6500000              1.0000000
D    1   1.00
      0.1625000              1.0000000
F    1   1.00
      0.2500000              1.0000000
****
Si     0
S    6   1.00
  16115.9000000              0.00195948
   2425.5800000              0.01492880
    553.8670000              0.07284780
    156.3400000              0.24613000
     50.0683000              0.48591400
     17.0178000              0.32500200
SP   6   1.00
    292.7180000             -0.00278094             0.00443826
     69.8731000             -0.03571460             0.03266790
     22.3363000             -0.11498500             0.13472100
      8.1503900              0.09356340             0.32867800
      3.1345800              0.60301700             0.44964000
      1.2254300              0.41895900             0.26137200
SP   3   1.00
      1.7273800             -0.24463000            -0.01779510
      0.5729220              0.00431572             0.25353900
      0.2221920              1.09818000             0.80066900
SP   1   1.00
      0.0778369              1.00000000             1.00000000
D    1   1.00
      0.9000000              1.0000000
D    1   1.00
      0.2250000              1.0000000
F    1   1.00
      0.3200000              1.0000000
****
P     0
S    6   1.00
  19413.3000000              0.0018516
   2909.4200000              0.0142062
    661.3640000              0.0699995
    185.7590000              0.2400790
     59.1943000              0.4847620
     20.0310000              0.3352000
SP   6   1.00
    339.4780000             -0.00278217             0.00456462
     81.0101000             -0.0360499              0.03369360
     25.8780000             -0.1166310              0.13975500
      9.4522100              0.0968328              0.33936200
      3.6656600              0.6144180              0.45092100
      1.4674600              0.4037980              0.23858600
SP   3   1.00
      2.1562300             -0.2529230             -0.01776530
      0.7489970              0.0328517              0.27405800
      0.2831450              1.0812500              0.78542100
SP   1   1.00
      0.0998317              1.0000000              1.00000000
D    1   1.00
      1.1000000              1.0000000
D    1   1.00
      0.2750000              1.0000000
F    1   1.00
      0.4500000              1.0000000
****
S     0
S    6   1.00
  21917.1000000              0.0018690
   3301.4900000              0.0142300
    754.1460000              0.0696960
    212.7110000              0.2384870
     67.9896000              0.4833070
     23.0515000              0.3380740
SP   6   1.00
    423.7350000             -0.0023767              0.0040610
    100.7100000             -0.0316930              0.0306810
     32.1599000             -0.1133170              0.1304520
     11.8079000              0.0560900              0.3272050
      4.6311000              0.5922550              0.4528510
      1.8702500              0.4550060              0.2560420
SP   3   1.00
      2.6158400             -0.2503740             -0.0145110
      0.9221670              0.0669570              0.3102630
      0.3412870              1.0545100              0.7544830
SP   1   1.00
      0.1171670              1.0000000              1.0000000
D    1   1.00
      1.3000000              1.0000000
D    1   1.00
      0.3250000              1.0000000
F    1   1.00
      0.5500000              1.0000000
****
Cl     0
S    6   1.00
  25180.1000000              0.0018330
   3780.3500000              0.0140340
    860.4740000              0.0690970
    242.1450000              0.2374520
     77.3349000              0.4830340
     26.2470000              0.3398560
SP   6   1.00
    491.7650000             -0.0022974              0.0039894
    116.9840000             -0.0307140              0.0303180
     37.4153000             -0.1125280              0.1298800
     13.7834000              0.0450160              0.3279510
      5.4521500              0.5893530              0.4535270
      2.2258800              0.4652060              0.2521540
SP   3   1.00
      3.1864900             -0.2518300             -0.0142990
      1.1442700              0.0615890              0.3235720
      0.4203770              1.0601800              0.7435070
SP   1   1.00
      0.1426570              1.0000000              1.0000000
D    1   1.00
      1.5000000              1.0000000
D    1   1.00
      0.3750000              1.0000000
F    1   1.00
      0.7000000              1.0000000
****
}

set {
reference uhf
freeze_core true
e_convergence 10
d_convergence 10
dft_spherical_points 1202
dft_radial_points 99
}

e = energy('b3lyp')

print_out('Grab this energy {0}'.format(e))
--------------------------------------------------------------------------

    Molecular point group: c1

    Geometry (in Bohr), charge = 0, multiplicity = 2:

       Center              X                  Y                   Z               Mass
    ------------   -----------------  -----------------  -----------------  -----------------
         C           -0.323340746019     0.000424815245     0.000000420399    12.000000000000
         C            0.062165301481    -1.399894881455    -2.426844316701    12.000000000000
         C            0.058970530281     2.801936784845     0.001600965399    12.000000000000
         C            0.062164863881    -1.402666921155     2.425243898499    12.000000000000
         H            2.086836820081    -1.644289131855    -2.847234167201     1.007825032230
         H           -0.765803995319    -0.388287579055    -4.025365632001     1.007825032230
         H           -0.765812175219    -3.291858507155    -2.348930997001     1.007825032230
         H            2.087000806581     3.288263417345    -0.000623780801     1.007825032230
         H           -0.765204470819     3.680501180345     1.676406529899     1.007825032230
         H           -0.764805663819     3.680367545845    -1.677011667201     1.007825032230
         H            2.086834971881    -1.643215182555     2.847850769999     1.007825032230
         H           -0.766201825519    -3.291399974155     2.349342845299     1.007825032230
         H           -0.765411579419    -0.387697991655     4.025554577999     1.007825032230

  Charge       = 0
  Multiplicity = 2
  Basis Set: ANONYMOUS11DB09FB
    Blend: 6-31G_2DFP_
  Basis Set: (ANONYMOUS11DB09FB AUX)
    Blend: DEF2-UNIVERSAL-JKFIT

    Orbital Energies [Eh]
    ---------------------

    Alpha Occupied:

       1A    -10.180342     2A    -10.167054     3A    -10.167014
       4A    -10.166977     5A     -0.797766     6A     -0.686220
       7A     -0.686153     8A     -0.530776     9A     -0.441126
      10A     -0.434773    11A     -0.434569    12A     -0.382749
      13A     -0.382449    14A     -0.363611    15A     -0.338083
      16A     -0.337913    17A     -0.168961

    Alpha Virtual:

      18A      0.076072    19A      0.134122    20A      0.134189
      21A      0.142565    22A      0.142691    23A      0.154879
      24A      0.178665    25A      0.178893    26A      0.203545
      27A      0.214804    28A      0.275929    29A      0.276041
      30A      0.399074    31A      0.399380    32A      0.403347
      33A      0.424049    34A      0.424145    35A      0.456592
      36A      0.495361    37A      0.495418    38A      0.512153
      39A      0.513986    40A      0.578728    41A      0.578908
      42A      0.591512    43A      0.591753    44A      0.602572
      45A      0.624750    46A      0.631788    47A      0.636141
      48A      0.636352    49A      0.663244    50A      0.663581
      51A      0.683706    52A      0.684002    53A      0.734994
      54A      0.825392    55A      0.825422    56A      0.853916
      57A      0.915009    58A      0.915044    59A      0.944125
      60A      0.944615    61A      0.961222    62A      0.961361
      63A      1.003453    64A      1.127999    65A      1.128219
      66A      1.142218    67A      1.163166    68A      1.163373
      69A      1.223321    70A      1.274344    71A      1.274634
      72A      1.279356    73A      1.324103    74A      1.324607
      75A      1.355976    76A      1.365751    77A      1.366367
      78A      1.392460    79A      1.403933    80A      1.404181
      81A      1.416819    82A      1.417394    83A      1.427905
      84A      1.491454    85A      1.499127    86A      1.542782
      87A      1.542866    88A      1.574301    89A      1.574605
      90A      1.669826    91A      1.739004    92A      1.739833
      93A      1.768332    94A      1.831196    95A      1.831590
      96A      1.971730    97A      2.018106    98A      2.018626
      99A      2.019664   100A      2.052266   101A      2.053011
     102A      2.738446   103A      2.738524   104A      2.790918
     105A      2.811434   106A      2.889684   107A      2.890219
     108A      2.894942   109A      2.929473   110A      2.929524
     111A      2.958998   112A      2.964264   113A      2.964489
     114A      3.034009   115A      3.071151   116A      3.071411
     117A      3.084354   118A      3.168657   119A      3.168911
     120A      3.180586   121A      3.285280   122A      3.285347
     123A      3.327006   124A      3.327321   125A      3.375619
     126A      3.489843   127A      3.490484   128A      3.513987
     129A      3.525351   130A      3.568288   131A      3.568486
     132A      3.575148   133A      3.666085   134A      3.666683
     135A      3.679651   136A      3.694104   137A      3.694151
     138A      3.776750   139A      3.776869   140A      3.789117
     141A      3.912143   142A      3.912299   143A      4.034456
     144A      4.111287   145A      4.111462   146A      4.148074
     147A      4.148183   148A      4.173241   149A      4.202419
     150A      4.203118   151A      4.203242   152A      4.210851
     153A      4.315522   154A      4.316376   155A      4.358984
     156A      4.424331   157A      4.424573   158A      4.443413
     159A      4.515791   160A      4.517905   161A      4.578062
     162A      4.578494   163A      4.617532   164A      4.709451
     165A      4.774084   166A      4.775101   167A      4.836914
     168A      4.962863   169A      5.002489   170A      5.003389
     171A      5.228050   172A      5.246795   173A      5.246835
     174A      5.355244   175A      5.355769   176A      5.479352

    Beta Occupied:

       1A    -10.167811     2A    -10.167766     3A    -10.167747
       4A    -10.166519     5A     -0.781091     6A     -0.684023
       7A     -0.683956     8A     -0.511747     9A     -0.431149
      10A     -0.430937    11A     -0.421822    12A     -0.376843
      13A     -0.376525    14A     -0.362595    15A     -0.333208
      16A     -0.333035

    Beta Virtual:

      17A     -0.025742    18A      0.077081    19A      0.135020
      20A      0.135070    21A      0.144440    22A      0.144557
      23A      0.163338    24A      0.182334    25A      0.182566
      26A      0.215027    27A      0.218935    28A      0.282280
      29A      0.282386    30A      0.400242    31A      0.400554
      32A      0.419791    33A      0.426857    34A      0.426959
      35A      0.468500    36A      0.497626    37A      0.497675
      38A      0.513895    39A      0.556325    40A      0.584282
      41A      0.584453    42A      0.597687    43A      0.597938
      44A      0.609995    45A      0.628119    46A      0.631950
      47A      0.639427    48A      0.639638    49A      0.666823
      50A      0.667130    51A      0.686338    52A      0.686639
      53A      0.757518    54A      0.830563    55A      0.830588
      56A      0.855269    57A      0.922982    58A      0.923014
      59A      0.945963    60A      0.953543    61A      0.966521
      62A      0.966674    63A      1.008693    64A      1.131989
      65A      1.132284    66A      1.155597    67A      1.168287
      68A      1.168398    69A      1.232294    70A      1.279937
      71A      1.280236    72A      1.285108    73A      1.329082
      74A      1.329607    75A      1.365389    76A      1.370993
      77A      1.371611    78A      1.393522    79A      1.407386
      80A      1.407659    81A      1.421886    82A      1.422428
      83A      1.428174    84A      1.492521    85A      1.509550
      86A      1.547205    87A      1.547259    88A      1.582225
      89A      1.582425    90A      1.674672    91A      1.744774
      92A      1.745586    93A      1.779111    94A      1.835051
      95A      1.835446    96A      1.972591    97A      2.024807
      98A      2.026087    99A      2.039682   100A      2.059006
     101A      2.059698   102A      2.746787   103A      2.746854
     104A      2.811804   105A      2.816095   106A      2.902379
     107A      2.902900   108A      2.924651   109A      2.931956
     110A      2.932001   111A      2.960060   112A      2.968813
     113A      2.969029   114A      3.041944   115A      3.081059
     116A      3.081315   117A      3.086181   118A      3.184424
     119A      3.184642   120A      3.188270   121A      3.290087
     122A      3.290136   123A      3.330797   124A      3.331139
     125A      3.383437   126A      3.492574   127A      3.493213
     128A      3.512358   129A      3.528388   130A      3.575006
     131A      3.581692   132A      3.581765   133A      3.670889
     134A      3.671372   135A      3.692947   136A      3.725624
     137A      3.725898   138A      3.781288   139A      3.781382
     140A      3.817663   141A      3.921944   142A      3.922131
     143A      4.045343   144A      4.118154   145A      4.118226
     146A      4.155238   147A      4.155435   148A      4.187303
     149A      4.208780   150A      4.209182   151A      4.210660
     152A      4.215324   153A      4.322936   154A      4.323840
     155A      4.362349   156A      4.432556   157A      4.432779
     158A      4.446294   159A      4.523585   160A      4.525690
     161A      4.588679   162A      4.589082   163A      4.624724
     164A      4.719795   165A      4.781056   166A      4.782035
     167A      4.839832   168A      4.967658   169A      5.006546
     170A      5.007411   171A      5.233766   172A      5.248579
     173A      5.248620   174A      5.361726   175A      5.362247
     176A      5.481674

    Final Occupation by Irrep:
              A
    DOCC [    16 ]
    SOCC [     1 ]

  @DF-UKS Final Energy:  -157.81306943789886

   => Energetics <=

    Nuclear Repulsion Energy =            125.3946058136634036
    One-Electron Energy =                -458.7488766857538849
    Two-Electron Energy =                 195.8483439080268624
    DFT Exchange-Correlation Energy =     -20.3071424738352491
    Empirical Dispersion Energy =           0.0000000000000000
    VV10 Nonlocal Energy =                  0.0000000000000000
    Total Energy =                       -157.8130694378988608

  UHF NO Occupations:
  HONO-2 :   15  A 1.9996009
  HONO-1 :   16  A 1.9989805
  HONO-0 :   17  A 1.0000000
  LUNO+0 :   18  A 0.0010195
  LUNO+1 :   19  A 0.0003991
  LUNO+2 :   20  A 0.0001977
  LUNO+3 :   21  A 0.0001974

Computation Completed

Properties will be evaluated at   0.000000,   0.000000,   0.000000 [a0]

Properties computed using the SCF density matrix

  Nuclear Dipole Moment: [e a0]
     X:     0.8272      Y:     0.0012      Z:    -0.0000

  Electronic Dipole Moment: [e a0]
     X:    -0.7493      Y:    -0.0011      Z:     0.0000

  Dipole Moment: [e a0]
     X:     0.0779      Y:     0.0001      Z:    -0.0000     Total:     0.0779

  Dipole Moment: [D]
     X:     0.1980      Y:     0.0003      Z:    -0.0000     Total:     0.1980

*** tstop() called on n046 at Fri Nov  5 12:29:00 2021
Module time:
	user time   =     745.98 seconds =      12.43 minutes
	system time =      18.22 seconds =       0.30 minutes
	total time  =        192 seconds =       3.20 minutes
Total time:
	user time   =     745.98 seconds =      12.43 minutes
	system time =      18.22 seconds =       0.30 minutes
	total time  =        192 seconds =       3.20 minutes
Grab this energy -157.81306943789886
    Psi4 stopped on: Friday, 05 November 2021 12:29PM
    Psi4 wall time for execution: 0:03:11.93

*** Psi4 exiting successfully. Buy a developer a beer!
