                               Psi4 1.4a2.dev629

  ==> Input File <==

--------------------------------------------------------------------------
import os
memory 14 GB

molecule {
 C   -0.3233417416    0.0009897116    0.0000000000
 C    0.0617790985   -1.4003199479   -2.4261512979
 C    0.0597386180    2.8027145028    0.0000000000
 C    0.0617790985   -1.4003199479    2.4261512979
 H    2.0869662229   -1.6439784609   -2.8475038747
 H   -0.7645783871   -0.3852898668   -4.0264848034
 H   -0.7666607045   -3.2961093178   -2.3478444670
 H    2.0867385827    3.2881098697    0.0000000000
 H   -0.7653778977    3.6797783946    1.6693350534
 H   -0.7653778977    3.6797783946   -1.6693350534
 H    2.0869662229   -1.6439784609    2.8475038747
 H   -0.7666607045   -3.2961093178    2.3478444670
 H   -0.7645783871   -0.3852898668    4.0264848034
units bohr
0 2
}

basis {

assign 6-31g_2dfp_

[ 6-31g_2dfp_ ]

spherical

!----------------------------------------------------------------------
! Basis Set Exchange
! Version v0.8.13
! https://www.basissetexchange.org
!----------------------------------------------------------------------
!   Basis set: 6-31G(2df,p)
! Description: 6-31G(2df,p)
!        Role: orbital
!     Version: 0  (Data from the original Basis Set Exchange)
!----------------------------------------------------------------------

****
H     0
S    3   1.00
     18.7311370              0.03349460
      2.8253937              0.23472695
      0.6401217              0.81375733
S    1   1.00
      0.1612778              1.00000000
P    1   1.00
      1.5000000              1.0000000
P    1   1.00
      0.3750000              1.0000000
****
B     0
S    6   1.00
   2068.8823000              0.0018663
    310.6495700              0.0142515
     70.6830330              0.0695516
     19.8610800              0.2325729
      6.2993048              0.4670787
      2.1270270              0.3634314
SP   3   1.00
      4.7279710             -0.1303938              0.0745976
      1.1903377             -0.1307889              0.3078467
      0.3594117              1.1309444              0.7434568
SP   1   1.00
      0.1267512              1.0000000              1.0000000
D    1   1.00
      0.8020000              1.0000000
D    1   1.00
      0.2005000              1.0000000
F    1   1.00
      0.5000000              1.0000000
****
C     0
S    6   1.00
   3047.5249000              0.0018347
    457.3695100              0.0140373
    103.9486900              0.0688426
     29.2101550              0.2321844
      9.2866630              0.4679413
      3.1639270              0.3623120
SP   3   1.00
      7.8682724             -0.1193324              0.0689991
      1.8812885             -0.1608542              0.3164240
      0.5442493              1.1434564              0.7443083
SP   1   1.00
      0.1687144              1.0000000              1.0000000
D    1   1.00
      1.2520000              1.0000000
D    1   1.00
      0.3130000              1.0000000
F    1   1.00
      0.8000000              1.0000000
****
N     0
S    6   1.00
   4173.5110000              0.0018348
    627.4579000              0.0139950
    142.9021000              0.0685870
     40.2343300              0.2322410
     12.8202100              0.4690700
      4.3904370              0.3604550
SP   3   1.00
     11.6263580             -0.1149610              0.0675800
      2.7162800             -0.1691180              0.3239070
      0.7722180              1.1458520              0.7408950
SP   1   1.00
      0.2120313              1.0000000              1.0000000
D    1   1.00
      1.8260000              1.0000000
D    1   1.00
      0.4565000              1.0000000
F    1   1.00
      1.0000000              1.0000000
****
O     0
S    6   1.00
   5484.6717000              0.0018311
    825.2349500              0.0139501
    188.0469600              0.0684451
     52.9645000              0.2327143
     16.8975700              0.4701930
      5.7996353              0.3585209
SP   3   1.00
     15.5396160             -0.1107775              0.0708743
      3.5999336             -0.1480263              0.3397528
      1.0137618              1.1307670              0.7271586
SP   1   1.00
      0.2700058              1.0000000              1.0000000
D    1   1.00
      2.5840000              1.0000000
D    1   1.00
      0.6460000              1.0000000
F    1   1.00
      1.4000000              1.0000000
****
F     0
S    6   1.00
   7001.7130900              0.0018196169
   1051.3660900              0.0139160796
    239.2856900              0.0684053245
     67.3974453              0.233185760
     21.5199573              0.471267439
      7.40310130             0.356618546
SP   3   1.00
     20.8479528             -0.108506975            0.0716287243
      4.80830834            -0.146451658            0.3459121030
      1.34406986             1.128688580            0.7224699570
SP   1   1.00
      0.358151393            1.0000000              1.0000000
D    1   1.00
      3.5000000              1.0000000
D    1   1.00
      0.8750000              1.0000000
F    1   1.00
      1.8500000              1.0000000
****
Al     0
S    6   1.00
  13983.1000000              0.00194267
   2098.7500000              0.0148599
    477.7050000              0.0728494
    134.3600000              0.2468300
     42.8709000              0.4872580
     14.5189000              0.3234960
SP   6   1.00
    239.6680000             -0.00292619             0.00460285
     57.4419000             -0.0374080              0.0331990
     18.2859000             -0.1144870              0.1362820
      6.5991400              0.1156350              0.3304760
      2.4904900              0.6125950              0.4491460
      0.9445400              0.3937990              0.2657040
SP   3   1.00
      1.2779000             -0.2276060             -0.0175130
      0.3975900              0.00144583             0.2445330
      0.1600950              1.0927900              0.8049340
SP   1   1.00
      0.0556577              1.0000000              1.0000000
D    1   1.00
      0.6500000              1.0000000
D    1   1.00
      0.1625000              1.0000000
F    1   1.00
      0.2500000              1.0000000
****
Si     0
S    6   1.00
  16115.9000000              0.00195948
   2425.5800000              0.01492880
    553.8670000              0.07284780
    156.3400000              0.24613000
     50.0683000              0.48591400
     17.0178000              0.32500200
SP   6   1.00
    292.7180000             -0.00278094             0.00443826
     69.8731000             -0.03571460             0.03266790
     22.3363000             -0.11498500             0.13472100
      8.1503900              0.09356340             0.32867800
      3.1345800              0.60301700             0.44964000
      1.2254300              0.41895900             0.26137200
SP   3   1.00
      1.7273800             -0.24463000            -0.01779510
      0.5729220              0.00431572             0.25353900
      0.2221920              1.09818000             0.80066900
SP   1   1.00
      0.0778369              1.00000000             1.00000000
D    1   1.00
      0.9000000              1.0000000
D    1   1.00
      0.2250000              1.0000000
F    1   1.00
      0.3200000              1.0000000
****
P     0
S    6   1.00
  19413.3000000              0.0018516
   2909.4200000              0.0142062
    661.3640000              0.0699995
    185.7590000              0.2400790
     59.1943000              0.4847620
     20.0310000              0.3352000
SP   6   1.00
    339.4780000             -0.00278217             0.00456462
     81.0101000             -0.0360499              0.03369360
     25.8780000             -0.1166310              0.13975500
      9.4522100              0.0968328              0.33936200
      3.6656600              0.6144180              0.45092100
      1.4674600              0.4037980              0.23858600
SP   3   1.00
      2.1562300             -0.2529230             -0.01776530
      0.7489970              0.0328517              0.27405800
      0.2831450              1.0812500              0.78542100
SP   1   1.00
      0.0998317              1.0000000              1.00000000
D    1   1.00
      1.1000000              1.0000000
D    1   1.00
      0.2750000              1.0000000
F    1   1.00
      0.4500000              1.0000000
****
S     0
S    6   1.00
  21917.1000000              0.0018690
   3301.4900000              0.0142300
    754.1460000              0.0696960
    212.7110000              0.2384870
     67.9896000              0.4833070
     23.0515000              0.3380740
SP   6   1.00
    423.7350000             -0.0023767              0.0040610
    100.7100000             -0.0316930              0.0306810
     32.1599000             -0.1133170              0.1304520
     11.8079000              0.0560900              0.3272050
      4.6311000              0.5922550              0.4528510
      1.8702500              0.4550060              0.2560420
SP   3   1.00
      2.6158400             -0.2503740             -0.0145110
      0.9221670              0.0669570              0.3102630
      0.3412870              1.0545100              0.7544830
SP   1   1.00
      0.1171670              1.0000000              1.0000000
D    1   1.00
      1.3000000              1.0000000
D    1   1.00
      0.3250000              1.0000000
F    1   1.00
      0.5500000              1.0000000
****
Cl     0
S    6   1.00
  25180.1000000              0.0018330
   3780.3500000              0.0140340
    860.4740000              0.0690970
    242.1450000              0.2374520
     77.3349000              0.4830340
     26.2470000              0.3398560
SP   6   1.00
    491.7650000             -0.0022974              0.0039894
    116.9840000             -0.0307140              0.0303180
     37.4153000             -0.1125280              0.1298800
     13.7834000              0.0450160              0.3279510
      5.4521500              0.5893530              0.4535270
      2.2258800              0.4652060              0.2521540
SP   3   1.00
      3.1864900             -0.2518300             -0.0142990
      1.1442700              0.0615890              0.3235720
      0.4203770              1.0601800              0.7435070
SP   1   1.00
      0.1426570              1.0000000              1.0000000
D    1   1.00
      1.5000000              1.0000000
D    1   1.00
      0.3750000              1.0000000
F    1   1.00
      0.7000000              1.0000000
****
}

set {
reference uhf
freeze_core true
e_convergence 10
d_convergence 10
dft_spherical_points 1202
dft_radial_points 99
}

e = energy('b3lyp')

print_out('Grab this energy {0}'.format(e))
--------------------------------------------------------------------------

    Molecular point group: cs

    Geometry (in Bohr), charge = 0, multiplicity = 2:

       Center              X                  Y                   Z               Mass
    ------------   -----------------  -----------------  -----------------  -----------------
         C           -0.323340789782     0.000399931126     0.000000000000    12.000000000000
         C            0.061780050318    -1.400909728374    -2.426151297900    12.000000000000
         C            0.059739569818     2.802124722326     0.000000000000    12.000000000000
         C            0.061780050318    -1.400909728374     2.426151297900    12.000000000000
         H            2.086967174718    -1.644568241374    -2.847503874700     1.007825032230
         H           -0.764577435282    -0.385879647274    -4.026484803400     1.007825032230
         H           -0.766659752682    -3.296699098274    -2.347844467000     1.007825032230
         H            2.086739534518     3.287520089226     0.000000000000     1.007825032230
         H           -0.765376945882     3.679188614126     1.669335053400     1.007825032230
         H           -0.765376945882     3.679188614126    -1.669335053400     1.007825032230
         H            2.086967174718    -1.644568241374     2.847503874700     1.007825032230
         H           -0.766659752682    -3.296699098274     2.347844467000     1.007825032230
         H           -0.764577435282    -0.385879647274     4.026484803400     1.007825032230

  Charge       = 0
  Multiplicity = 2
  Basis Set: ANONYMOUS2051A040
    Blend: 6-31G_2DFP_
  Basis Set: (ANONYMOUS2051A040 AUX)
    Blend: DEF2-UNIVERSAL-JKFIT

    Orbital Energies [Eh]
    ---------------------

    Alpha Occupied:

       1Ap   -10.180342     1App  -10.167352     2Ap   -10.167322
       3Ap   -10.166370     4Ap    -0.797767     5Ap    -0.686511
       2App   -0.685866     6Ap    -0.530777     7Ap    -0.441126
       3App   -0.434783     8Ap    -0.434561     9Ap    -0.382797
       4App   -0.382400     5App   -0.363610    10Ap    -0.338000
       6App   -0.337997    11Ap    -0.168961

    Alpha Virtual:

      12Ap     0.076069    13Ap     0.133976     7App    0.134314
      14Ap     0.142472     8App    0.142797    15Ap     0.154878
       9App    0.178539    16Ap     0.179016    17Ap     0.203547
      10App    0.214809    11App    0.275954    18Ap     0.276018
      12App    0.399117    19Ap     0.399336    20Ap     0.403346
      21Ap     0.423917    13App    0.424277    22Ap     0.456592
      14App    0.495176    23Ap     0.495603    15App    0.512160
      24Ap     0.513980    25Ap     0.578756    16App    0.578872
      17App    0.591483    26Ap     0.591785    27Ap     0.602569
      28Ap     0.624766    18App    0.631616    29Ap     0.635758
      19App    0.636899    30Ap     0.663225    20App    0.663601
      21App    0.683371    31Ap     0.684371    32Ap     0.734993
      33Ap     0.825027    22App    0.825777    23App    0.853916
      34Ap     0.914803    24App    0.915248    25App    0.944128
      35Ap     0.944614    36Ap     0.960923    26App    0.961671
      37Ap     1.003454    27App    1.127837    38Ap     1.128374
      39Ap     1.142221    40Ap     1.163054    28App    1.163487
      41Ap     1.223323    29App    1.274463    42Ap     1.274517
      43Ap     1.279361    44Ap     1.323955    30App    1.324742
      45Ap     1.355936    31App    1.365806    46Ap     1.366292
      32App    1.392459    47Ap     1.403993    33App    1.404123
      34App    1.416264    48Ap     1.417984    35App    1.427911
      36App    1.491479    49Ap     1.499084    50Ap     1.542327
      37App    1.543354    51Ap     1.574321    38App    1.574576
      52Ap     1.669774    53Ap     1.739180    39App    1.739652
      54Ap     1.768296    40App    1.829002    55Ap     1.833879
      41App    1.971648    56Ap     2.018305    57Ap     2.018526
      42App    2.019640    58Ap     2.051635    43App    2.053673
      59Ap     2.737629    44App    2.739338    60Ap     2.790923
      45App    2.811429    46App    2.889678    61Ap     2.890240
      62Ap     2.894940    63Ap     2.929374    47App    2.929606
      48App    2.959005    49App    2.964198    64Ap     2.964575
      65Ap     3.034009    50App    3.071014    66Ap     3.071500
      51App    3.084437    52App    3.168704    67Ap     3.168873
      68Ap     3.180592    53App    3.285067    69Ap     3.285571
      54App    3.326998    70Ap     3.327321    71Ap     3.375618
      72Ap     3.489484    55App    3.490826    56App    3.514013
      73Ap     3.525337    57App    3.568132    74Ap     3.568569
      58App    3.575262    75Ap     3.666367    59App    3.666385
      76Ap     3.679542    60App    3.693476    77Ap     3.694851
      61App    3.776248    78Ap     3.777407    79Ap     3.789126
      62App    3.911676    80Ap     3.912758    81Ap     4.034409
      63App    4.111027    82Ap     4.111620    83Ap     4.146654
      64App    4.149486    84Ap     4.173277    85Ap     4.200687
      65App    4.201680    86Ap     4.206543    66App    4.210936
      87Ap     4.315851    67App    4.316131    68App    4.358930
      69App    4.424291    88Ap     4.424607    70App    4.443527
      89Ap     4.516349    71App    4.517297    90Ap     4.577910
      72App    4.578643    91Ap     4.617583    92Ap     4.709473
      93Ap     4.774229    73App    4.774952    74App    4.836857
      94Ap     4.962878    95Ap     5.002834    75App    5.003134
      96Ap     5.227903    97Ap     5.241174    76App    5.252434
      77App    5.353697    98Ap     5.357358    78App    5.479558

    Beta Occupied:

       1App  -10.168106     1Ap   -10.168087     2Ap   -10.167134
       3Ap   -10.166516     4Ap    -0.781093     5Ap    -0.684318
       2App   -0.683664     6Ap    -0.511749     3App   -0.431158
       7Ap    -0.430930     8Ap    -0.421821     9Ap    -0.376869
       4App   -0.376498     5App   -0.362594    10Ap    -0.333122
       6App   -0.333120

    Beta Virtual:

      11Ap    -0.025743    12Ap     0.077078    13Ap     0.134822
       7App    0.135250    14Ap     0.144415     8App    0.144593
      15Ap     0.163337     9App    0.182238    16Ap     0.182660
      10App    0.215038    17Ap     0.218930    11App    0.282301
      18Ap     0.282367    12App    0.400284    19Ap     0.400510
      20Ap     0.419791    21Ap     0.426726    13App    0.427091
      22Ap     0.468500    14App    0.497428    23Ap     0.497872
      15App    0.513895    24Ap     0.556324    25Ap     0.584328
      16App    0.584399    17App    0.597707    26Ap     0.597919
      27Ap     0.609994    28Ap     0.628140    18App    0.631841
      29Ap     0.639066    19App    0.640095    30Ap     0.666834
      20App    0.667119    21App    0.686060    31Ap     0.686952
      32Ap     0.757517    33Ap     0.830172    22App    0.830969
      23App    0.855269    34Ap     0.922791    24App    0.923204
      25App    0.945966    35Ap     0.953543    36Ap     0.966229
      26App    0.966976    37Ap     1.008694    27App    1.131790
      38Ap     1.132479    39Ap     1.155601    40Ap     1.168076
      28App    1.168608    41Ap     1.232296    29App    1.280071
      42Ap     1.280101    43Ap     1.285118    44Ap     1.328899
      30App    1.329775    45Ap     1.365329    31App    1.371014
      46Ap     1.371590    32App    1.393518    47Ap     1.407437
      33App    1.407612    34App    1.421250    48Ap     1.423099
      35App    1.428180    36App    1.492529    49Ap     1.509527
      50Ap     1.546703    37App    1.547792    51Ap     1.582189
      38App    1.582453    52Ap     1.674619    53Ap     1.744959
      39App    1.745395    54Ap     1.779078    40App    1.832879
      55Ap     1.837717    41App    1.972518    56Ap     2.024936
      42App    2.026005    57Ap     2.039698    58Ap     2.058331
      43App    2.060404    59Ap     2.745960    44App    2.747679
      45App    2.811841    60Ap     2.816059    46App    2.902396
      61Ap     2.902896    62Ap     2.924649    63Ap     2.931876
      47App    2.932067    48App    2.960070    49App    2.968714
      64Ap     2.969144    65Ap     3.041945    50App    3.080855
      66Ap     3.081372    51App    3.086363    52App    3.184385
      67Ap     3.184700    68Ap     3.188265    53App    3.289881
      69Ap     3.290353    54App    3.330758    70Ap     3.331171
      71Ap     3.383437    72Ap     3.492208    55App    3.493563
      56App    3.512381    73Ap     3.528382    57App    3.574907
      58App    3.581667    74Ap     3.581920    75Ap     3.671110
      59App    3.671122    76Ap     3.692918    60App    3.725107
      77Ap     3.726411    61App    3.780872    78Ap     3.781849
      79Ap     3.817666    62App    3.921483    80Ap     3.922582
      81Ap     4.045290    63App    4.118023    82Ap     4.118240
      83Ap     4.154038    64App    4.156549    84Ap     4.187313
      65App    4.207511    85Ap     4.207873    86Ap     4.213398
      66App    4.215415    87Ap     4.323157    67App    4.323695
      68App    4.362295    69App    4.432405    88Ap     4.432877
      70App    4.446448    89Ap     4.524079    71App    4.525153
      90Ap     4.588569    72App    4.589183    91Ap     4.624776
      92Ap     4.719819    93Ap     4.781214    73App    4.781873
      74App    4.839773    94Ap     4.967672    95Ap     5.006876
      75App    5.007171    96Ap     5.233577    97Ap     5.243013
      76App    5.254208    77App    5.360202    98Ap     5.363812
      78App    5.481878

    Final Occupation by Irrep:
             Ap   App
    DOCC [    10,    6 ]
    SOCC [     1,    0 ]

  @DF-UKS Final Energy:  -157.81304607559676

   => Energetics <=

    Nuclear Repulsion Energy =            125.3946945895188492
    One-Electron Energy =                -458.7489867207763723
    Two-Electron Energy =                 195.8483970442557904
    DFT Exchange-Correlation Energy =     -20.3071509885950228
    Empirical Dispersion Energy =           0.0000000000000000
    VV10 Nonlocal Energy =                  0.0000000000000000
    Total Energy =                       -157.8130460755967590

  UHF NO Occupations:
  HONO-2 :    9 Ap 1.9996009
  HONO-1 :   10 Ap 1.9989805
  HONO-0 :   11 Ap 1.0000000
  LUNO+0 :   12 Ap 0.0010195
  LUNO+1 :   13 Ap 0.0003991
  LUNO+2 :    7App 0.0001976
  LUNO+3 :   14 Ap 0.0001975

Computation Completed

Properties will be evaluated at   0.000000,   0.000000,   0.000000 [a0]

Properties computed using the SCF density matrix

  Nuclear Dipole Moment: [e a0]
     X:     0.8272      Y:    -0.0042      Z:     0.0000

  Electronic Dipole Moment: [e a0]
     X:    -0.7493      Y:     0.0073      Z:     0.0000

  Dipole Moment: [e a0]
     X:     0.0779      Y:     0.0031      Z:     0.0000     Total:     0.0780

  Dipole Moment: [D]
     X:     0.1981      Y:     0.0079      Z:     0.0000     Total:     0.1982

*** tstop() called on n089 at Fri Nov  5 14:16:21 2021
Module time:
	user time   =     607.17 seconds =      10.12 minutes
	system time =       5.52 seconds =       0.09 minutes
	total time  =        154 seconds =       2.57 minutes
Total time:
	user time   =     607.17 seconds =      10.12 minutes
	system time =       5.52 seconds =       0.09 minutes
	total time  =        154 seconds =       2.57 minutes
Grab this energy -157.81304607559676
    Psi4 stopped on: Friday, 05 November 2021 02:16PM
    Psi4 wall time for execution: 0:02:33.91

*** Psi4 exiting successfully. Buy a developer a beer!
