                               Psi4 1.4a2.dev629

  ==> Input File <==

--------------------------------------------------------------------------
import os
memory 14 GB

molecule {
 C   -0.3236405019   -0.0020005127    0.0000000000
 C    0.0612013111   -1.4042546947   -2.4302302272
 C    0.0613136019    2.8080502008    0.0000000000
 C    0.0612013111   -1.4042546947    2.4302302272
 H    2.0873398752   -1.6493217982   -2.8493939055
 H   -0.7641263684   -0.3882483244   -4.0269015665
 H   -0.7666669829   -3.2968881622   -2.3588478829
 H    2.0868598281    3.2992844547    0.0000000000
 H   -0.7663182374    3.6860337513    1.6776510770
 H   -0.7663182374    3.6860337513   -1.6776510770
 H    2.0873398752   -1.6493217982    2.8493939055
 H   -0.7666669829   -3.2968881622    2.3588478829
 H   -0.7641263684   -0.3882483244    4.0269015665
units bohr
0 2
}

basis {

assign 6-31g_2dfp_

[ 6-31g_2dfp_ ]

spherical

!----------------------------------------------------------------------
! Basis Set Exchange
! Version v0.8.13
! https://www.basissetexchange.org
!----------------------------------------------------------------------
!   Basis set: 6-31G(2df,p)
! Description: 6-31G(2df,p)
!        Role: orbital
!     Version: 0  (Data from the original Basis Set Exchange)
!----------------------------------------------------------------------

****
H     0
S    3   1.00
     18.7311370              0.03349460
      2.8253937              0.23472695
      0.6401217              0.81375733
S    1   1.00
      0.1612778              1.00000000
P    1   1.00
      1.5000000              1.0000000
P    1   1.00
      0.3750000              1.0000000
****
B     0
S    6   1.00
   2068.8823000              0.0018663
    310.6495700              0.0142515
     70.6830330              0.0695516
     19.8610800              0.2325729
      6.2993048              0.4670787
      2.1270270              0.3634314
SP   3   1.00
      4.7279710             -0.1303938              0.0745976
      1.1903377             -0.1307889              0.3078467
      0.3594117              1.1309444              0.7434568
SP   1   1.00
      0.1267512              1.0000000              1.0000000
D    1   1.00
      0.8020000              1.0000000
D    1   1.00
      0.2005000              1.0000000
F    1   1.00
      0.5000000              1.0000000
****
C     0
S    6   1.00
   3047.5249000              0.0018347
    457.3695100              0.0140373
    103.9486900              0.0688426
     29.2101550              0.2321844
      9.2866630              0.4679413
      3.1639270              0.3623120
SP   3   1.00
      7.8682724             -0.1193324              0.0689991
      1.8812885             -0.1608542              0.3164240
      0.5442493              1.1434564              0.7443083
SP   1   1.00
      0.1687144              1.0000000              1.0000000
D    1   1.00
      1.2520000              1.0000000
D    1   1.00
      0.3130000              1.0000000
F    1   1.00
      0.8000000              1.0000000
****
N     0
S    6   1.00
   4173.5110000              0.0018348
    627.4579000              0.0139950
    142.9021000              0.0685870
     40.2343300              0.2322410
     12.8202100              0.4690700
      4.3904370              0.3604550
SP   3   1.00
     11.6263580             -0.1149610              0.0675800
      2.7162800             -0.1691180              0.3239070
      0.7722180              1.1458520              0.7408950
SP   1   1.00
      0.2120313              1.0000000              1.0000000
D    1   1.00
      1.8260000              1.0000000
D    1   1.00
      0.4565000              1.0000000
F    1   1.00
      1.0000000              1.0000000
****
O     0
S    6   1.00
   5484.6717000              0.0018311
    825.2349500              0.0139501
    188.0469600              0.0684451
     52.9645000              0.2327143
     16.8975700              0.4701930
      5.7996353              0.3585209
SP   3   1.00
     15.5396160             -0.1107775              0.0708743
      3.5999336             -0.1480263              0.3397528
      1.0137618              1.1307670              0.7271586
SP   1   1.00
      0.2700058              1.0000000              1.0000000
D    1   1.00
      2.5840000              1.0000000
D    1   1.00
      0.6460000              1.0000000
F    1   1.00
      1.4000000              1.0000000
****
F     0
S    6   1.00
   7001.7130900              0.0018196169
   1051.3660900              0.0139160796
    239.2856900              0.0684053245
     67.3974453              0.233185760
     21.5199573              0.471267439
      7.40310130             0.356618546
SP   3   1.00
     20.8479528             -0.108506975            0.0716287243
      4.80830834            -0.146451658            0.3459121030
      1.34406986             1.128688580            0.7224699570
SP   1   1.00
      0.358151393            1.0000000              1.0000000
D    1   1.00
      3.5000000              1.0000000
D    1   1.00
      0.8750000              1.0000000
F    1   1.00
      1.8500000              1.0000000
****
Al     0
S    6   1.00
  13983.1000000              0.00194267
   2098.7500000              0.0148599
    477.7050000              0.0728494
    134.3600000              0.2468300
     42.8709000              0.4872580
     14.5189000              0.3234960
SP   6   1.00
    239.6680000             -0.00292619             0.00460285
     57.4419000             -0.0374080              0.0331990
     18.2859000             -0.1144870              0.1362820
      6.5991400              0.1156350              0.3304760
      2.4904900              0.6125950              0.4491460
      0.9445400              0.3937990              0.2657040
SP   3   1.00
      1.2779000             -0.2276060             -0.0175130
      0.3975900              0.00144583             0.2445330
      0.1600950              1.0927900              0.8049340
SP   1   1.00
      0.0556577              1.0000000              1.0000000
D    1   1.00
      0.6500000              1.0000000
D    1   1.00
      0.1625000              1.0000000
F    1   1.00
      0.2500000              1.0000000
****
Si     0
S    6   1.00
  16115.9000000              0.00195948
   2425.5800000              0.01492880
    553.8670000              0.07284780
    156.3400000              0.24613000
     50.0683000              0.48591400
     17.0178000              0.32500200
SP   6   1.00
    292.7180000             -0.00278094             0.00443826
     69.8731000             -0.03571460             0.03266790
     22.3363000             -0.11498500             0.13472100
      8.1503900              0.09356340             0.32867800
      3.1345800              0.60301700             0.44964000
      1.2254300              0.41895900             0.26137200
SP   3   1.00
      1.7273800             -0.24463000            -0.01779510
      0.5729220              0.00431572             0.25353900
      0.2221920              1.09818000             0.80066900
SP   1   1.00
      0.0778369              1.00000000             1.00000000
D    1   1.00
      0.9000000              1.0000000
D    1   1.00
      0.2250000              1.0000000
F    1   1.00
      0.3200000              1.0000000
****
P     0
S    6   1.00
  19413.3000000              0.0018516
   2909.4200000              0.0142062
    661.3640000              0.0699995
    185.7590000              0.2400790
     59.1943000              0.4847620
     20.0310000              0.3352000
SP   6   1.00
    339.4780000             -0.00278217             0.00456462
     81.0101000             -0.0360499              0.03369360
     25.8780000             -0.1166310              0.13975500
      9.4522100              0.0968328              0.33936200
      3.6656600              0.6144180              0.45092100
      1.4674600              0.4037980              0.23858600
SP   3   1.00
      2.1562300             -0.2529230             -0.01776530
      0.7489970              0.0328517              0.27405800
      0.2831450              1.0812500              0.78542100
SP   1   1.00
      0.0998317              1.0000000              1.00000000
D    1   1.00
      1.1000000              1.0000000
D    1   1.00
      0.2750000              1.0000000
F    1   1.00
      0.4500000              1.0000000
****
S     0
S    6   1.00
  21917.1000000              0.0018690
   3301.4900000              0.0142300
    754.1460000              0.0696960
    212.7110000              0.2384870
     67.9896000              0.4833070
     23.0515000              0.3380740
SP   6   1.00
    423.7350000             -0.0023767              0.0040610
    100.7100000             -0.0316930              0.0306810
     32.1599000             -0.1133170              0.1304520
     11.8079000              0.0560900              0.3272050
      4.6311000              0.5922550              0.4528510
      1.8702500              0.4550060              0.2560420
SP   3   1.00
      2.6158400             -0.2503740             -0.0145110
      0.9221670              0.0669570              0.3102630
      0.3412870              1.0545100              0.7544830
SP   1   1.00
      0.1171670              1.0000000              1.0000000
D    1   1.00
      1.3000000              1.0000000
D    1   1.00
      0.3250000              1.0000000
F    1   1.00
      0.5500000              1.0000000
****
Cl     0
S    6   1.00
  25180.1000000              0.0018330
   3780.3500000              0.0140340
    860.4740000              0.0690970
    242.1450000              0.2374520
     77.3349000              0.4830340
     26.2470000              0.3398560
SP   6   1.00
    491.7650000             -0.0022974              0.0039894
    116.9840000             -0.0307140              0.0303180
     37.4153000             -0.1125280              0.1298800
     13.7834000              0.0450160              0.3279510
      5.4521500              0.5893530              0.4535270
      2.2258800              0.4652060              0.2521540
SP   3   1.00
      3.1864900             -0.2518300             -0.0142990
      1.1442700              0.0615890              0.3235720
      0.4203770              1.0601800              0.7435070
SP   1   1.00
      0.1426570              1.0000000              1.0000000
D    1   1.00
      1.5000000              1.0000000
D    1   1.00
      0.3750000              1.0000000
F    1   1.00
      0.7000000              1.0000000
****
}

set {
reference uhf
freeze_core true
e_convergence 10
d_convergence 10
dft_spherical_points 1202
dft_radial_points 99
}

e = energy('b3lyp')

print_out('Grab this energy {0}'.format(e))
--------------------------------------------------------------------------

    Molecular point group: cs

    Geometry (in Bohr), charge = 0, multiplicity = 2:

       Center              X                  Y                   Z               Mass
    ------------   -----------------  -----------------  -----------------  -----------------
         C           -0.323662787910    -0.001526327152     0.000000000000    12.000000000000
         C            0.061179025090    -1.403780509152    -2.430230227200    12.000000000000
         C            0.061291315890     2.808524386348     0.000000000000    12.000000000000
         C            0.061179025090    -1.403780509152     2.430230227200    12.000000000000
         H            2.087317589190    -1.648847612652    -2.849393905500     1.007825032230
         H           -0.764148654410    -0.387774138852    -4.026901566500     1.007825032230
         H           -0.766689268910    -3.296413976652    -2.358847882900     1.007825032230
         H            2.086837542090     3.299758640248     0.000000000000     1.007825032230
         H           -0.766340523410     3.686507936848     1.677651077000     1.007825032230
         H           -0.766340523410     3.686507936848    -1.677651077000     1.007825032230
         H            2.087317589190    -1.648847612652     2.849393905500     1.007825032230
         H           -0.766689268910    -3.296413976652     2.358847882900     1.007825032230
         H           -0.764148654410    -0.387774138852     4.026901566500     1.007825032230

  Charge       = 0
  Multiplicity = 2
  Basis Set: ANONYMOUS52A58213
    Blend: 6-31G_2DFP_
  Basis Set: (ANONYMOUS52A58213 AUX)
    Blend: DEF2-UNIVERSAL-JKFIT

    Orbital Energies [Eh]
    ---------------------

    Alpha Occupied:

       1Ap   -10.181113     2Ap   -10.167560     1App  -10.167300
       3Ap   -10.167268     4Ap    -0.796722     2App   -0.686008
       5Ap    -0.685766     6Ap    -0.530778     7Ap    -0.440536
       3App   -0.434263     8Ap    -0.434117     4App   -0.382560
       9Ap    -0.382490     5App   -0.363729     6App   -0.337875
      10Ap    -0.337745    11Ap    -0.169285

    Alpha Virtual:

      12Ap     0.076102    13Ap     0.134082     7App    0.134148
       8App    0.142363    14Ap     0.142485    15Ap     0.154818
       9App    0.178563    16Ap     0.178642    17Ap     0.202438
      10App    0.214459    18Ap     0.275186    11App    0.275721
      19Ap     0.399205    12App    0.399286    20Ap     0.403555
      13App    0.424329    21Ap     0.424438    22Ap     0.456030
      14App    0.495104    23Ap     0.495224    15App    0.511825
      24Ap     0.513570    25Ap     0.577822    16App    0.578417
      26Ap     0.590794    17App    0.591383    27Ap     0.602127
      28Ap     0.624351    18App    0.631423    29Ap     0.635429
      19App    0.635482    20App    0.662899    30Ap     0.662963
      31Ap     0.683382    21App    0.683441    32Ap     0.735194
      22App    0.825345    33Ap     0.825776    23App    0.852910
      34Ap     0.914153    24App    0.914436    25App    0.942799
      35Ap     0.945181    26App    0.959643    36Ap     0.961036
      37Ap     1.002344    27App    1.127001    38Ap     1.127420
      39Ap     1.141880    28App    1.162400    40Ap     1.162596
      41Ap     1.222436    42Ap     1.273425    29App    1.273741
      43Ap     1.278831    30App    1.324014    44Ap     1.324027
      45Ap     1.355824    46Ap     1.364064    31App    1.364395
      32App    1.390940    47Ap     1.404008    33App    1.404635
      48Ap     1.416369    34App    1.417146    35App    1.426481
      36App    1.490299    49Ap     1.498507    37App    1.541816
      50Ap     1.542364    38App    1.573275    51Ap     1.573283
      52Ap     1.669903    53Ap     1.738403    39App    1.739168
      54Ap     1.766802    55Ap     1.829711    40App    1.830689
      41App    1.970358    56Ap     2.015875    42App    2.017898
      57Ap     2.018105    58Ap     2.047390    43App    2.048984
      44App    2.737606    59Ap     2.738154    60Ap     2.789767
      45App    2.808694    61Ap     2.888473    46App    2.889069
      62Ap     2.893465    63Ap     2.929306    47App    2.929351
      48App    2.958757    49App    2.964532    64Ap     2.964820
      65Ap     3.034038    50App    3.070202    66Ap     3.070488
      51App    3.082781    67Ap     3.167731    52App    3.168143
      68Ap     3.178730    69Ap     3.284751    53App    3.284825
      70Ap     3.326416    54App    3.327065    71Ap     3.376976
      72Ap     3.488206    55App    3.488487    56App    3.513240
      73Ap     3.522959    74Ap     3.568177    57App    3.568636
      58App    3.573173    59App    3.666237    75Ap     3.666578
      76Ap     3.677706    77Ap     3.692277    60App    3.693166
      61App    3.771109    78Ap     3.773570    79Ap     3.788450
      80Ap     3.909871    62App    3.910416    81Ap     4.032615
      82Ap     4.107170    63App    4.109762    83Ap     4.146526
      64App    4.148295    84Ap     4.172069    85Ap     4.200688
      65App    4.200780    86Ap     4.201246    66App    4.209246
      87Ap     4.313636    67App    4.315171    68App    4.356539
      69App    4.422140    88Ap     4.422668    70App    4.441034
      89Ap     4.513437    71App    4.514273    90Ap     4.574377
      72App    4.575036    91Ap     4.610239    92Ap     4.704688
      73App    4.767060    93Ap     4.769270    74App    4.832992
      94Ap     4.959843    95Ap     5.000999    75App    5.001682
      96Ap     5.227023    76App    5.244930    97Ap     5.245873
      98Ap     5.352190    77App    5.353618    78App    5.473656

    Beta Occupied:

       1Ap   -10.168317     1App  -10.168051     2Ap   -10.168040
       3Ap   -10.167259     4Ap    -0.780070     2App   -0.683823
       5Ap    -0.683597     6Ap    -0.511648     3App   -0.430643
       7Ap    -0.430525     8Ap    -0.421322     4App   -0.376678
       9Ap    -0.376616     5App   -0.362724     6App   -0.332989
      10Ap    -0.332868

    Beta Virtual:

      11Ap    -0.025774    12Ap     0.077100    13Ap     0.134986
       7App    0.135036     8App    0.144204    14Ap     0.144329
      15Ap     0.163234     9App    0.182227    16Ap     0.182269
      10App    0.214682    17Ap     0.218000    18Ap     0.281614
      11App    0.282128    19Ap     0.400349    12App    0.400422
      20Ap     0.420089    13App    0.427148    21Ap     0.427263
      22Ap     0.467584    14App    0.497353    23Ap     0.497469
      15App    0.513545    24Ap     0.555985    25Ap     0.583366
      16App    0.583962    26Ap     0.597045    17App    0.597609
      27Ap     0.609514    28Ap     0.627669    18App    0.631569
      29Ap     0.638623    19App    0.638714    20App    0.666502
      30Ap     0.666568    31Ap     0.685919    21App    0.686019
      32Ap     0.757895    22App    0.830475    33Ap     0.830949
      23App    0.854227    34Ap     0.922145    24App    0.922359
      25App    0.944634    35Ap     0.954195    26App    0.964978
      36Ap     0.966268    37Ap     1.007663    27App    1.130956
      38Ap     1.131524    39Ap     1.155248    28App    1.167551
      40Ap     1.167584    41Ap     1.231268    42Ap     1.278984
      29App    1.279299    43Ap     1.284650    44Ap     1.329002
      30App    1.329024    45Ap     1.365212    46Ap     1.369341
      31App    1.369617    32App    1.391991    47Ap     1.407485
      33App    1.408154    48Ap     1.421366    34App    1.422136
      35App    1.426717    36App    1.491348    49Ap     1.508887
      37App    1.546280    50Ap     1.546829    38App    1.581080
      51Ap     1.581086    52Ap     1.674742    53Ap     1.744154
      39App    1.744934    54Ap     1.777558    55Ap     1.833551
      40App    1.834524    41App    1.971214    42App    2.024278
      56Ap     2.024360    57Ap     2.037337    58Ap     2.054045
      43App    2.055697    44App    2.746052    59Ap     2.746571
      45App    2.809102    60Ap     2.814920    61Ap     2.901472
      46App    2.901912    62Ap     2.923076    63Ap     2.931642
      47App    2.931660    48App    2.959807    49App    2.969037
      64Ap     2.969290    65Ap     3.041885    50App    3.080036
      66Ap     3.080301    51App    3.084579    67Ap     3.183560
      52App    3.184036    68Ap     3.186459    69Ap     3.289350
      53App    3.289473    70Ap     3.330314    54App    3.330926
      71Ap     3.384813    72Ap     3.490969    55App    3.491216
      56App    3.511617    73Ap     3.526062    57App    3.572803
      74Ap     3.581454    58App    3.582200    75Ap     3.671200
      59App    3.671358    76Ap     3.691016    77Ap     3.724402
      60App    3.724630    61App    3.775639    78Ap     3.778010
      79Ap     3.817129    80Ap     3.919697    62App    3.920209
      81Ap     4.043571    82Ap     4.114370    63App    4.116742
      83Ap     4.153535    64App    4.155341    84Ap     4.186009
      85Ap     4.206631    65App    4.206732    86Ap     4.209132
      66App    4.213648    87Ap     4.321020    67App    4.322597
      68App    4.359928    69App    4.430293    88Ap     4.430735
      70App    4.443904    89Ap     4.521111    71App    4.521925
      90Ap     4.584957    72App    4.585616    91Ap     4.617451
      92Ap     4.714951    73App    4.774052    93Ap     4.776179
      74App    4.835912    94Ap     4.964615    95Ap     5.004990
      75App    5.005691    96Ap     5.232700    76App    5.246694
      97Ap     5.247653    98Ap     5.358595    77App    5.360065
      78App    5.475955

    Final Occupation by Irrep:
             Ap   App
    DOCC [    10,    6 ]
    SOCC [     1,    0 ]

  @DF-UKS Final Energy:  -157.81306929797034

   => Energetics <=

    Nuclear Repulsion Energy =            125.2136721811531999
    One-Electron Energy =                -458.3926119780203408
    Two-Electron Energy =                 195.6692215930398504
    DFT Exchange-Correlation Energy =     -20.3033510941430428
    Empirical Dispersion Energy =           0.0000000000000000
    VV10 Nonlocal Energy =                  0.0000000000000000
    Total Energy =                       -157.8130692979703440

  UHF NO Occupations:
  HONO-2 :    9 Ap 1.9996026
  HONO-1 :   10 Ap 1.9989734
  HONO-0 :   11 Ap 1.0000000
  LUNO+0 :   12 Ap 0.0010266
  LUNO+1 :   13 Ap 0.0003974
  LUNO+2 :   14 Ap 0.0002001
  LUNO+3 :    7App 0.0001994

Computation Completed

Properties will be evaluated at   0.000000,   0.000000,   0.000000 [a0]

Properties computed using the SCF density matrix

  Nuclear Dipole Moment: [e a0]
     X:     0.8270      Y:     0.0033      Z:     0.0000

  Electronic Dipole Moment: [e a0]
     X:    -0.7483      Y:    -0.0033      Z:     0.0000

  Dipole Moment: [e a0]
     X:     0.0788      Y:    -0.0000      Z:     0.0000     Total:     0.0788

  Dipole Moment: [D]
     X:     0.2002      Y:    -0.0001      Z:     0.0000     Total:     0.2002

*** tstop() called on n065 at Fri Nov  5 15:34:06 2021
Module time:
	user time   =     541.00 seconds =       9.02 minutes
	system time =      11.75 seconds =       0.20 minutes
	total time  =        139 seconds =       2.32 minutes
Total time:
	user time   =     541.00 seconds =       9.02 minutes
	system time =      11.75 seconds =       0.20 minutes
	total time  =        139 seconds =       2.32 minutes
Grab this energy -157.81306929797034
    Psi4 stopped on: Friday, 05 November 2021 03:34PM
    Psi4 wall time for execution: 0:02:19.02

*** Psi4 exiting successfully. Buy a developer a beer!
