                               Psi4 1.4a2.dev629

  ==> Input File <==

--------------------------------------------------------------------------
import os
memory 14 GB

molecule {
 C   -0.3233382529   -0.0053452223    0.0000000000
 C    0.0610659041   -1.4017232066   -2.4259224377
 C    0.0611682629    2.8017041639    0.0000000000
 C    0.0610659041   -1.4017232066    2.4259224377
 H    2.0870555019   -1.6431979733   -2.8476107194
 H   -0.7646544231   -0.3876670791   -4.0261758367
 H   -0.7662649882   -3.2910420304   -2.3482001906
 H    2.0865611221    3.2887070915   -0.0000000000
 H   -0.7657014991    3.6810851160    1.6761099452
 H   -0.7657014991    3.6810851160   -1.6761099452
 H    2.0870555019   -1.6431979733    2.8476107194
 H   -0.7662649882   -3.2910420304    2.3482001906
 H   -0.7646544231   -0.3876670791    4.0261758367
units bohr
0 2
}

basis {

assign 6-31g_2dfp_

[ 6-31g_2dfp_ ]

spherical

!----------------------------------------------------------------------
! Basis Set Exchange
! Version v0.8.13
! https://www.basissetexchange.org
!----------------------------------------------------------------------
!   Basis set: 6-31G(2df,p)
! Description: 6-31G(2df,p)
!        Role: orbital
!     Version: 0  (Data from the original Basis Set Exchange)
!----------------------------------------------------------------------

****
H     0
S    3   1.00
     18.7311370              0.03349460
      2.8253937              0.23472695
      0.6401217              0.81375733
S    1   1.00
      0.1612778              1.00000000
P    1   1.00
      1.5000000              1.0000000
P    1   1.00
      0.3750000              1.0000000
****
B     0
S    6   1.00
   2068.8823000              0.0018663
    310.6495700              0.0142515
     70.6830330              0.0695516
     19.8610800              0.2325729
      6.2993048              0.4670787
      2.1270270              0.3634314
SP   3   1.00
      4.7279710             -0.1303938              0.0745976
      1.1903377             -0.1307889              0.3078467
      0.3594117              1.1309444              0.7434568
SP   1   1.00
      0.1267512              1.0000000              1.0000000
D    1   1.00
      0.8020000              1.0000000
D    1   1.00
      0.2005000              1.0000000
F    1   1.00
      0.5000000              1.0000000
****
C     0
S    6   1.00
   3047.5249000              0.0018347
    457.3695100              0.0140373
    103.9486900              0.0688426
     29.2101550              0.2321844
      9.2866630              0.4679413
      3.1639270              0.3623120
SP   3   1.00
      7.8682724             -0.1193324              0.0689991
      1.8812885             -0.1608542              0.3164240
      0.5442493              1.1434564              0.7443083
SP   1   1.00
      0.1687144              1.0000000              1.0000000
D    1   1.00
      1.2520000              1.0000000
D    1   1.00
      0.3130000              1.0000000
F    1   1.00
      0.8000000              1.0000000
****
N     0
S    6   1.00
   4173.5110000              0.0018348
    627.4579000              0.0139950
    142.9021000              0.0685870
     40.2343300              0.2322410
     12.8202100              0.4690700
      4.3904370              0.3604550
SP   3   1.00
     11.6263580             -0.1149610              0.0675800
      2.7162800             -0.1691180              0.3239070
      0.7722180              1.1458520              0.7408950
SP   1   1.00
      0.2120313              1.0000000              1.0000000
D    1   1.00
      1.8260000              1.0000000
D    1   1.00
      0.4565000              1.0000000
F    1   1.00
      1.0000000              1.0000000
****
O     0
S    6   1.00
   5484.6717000              0.0018311
    825.2349500              0.0139501
    188.0469600              0.0684451
     52.9645000              0.2327143
     16.8975700              0.4701930
      5.7996353              0.3585209
SP   3   1.00
     15.5396160             -0.1107775              0.0708743
      3.5999336             -0.1480263              0.3397528
      1.0137618              1.1307670              0.7271586
SP   1   1.00
      0.2700058              1.0000000              1.0000000
D    1   1.00
      2.5840000              1.0000000
D    1   1.00
      0.6460000              1.0000000
F    1   1.00
      1.4000000              1.0000000
****
F     0
S    6   1.00
   7001.7130900              0.0018196169
   1051.3660900              0.0139160796
    239.2856900              0.0684053245
     67.3974453              0.233185760
     21.5199573              0.471267439
      7.40310130             0.356618546
SP   3   1.00
     20.8479528             -0.108506975            0.0716287243
      4.80830834            -0.146451658            0.3459121030
      1.34406986             1.128688580            0.7224699570
SP   1   1.00
      0.358151393            1.0000000              1.0000000
D    1   1.00
      3.5000000              1.0000000
D    1   1.00
      0.8750000              1.0000000
F    1   1.00
      1.8500000              1.0000000
****
Al     0
S    6   1.00
  13983.1000000              0.00194267
   2098.7500000              0.0148599
    477.7050000              0.0728494
    134.3600000              0.2468300
     42.8709000              0.4872580
     14.5189000              0.3234960
SP   6   1.00
    239.6680000             -0.00292619             0.00460285
     57.4419000             -0.0374080              0.0331990
     18.2859000             -0.1144870              0.1362820
      6.5991400              0.1156350              0.3304760
      2.4904900              0.6125950              0.4491460
      0.9445400              0.3937990              0.2657040
SP   3   1.00
      1.2779000             -0.2276060             -0.0175130
      0.3975900              0.00144583             0.2445330
      0.1600950              1.0927900              0.8049340
SP   1   1.00
      0.0556577              1.0000000              1.0000000
D    1   1.00
      0.6500000              1.0000000
D    1   1.00
      0.1625000              1.0000000
F    1   1.00
      0.2500000              1.0000000
****
Si     0
S    6   1.00
  16115.9000000              0.00195948
   2425.5800000              0.01492880
    553.8670000              0.07284780
    156.3400000              0.24613000
     50.0683000              0.48591400
     17.0178000              0.32500200
SP   6   1.00
    292.7180000             -0.00278094             0.00443826
     69.8731000             -0.03571460             0.03266790
     22.3363000             -0.11498500             0.13472100
      8.1503900              0.09356340             0.32867800
      3.1345800              0.60301700             0.44964000
      1.2254300              0.41895900             0.26137200
SP   3   1.00
      1.7273800             -0.24463000            -0.01779510
      0.5729220              0.00431572             0.25353900
      0.2221920              1.09818000             0.80066900
SP   1   1.00
      0.0778369              1.00000000             1.00000000
D    1   1.00
      0.9000000              1.0000000
D    1   1.00
      0.2250000              1.0000000
F    1   1.00
      0.3200000              1.0000000
****
P     0
S    6   1.00
  19413.3000000              0.0018516
   2909.4200000              0.0142062
    661.3640000              0.0699995
    185.7590000              0.2400790
     59.1943000              0.4847620
     20.0310000              0.3352000
SP   6   1.00
    339.4780000             -0.00278217             0.00456462
     81.0101000             -0.0360499              0.03369360
     25.8780000             -0.1166310              0.13975500
      9.4522100              0.0968328              0.33936200
      3.6656600              0.6144180              0.45092100
      1.4674600              0.4037980              0.23858600
SP   3   1.00
      2.1562300             -0.2529230             -0.01776530
      0.7489970              0.0328517              0.27405800
      0.2831450              1.0812500              0.78542100
SP   1   1.00
      0.0998317              1.0000000              1.00000000
D    1   1.00
      1.1000000              1.0000000
D    1   1.00
      0.2750000              1.0000000
F    1   1.00
      0.4500000              1.0000000
****
S     0
S    6   1.00
  21917.1000000              0.0018690
   3301.4900000              0.0142300
    754.1460000              0.0696960
    212.7110000              0.2384870
     67.9896000              0.4833070
     23.0515000              0.3380740
SP   6   1.00
    423.7350000             -0.0023767              0.0040610
    100.7100000             -0.0316930              0.0306810
     32.1599000             -0.1133170              0.1304520
     11.8079000              0.0560900              0.3272050
      4.6311000              0.5922550              0.4528510
      1.8702500              0.4550060              0.2560420
SP   3   1.00
      2.6158400             -0.2503740             -0.0145110
      0.9221670              0.0669570              0.3102630
      0.3412870              1.0545100              0.7544830
SP   1   1.00
      0.1171670              1.0000000              1.0000000
D    1   1.00
      1.3000000              1.0000000
D    1   1.00
      0.3250000              1.0000000
F    1   1.00
      0.5500000              1.0000000
****
Cl     0
S    6   1.00
  25180.1000000              0.0018330
   3780.3500000              0.0140340
    860.4740000              0.0690970
    242.1450000              0.2374520
     77.3349000              0.4830340
     26.2470000              0.3398560
SP   6   1.00
    491.7650000             -0.0022974              0.0039894
    116.9840000             -0.0307140              0.0303180
     37.4153000             -0.1125280              0.1298800
     13.7834000              0.0450160              0.3279510
      5.4521500              0.5893530              0.4535270
      2.2258800              0.4652060              0.2521540
SP   3   1.00
      3.1864900             -0.2518300             -0.0142990
      1.1442700              0.0615890              0.3235720
      0.4203770              1.0601800              0.7435070
SP   1   1.00
      0.1426570              1.0000000              1.0000000
D    1   1.00
      1.5000000              1.0000000
D    1   1.00
      0.3750000              1.0000000
F    1   1.00
      0.7000000              1.0000000
****
}

set {
reference uhf
freeze_core true
e_convergence 10
d_convergence 10
dft_spherical_points 1202
dft_radial_points 99
}

e = energy('b3lyp')

print_out('Grab this energy {0}'.format(e))
--------------------------------------------------------------------------

    Molecular point group: cs

    Geometry (in Bohr), charge = 0, multiplicity = 2:

       Center              X                  Y                   Z               Mass
    ------------   -----------------  -----------------  -----------------  -----------------
         C           -0.323338600179    -0.003979694858     0.000000000000    12.000000000000
         C            0.061065556821    -1.400357679158    -2.425922437700    12.000000000000
         C            0.061167915621     2.803069691342     0.000000000000    12.000000000000
         C            0.061065556821    -1.400357679158     2.425922437700    12.000000000000
         H            2.087055154621    -1.641832445858    -2.847610719400     1.007825032230
         H           -0.764654770379    -0.386301551658    -4.026175836700     1.007825032230
         H           -0.766265335479    -3.289676502958    -2.348200190600     1.007825032230
         H            2.086560774821     3.290072618942     0.000000000000     1.007825032230
         H           -0.765701846379     3.682450643442     1.676109945200     1.007825032230
         H           -0.765701846379     3.682450643442    -1.676109945200     1.007825032230
         H            2.087055154621    -1.641832445858     2.847610719400     1.007825032230
         H           -0.766265335479    -3.289676502958     2.348200190600     1.007825032230
         H           -0.764654770379    -0.386301551658     4.026175836700     1.007825032230

  Charge       = 0
  Multiplicity = 2
  Basis Set: ANONYMOUSB1B66227
    Blend: 6-31G_2DFP_
  Basis Set: (ANONYMOUSB1B66227 AUX)
    Blend: DEF2-UNIVERSAL-JKFIT

    Orbital Energies [Eh]
    ---------------------

    Alpha Occupied:

       1Ap   -10.180341     2Ap   -10.167055     1App  -10.167013
       3Ap   -10.166976     4Ap    -0.797769     2App   -0.686376
       5Ap    -0.685997     6Ap    -0.530775     7Ap    -0.441131
       8Ap    -0.434879     3App   -0.434458     4App   -0.382717
       9Ap    -0.382483     5App   -0.363609     6App   -0.338518
      10Ap    -0.337478    11Ap    -0.168960

    Alpha Virtual:

      12Ap     0.076072     7App    0.134142    13Ap     0.134170
      14Ap     0.142451     8App    0.142803    15Ap     0.154879
      16Ap     0.178772     9App    0.178785    17Ap     0.203543
      10App    0.214803    18Ap     0.275698    11App    0.276272
      19Ap     0.399103    12App    0.399355    20Ap     0.403344
      13App    0.424097    21Ap     0.424097    22Ap     0.456593
      23Ap     0.495340    14App    0.495438    15App    0.512160
      24Ap     0.513977    25Ap     0.578616    16App    0.579013
      17App    0.591638    26Ap     0.591646    27Ap     0.602573
      28Ap     0.624751    18App    0.631775    29Ap     0.636110
      19App    0.636397    20App    0.663345    30Ap     0.663479
      21App    0.683803    31Ap     0.683900    32Ap     0.734994
      33Ap     0.825300    22App    0.825514    23App    0.853916
      24App    0.914910    34Ap     0.915133    25App    0.944126
      35Ap     0.944620    36Ap     0.961125    26App    0.961459
      37Ap     1.003454    38Ap     1.127817    27App    1.128364
      39Ap     1.142263    40Ap     1.162873    28App    1.163662
      41Ap     1.223328    29App    1.274026    42Ap     1.274958
      43Ap     1.279350    44Ap     1.324262    30App    1.324452
      45Ap     1.355995    46Ap     1.365794    31App    1.366320
      32App    1.392443    47Ap     1.403998    33App    1.404097
      34App    1.416793    48Ap     1.417428    35App    1.427923
      36App    1.491491    49Ap     1.499078    50Ap     1.542827
      37App    1.542835    38App    1.574427    51Ap     1.574465
      52Ap     1.669822    53Ap     1.739221    39App    1.739624
      54Ap     1.768311    55Ap     1.831134    40App    1.831649
      41App    1.971730    56Ap     2.018296    42App    2.018474
      57Ap     2.019625    58Ap     2.052115    43App    2.053172
      59Ap     2.738248    44App    2.738724    60Ap     2.790925
      45App    2.811423    61Ap     2.889389    46App    2.890514
      62Ap     2.894937    63Ap     2.929101    47App    2.929890
      48App    2.958990    49App    2.964235    64Ap     2.964522
      65Ap     3.034001    66Ap     3.070796    50App    3.071786
      51App    3.084349    52App    3.168724    67Ap     3.168787
      68Ap     3.180654    69Ap     3.285014    53App    3.285610
      54App    3.326778    70Ap     3.327534    71Ap     3.375606
      72Ap     3.489639    55App    3.490659    56App    3.514025
      73Ap     3.525338    57App    3.568151    74Ap     3.568628
      58App    3.575145    59App    3.666085    75Ap     3.666688
      76Ap     3.679658    60App    3.694097    77Ap     3.694129
      78Ap     3.776026    61App    3.777556    79Ap     3.789167
      80Ap     3.911763    62App    3.912686    81Ap     4.034437
      82Ap     4.111046    63App    4.111691    83Ap     4.147148
      64App    4.149093    84Ap     4.173259    85Ap     4.202071
      86Ap     4.203248    65App    4.203464    66App    4.210876
      87Ap     4.315402    67App    4.316535    68App    4.358980
      88Ap     4.424392    69App    4.424504    70App    4.443440
      89Ap     4.516701    71App    4.516978    90Ap     4.578114
      72App    4.578132    91Ap     4.617836    92Ap     4.709463
      93Ap     4.774053    73App    4.775153    74App    4.836888
      94Ap     4.962824    75App    5.002701    95Ap     5.003253
      96Ap     5.228041    97Ap     5.246791    76App    5.246841
      98Ap     5.354939    77App    5.356067    78App    5.479348

    Beta Occupied:

       1Ap   -10.167807     1App  -10.167768     2Ap   -10.167749
       3Ap   -10.166519     4Ap    -0.781094     2App   -0.684166
       5Ap    -0.683812     6Ap    -0.511747     7Ap    -0.431256
       3App   -0.430832     8Ap    -0.421818     4App   -0.376762
       9Ap    -0.376609     5App   -0.362592     6App   -0.333651
      10Ap    -0.332591

    Beta Virtual:

      11Ap    -0.025742    12Ap     0.077081    13Ap     0.135042
       7App    0.135048    14Ap     0.144332     8App    0.144663
      15Ap     0.163339    16Ap     0.182431     9App    0.182468
      10App    0.215032    17Ap     0.218926    18Ap     0.282080
      11App    0.282585    19Ap     0.400275    12App    0.400522
      20Ap     0.419791    21Ap     0.426897    13App    0.426919
      22Ap     0.468500    23Ap     0.497599    14App    0.497701
      15App    0.513896    24Ap     0.556321    25Ap     0.584145
      16App    0.584587    26Ap     0.597815    17App    0.597826
      27Ap     0.609998    28Ap     0.628125    18App    0.631930
      29Ap     0.639385    19App    0.639697    20App    0.666915
      30Ap     0.667037    21App    0.686437    31Ap     0.686537
      32Ap     0.757517    33Ap     0.830473    22App    0.830679
      23App    0.855269    24App    0.922855    34Ap     0.923131
      25App    0.945963    35Ap     0.953549    36Ap     0.966424
      26App    0.966773    37Ap     1.008694    38Ap     1.131889
      27App    1.132367    39Ap     1.155624    40Ap     1.167951
      28App    1.168729    41Ap     1.232300    29App    1.279677
      42Ap     1.280504    43Ap     1.285102    44Ap     1.329263
      30App    1.329430    45Ap     1.365411    46Ap     1.371087
      31App    1.371515    32App    1.393502    47Ap     1.407410
      33App    1.407613    34App    1.421848    48Ap     1.422470
      35App    1.428195    36App    1.492539    49Ap     1.509522
      50Ap     1.547228    37App    1.547250    51Ap     1.582311
      38App    1.582324    52Ap     1.674669    53Ap     1.744979
      39App    1.745389    54Ap     1.779091    55Ap     1.834975
      40App    1.835518    41App    1.972589    42App    2.024889
      56Ap     2.026006    57Ap     2.039675    58Ap     2.058847
      43App    2.059875    59Ap     2.746554    44App    2.747090
      45App    2.811835    60Ap     2.816060    61Ap     2.902165
      46App    2.903112    62Ap     2.924645    63Ap     2.931528
      47App    2.932425    48App    2.960055    49App    2.968779
      64Ap     2.969065    65Ap     3.041936    66Ap     3.080781
      50App    3.081620    51App    3.086164    67Ap     3.184334
      52App    3.184567    68Ap     3.188447    69Ap     3.289854
      53App    3.290368    54App    3.330580    70Ap     3.331342
      71Ap     3.383425    72Ap     3.492359    55App    3.493392
      56App    3.512395    73Ap     3.528383    57App    3.574996
      58App    3.581546    74Ap     3.581925    59App    3.670906
      75Ap     3.671353    76Ap     3.692952    60App    3.725607
      77Ap     3.725891    78Ap     3.780582    61App    3.782072
      79Ap     3.817682    80Ap     3.921587    62App    3.922501
      81Ap     4.045324    82Ap     4.117910    63App    4.118461
      83Ap     4.154380    64App    4.156276    84Ap     4.187320
      85Ap     4.208446    65App    4.209381    86Ap     4.210792
      66App    4.215355    87Ap     4.322780    67App    4.324038
      68App    4.362343    88Ap     4.432614    69App    4.432707
      70App    4.446328    89Ap     4.524444    71App    4.524816
      90Ap     4.588688    72App    4.588738    91Ap     4.625051
      92Ap     4.719810    93Ap     4.780971    73App    4.782142
      74App    4.839805    94Ap     4.967616    75App    5.006755
      95Ap     5.007280    96Ap     5.233757    97Ap     5.248580
      76App    5.248620    98Ap     5.361393    77App    5.362574
      78App    5.481669

    Final Occupation by Irrep:
             Ap   App
    DOCC [    10,    6 ]
    SOCC [     1,    0 ]

  @DF-UKS Final Energy:  -157.81306558188336

   => Energetics <=

    Nuclear Repulsion Energy =            125.3946666347411849
    One-Electron Energy =                -458.7489868185748492
    Two-Electron Energy =                 195.8483996466273709
    DFT Exchange-Correlation Energy =     -20.3071450446770321
    Empirical Dispersion Energy =           0.0000000000000000
    VV10 Nonlocal Energy =                  0.0000000000000000
    Total Energy =                       -157.8130655818833645

  UHF NO Occupations:
  HONO-2 :    9 Ap 1.9996009
  HONO-1 :   10 Ap 1.9989805
  HONO-0 :   11 Ap 1.0000000
  LUNO+0 :   12 Ap 0.0010195
  LUNO+1 :   13 Ap 0.0003991
  LUNO+2 :   14 Ap 0.0001986
  LUNO+3 :    7App 0.0001965

Computation Completed

Properties will be evaluated at   0.000000,   0.000000,   0.000000 [a0]

Properties computed using the SCF density matrix

  Nuclear Dipole Moment: [e a0]
     X:     0.8272      Y:     0.0096      Z:     0.0000

  Electronic Dipole Moment: [e a0]
     X:    -0.7493      Y:    -0.0108      Z:     0.0000

  Dipole Moment: [e a0]
     X:     0.0779      Y:    -0.0012      Z:     0.0000     Total:     0.0779

  Dipole Moment: [D]
     X:     0.1980      Y:    -0.0031      Z:     0.0000     Total:     0.1981

*** tstop() called on n046 at Fri Nov  5 13:41:53 2021
Module time:
	user time   =     543.71 seconds =       9.06 minutes
	system time =      12.51 seconds =       0.21 minutes
	total time  =        139 seconds =       2.32 minutes
Total time:
	user time   =     543.71 seconds =       9.06 minutes
	system time =      12.51 seconds =       0.21 minutes
	total time  =        139 seconds =       2.32 minutes
Grab this energy -157.81306558188336
    Psi4 stopped on: Friday, 05 November 2021 01:41PM
    Psi4 wall time for execution: 0:02:19.94

*** Psi4 exiting successfully. Buy a developer a beer!
