                               Psi4 1.4a2.dev629

  ==> Input File <==

--------------------------------------------------------------------------
import os
memory 14 GB

molecule {
 C   -0.3233309946   -0.0010162233   -0.0050002360
 C    0.0609956268   -1.4055463417   -2.4313676180
 C    0.0602719732    2.8021392618    0.0062318205
 C    0.0620354169   -1.3932924217    2.4226016427
 H    2.0862228711   -1.6534299174   -2.8512556254
 H   -0.7651732336   -0.3977958688   -4.0323810356
 H   -0.7678411319   -3.2979072690   -2.3490614781
 H    2.0868768011    3.2879831642    0.0111374230
 H   -0.7681886148    3.6725605007    1.6860233982
 H   -0.7626859489    3.6877438324   -1.6671273015
 H    2.0875684320   -1.6358503774    2.8430883448
 H   -0.7632581416   -3.2863654235    2.3486419963
 H   -0.7661009325   -0.3792472297    4.0184686690
units bohr
0 2
}

basis {

assign 6-31g_2dfp_

[ 6-31g_2dfp_ ]

spherical

!----------------------------------------------------------------------
! Basis Set Exchange
! Version v0.8.13
! https://www.basissetexchange.org
!----------------------------------------------------------------------
!   Basis set: 6-31G(2df,p)
! Description: 6-31G(2df,p)
!        Role: orbital
!     Version: 0  (Data from the original Basis Set Exchange)
!----------------------------------------------------------------------

****
H     0
S    3   1.00
     18.7311370              0.03349460
      2.8253937              0.23472695
      0.6401217              0.81375733
S    1   1.00
      0.1612778              1.00000000
P    1   1.00
      1.5000000              1.0000000
P    1   1.00
      0.3750000              1.0000000
****
B     0
S    6   1.00
   2068.8823000              0.0018663
    310.6495700              0.0142515
     70.6830330              0.0695516
     19.8610800              0.2325729
      6.2993048              0.4670787
      2.1270270              0.3634314
SP   3   1.00
      4.7279710             -0.1303938              0.0745976
      1.1903377             -0.1307889              0.3078467
      0.3594117              1.1309444              0.7434568
SP   1   1.00
      0.1267512              1.0000000              1.0000000
D    1   1.00
      0.8020000              1.0000000
D    1   1.00
      0.2005000              1.0000000
F    1   1.00
      0.5000000              1.0000000
****
C     0
S    6   1.00
   3047.5249000              0.0018347
    457.3695100              0.0140373
    103.9486900              0.0688426
     29.2101550              0.2321844
      9.2866630              0.4679413
      3.1639270              0.3623120
SP   3   1.00
      7.8682724             -0.1193324              0.0689991
      1.8812885             -0.1608542              0.3164240
      0.5442493              1.1434564              0.7443083
SP   1   1.00
      0.1687144              1.0000000              1.0000000
D    1   1.00
      1.2520000              1.0000000
D    1   1.00
      0.3130000              1.0000000
F    1   1.00
      0.8000000              1.0000000
****
N     0
S    6   1.00
   4173.5110000              0.0018348
    627.4579000              0.0139950
    142.9021000              0.0685870
     40.2343300              0.2322410
     12.8202100              0.4690700
      4.3904370              0.3604550
SP   3   1.00
     11.6263580             -0.1149610              0.0675800
      2.7162800             -0.1691180              0.3239070
      0.7722180              1.1458520              0.7408950
SP   1   1.00
      0.2120313              1.0000000              1.0000000
D    1   1.00
      1.8260000              1.0000000
D    1   1.00
      0.4565000              1.0000000
F    1   1.00
      1.0000000              1.0000000
****
O     0
S    6   1.00
   5484.6717000              0.0018311
    825.2349500              0.0139501
    188.0469600              0.0684451
     52.9645000              0.2327143
     16.8975700              0.4701930
      5.7996353              0.3585209
SP   3   1.00
     15.5396160             -0.1107775              0.0708743
      3.5999336             -0.1480263              0.3397528
      1.0137618              1.1307670              0.7271586
SP   1   1.00
      0.2700058              1.0000000              1.0000000
D    1   1.00
      2.5840000              1.0000000
D    1   1.00
      0.6460000              1.0000000
F    1   1.00
      1.4000000              1.0000000
****
F     0
S    6   1.00
   7001.7130900              0.0018196169
   1051.3660900              0.0139160796
    239.2856900              0.0684053245
     67.3974453              0.233185760
     21.5199573              0.471267439
      7.40310130             0.356618546
SP   3   1.00
     20.8479528             -0.108506975            0.0716287243
      4.80830834            -0.146451658            0.3459121030
      1.34406986             1.128688580            0.7224699570
SP   1   1.00
      0.358151393            1.0000000              1.0000000
D    1   1.00
      3.5000000              1.0000000
D    1   1.00
      0.8750000              1.0000000
F    1   1.00
      1.8500000              1.0000000
****
Al     0
S    6   1.00
  13983.1000000              0.00194267
   2098.7500000              0.0148599
    477.7050000              0.0728494
    134.3600000              0.2468300
     42.8709000              0.4872580
     14.5189000              0.3234960
SP   6   1.00
    239.6680000             -0.00292619             0.00460285
     57.4419000             -0.0374080              0.0331990
     18.2859000             -0.1144870              0.1362820
      6.5991400              0.1156350              0.3304760
      2.4904900              0.6125950              0.4491460
      0.9445400              0.3937990              0.2657040
SP   3   1.00
      1.2779000             -0.2276060             -0.0175130
      0.3975900              0.00144583             0.2445330
      0.1600950              1.0927900              0.8049340
SP   1   1.00
      0.0556577              1.0000000              1.0000000
D    1   1.00
      0.6500000              1.0000000
D    1   1.00
      0.1625000              1.0000000
F    1   1.00
      0.2500000              1.0000000
****
Si     0
S    6   1.00
  16115.9000000              0.00195948
   2425.5800000              0.01492880
    553.8670000              0.07284780
    156.3400000              0.24613000
     50.0683000              0.48591400
     17.0178000              0.32500200
SP   6   1.00
    292.7180000             -0.00278094             0.00443826
     69.8731000             -0.03571460             0.03266790
     22.3363000             -0.11498500             0.13472100
      8.1503900              0.09356340             0.32867800
      3.1345800              0.60301700             0.44964000
      1.2254300              0.41895900             0.26137200
SP   3   1.00
      1.7273800             -0.24463000            -0.01779510
      0.5729220              0.00431572             0.25353900
      0.2221920              1.09818000             0.80066900
SP   1   1.00
      0.0778369              1.00000000             1.00000000
D    1   1.00
      0.9000000              1.0000000
D    1   1.00
      0.2250000              1.0000000
F    1   1.00
      0.3200000              1.0000000
****
P     0
S    6   1.00
  19413.3000000              0.0018516
   2909.4200000              0.0142062
    661.3640000              0.0699995
    185.7590000              0.2400790
     59.1943000              0.4847620
     20.0310000              0.3352000
SP   6   1.00
    339.4780000             -0.00278217             0.00456462
     81.0101000             -0.0360499              0.03369360
     25.8780000             -0.1166310              0.13975500
      9.4522100              0.0968328              0.33936200
      3.6656600              0.6144180              0.45092100
      1.4674600              0.4037980              0.23858600
SP   3   1.00
      2.1562300             -0.2529230             -0.01776530
      0.7489970              0.0328517              0.27405800
      0.2831450              1.0812500              0.78542100
SP   1   1.00
      0.0998317              1.0000000              1.00000000
D    1   1.00
      1.1000000              1.0000000
D    1   1.00
      0.2750000              1.0000000
F    1   1.00
      0.4500000              1.0000000
****
S     0
S    6   1.00
  21917.1000000              0.0018690
   3301.4900000              0.0142300
    754.1460000              0.0696960
    212.7110000              0.2384870
     67.9896000              0.4833070
     23.0515000              0.3380740
SP   6   1.00
    423.7350000             -0.0023767              0.0040610
    100.7100000             -0.0316930              0.0306810
     32.1599000             -0.1133170              0.1304520
     11.8079000              0.0560900              0.3272050
      4.6311000              0.5922550              0.4528510
      1.8702500              0.4550060              0.2560420
SP   3   1.00
      2.6158400             -0.2503740             -0.0145110
      0.9221670              0.0669570              0.3102630
      0.3412870              1.0545100              0.7544830
SP   1   1.00
      0.1171670              1.0000000              1.0000000
D    1   1.00
      1.3000000              1.0000000
D    1   1.00
      0.3250000              1.0000000
F    1   1.00
      0.5500000              1.0000000
****
Cl     0
S    6   1.00
  25180.1000000              0.0018330
   3780.3500000              0.0140340
    860.4740000              0.0690970
    242.1450000              0.2374520
     77.3349000              0.4830340
     26.2470000              0.3398560
SP   6   1.00
    491.7650000             -0.0022974              0.0039894
    116.9840000             -0.0307140              0.0303180
     37.4153000             -0.1125280              0.1298800
     13.7834000              0.0450160              0.3279510
      5.4521500              0.5893530              0.4535270
      2.2258800              0.4652060              0.2521540
SP   3   1.00
      3.1864900             -0.2518300             -0.0142990
      1.1442700              0.0615890              0.3235720
      0.4203770              1.0601800              0.7435070
SP   1   1.00
      0.1426570              1.0000000              1.0000000
D    1   1.00
      1.5000000              1.0000000
D    1   1.00
      0.3750000              1.0000000
F    1   1.00
      0.7000000              1.0000000
****
}

set {
reference uhf
freeze_core true
e_convergence 10
d_convergence 10
dft_spherical_points 1202
dft_radial_points 99
}

e = energy('b3lyp')

print_out('Grab this energy {0}'.format(e))
--------------------------------------------------------------------------

    Molecular point group: c1

    Geometry (in Bohr), charge = 0, multiplicity = 2:

       Center              X                  Y                   Z               Mass
    ------------   -----------------  -----------------  -----------------  -----------------
         C           -0.323333307261    -0.001455761779    -0.003549058063    12.000000000000
         C            0.060993314139    -1.405985880179    -2.429916440063    12.000000000000
         C            0.060269660539     2.801699723321     0.007682998437    12.000000000000
         C            0.062033104239    -1.393731960179     2.424052820637    12.000000000000
         H            2.086220558439    -1.653869455879    -2.849804447463     1.007825032230
         H           -0.765175546261    -0.398235407279    -4.030929857663     1.007825032230
         H           -0.767843444561    -3.298346807479    -2.347610300163     1.007825032230
         H            2.086874488439     3.287543625721     0.012588600937     1.007825032230
         H           -0.768190927461     3.672120962221     1.687474576137     1.007825032230
         H           -0.762688261561     3.687304293921    -1.665676123563     1.007825032230
         H            2.087566119339    -1.636289915879     2.844539522737     1.007825032230
         H           -0.763260454261    -3.286804961979     2.350093174237     1.007825032230
         H           -0.766103245161    -0.379686768179     4.019919846937     1.007825032230

  Charge       = 0
  Multiplicity = 2
  Basis Set: ANONYMOUS4A814EF6
    Blend: 6-31G_2DFP_
  Basis Set: (ANONYMOUS4A814EF6 AUX)
    Blend: DEF2-UNIVERSAL-JKFIT

    Orbital Energies [Eh]
    ---------------------

    Alpha Occupied:

       1A    -10.180341     2A    -10.167302     3A    -10.166985
       4A    -10.166759     5A     -0.797769     6A     -0.686421
       7A     -0.685951     8A     -0.530777     9A     -0.441128
      10A     -0.434935    11A     -0.434406    12A     -0.382750
      13A     -0.382448    14A     -0.363609    15A     -0.338402
      16A     -0.337593    17A     -0.168961

    Alpha Virtual:

      18A      0.076072    19A      0.133912    20A      0.134399
      21A      0.142476    22A      0.142779    23A      0.154880
      24A      0.178550    25A      0.179008    26A      0.203544
      27A      0.214807    28A      0.275775    29A      0.276197
      30A      0.399039    31A      0.399352    32A      0.403414
      33A      0.423968    34A      0.424237    35A      0.456595
      36A      0.494984    37A      0.495786    38A      0.512172
      39A      0.513987    40A      0.578552    41A      0.579057
      42A      0.591612    43A      0.591663    44A      0.602574
      45A      0.624765    46A      0.631761    47A      0.636046
      48A      0.636463    49A      0.663178    50A      0.663649
      51A      0.683613    52A      0.684098    53A      0.734993
      54A      0.824580    55A      0.826222    56A      0.853915
      57A      0.914757    58A      0.915298    59A      0.944052
      60A      0.944516    61A      0.961126    62A      0.961664
      63A      1.003470    64A      1.126957    65A      1.129286
      66A      1.142204    67A      1.162781    68A      1.163756
      69A      1.223332    70A      1.273954    71A      1.275034
      72A      1.279357    73A      1.324250    74A      1.324460
      75A      1.355992    76A      1.365267    77A      1.366786
      78A      1.392406    79A      1.403288    80A      1.404907
      81A      1.416565    82A      1.417678    83A      1.427935
      84A      1.491435    85A      1.499065    86A      1.542456
      87A      1.543215    88A      1.572605    89A      1.576400
      90A      1.669811    91A      1.738317    92A      1.740475
      93A      1.768366    94A      1.830887    95A      1.831922
      96A      1.971720    97A      2.017447    98A      2.018350
      99A      2.020566   100A      2.050060   101A      2.055316
     102A      2.738215   103A      2.738755   104A      2.790921
     105A      2.811440   106A      2.889274   107A      2.890622
     108A      2.894943   109A      2.929252   110A      2.929736
     111A      2.958989   112A      2.963438   113A      2.965349
     114A      3.034012   115A      3.070263   116A      3.072279
     117A      3.084382   118A      3.168017   119A      3.169566
     120A      3.180581   121A      3.284570   122A      3.286043
     123A      3.326208   124A      3.328123   125A      3.375666
     126A      3.489639   127A      3.490603   128A      3.514036
     129A      3.525301   130A      3.567230   131A      3.569398
     132A      3.575386   133A      3.666115   134A      3.666635
     135A      3.679689   136A      3.693657   137A      3.694558
     138A      3.775933   139A      3.777588   140A      3.789286
     141A      3.910768   142A      3.913683   143A      4.034479
     144A      4.110003   145A      4.112764   146A      4.146444
     147A      4.149765   148A      4.173236   149A      4.201381
     150A      4.202637   151A      4.204733   152A      4.210959
     153A      4.315144   154A      4.316751   155A      4.358993
     156A      4.423847   157A      4.424901   158A      4.443578
     159A      4.516008   160A      4.517699   161A      4.577161
     162A      4.579376   163A      4.617531   164A      4.709448
     165A      4.773283   166A      4.775916   167A      4.836950
     168A      4.962859   169A      5.001929   170A      5.003985
     171A      5.228018   172A      5.246539   173A      5.247120
     174A      5.354799   175A      5.356205   176A      5.479333

    Beta Occupied:

       1A    -10.168059     2A    -10.167744     3A    -10.167523
       4A    -10.166518     5A     -0.781095     6A     -0.684226
       7A     -0.683750     8A     -0.511748     9A     -0.431318
      10A     -0.430768    11A     -0.421822    12A     -0.376847
      13A     -0.376521    14A     -0.362592    15A     -0.333527
      16A     -0.332714

    Beta Virtual:

      17A     -0.025743    18A      0.077081    19A      0.134789
      20A      0.135301    21A      0.144359    22A      0.144638
      23A      0.163339    24A      0.182214    25A      0.182686
      26A      0.215037    27A      0.218926    28A      0.282121
      29A      0.282547    30A      0.400237    31A      0.400551
      32A      0.419796    33A      0.426766    34A      0.427063
      35A      0.468506    36A      0.497243    37A      0.498052
      38A      0.513907    39A      0.556329    40A      0.584131
      41A      0.584580    42A      0.597774    43A      0.597857
      44A      0.609993    45A      0.628147    46A      0.631923
      47A      0.639309    48A      0.639767    49A      0.666715
      50A      0.667237    51A      0.686197    52A      0.686786
      53A      0.757516    54A      0.829737    55A      0.831400
      56A      0.855268    57A      0.922714    58A      0.923282
      59A      0.945911    60A      0.953430    61A      0.966380
      62A      0.967019    63A      1.008707    64A      1.130995
      65A      1.133306    66A      1.155569    67A      1.167820
      68A      1.168875    69A      1.232302    70A      1.279538
      71A      1.280643    72A      1.285113    73A      1.329221
      74A      1.329468    75A      1.365409    76A      1.370404
      77A      1.372128    78A      1.393471    79A      1.406781
      80A      1.408349    81A      1.421619    82A      1.422711
      83A      1.428212    84A      1.492487    85A      1.509509
      86A      1.546764    87A      1.547718    88A      1.580623
      89A      1.584128    90A      1.674658    91A      1.744086
      92A      1.746232    93A      1.779142    94A      1.834725
      95A      1.835795    96A      1.972584    97A      2.023888
      98A      2.026996    99A      2.039646   100A      2.056859
     101A      2.061954   102A      2.746507   103A      2.747135
     104A      2.811852   105A      2.816056   106A      2.901978
     107A      2.903295   108A      2.924643   109A      2.931763
     110A      2.932198   111A      2.960057   112A      2.968016
     113A      2.969853   114A      3.041947   115A      3.080012
     116A      3.082223   117A      3.086336   118A      3.183875
     119A      3.185148   120A      3.188308   121A      3.289442
     122A      3.290772   123A      3.330005   124A      3.331937
     125A      3.383483   126A      3.492373   127A      3.493322
     128A      3.512411   129A      3.528356   130A      3.574771
     131A      3.580715   132A      3.583062   133A      3.670774
     134A      3.671480   135A      3.692977   136A      3.725282
     137A      3.726185   138A      3.780481   139A      3.782170
     140A      3.817755   141A      3.920581   142A      3.923504
     143A      4.045366   144A      4.116824   145A      4.119572
     146A      4.153713   147A      4.156917   148A      4.187297
     149A      4.207286   150A      4.210376   151A      4.210906
     152A      4.215461   153A      4.322551   154A      4.324226
     155A      4.362355   156A      4.432057   157A      4.433061
     158A      4.446525   159A      4.523894   160A      4.525386
     161A      4.587691   162A      4.590050   163A      4.624724
     164A      4.719794   165A      4.780201   166A      4.782904
     167A      4.839869   168A      4.967652   169A      5.005970
     170A      5.008024   171A      5.233729   172A      5.248327
     173A      5.248905   174A      5.361260   175A      5.362704
     176A      5.481654

    Final Occupation by Irrep:
              A
    DOCC [    16 ]
    SOCC [     1 ]

  @DF-UKS Final Energy:  -157.81306255709015

   => Energetics <=

    Nuclear Repulsion Energy =            125.3948593603289510
    One-Electron Energy =                -458.7493665926557469
    Two-Electron Energy =                 195.8485903489645068
    DFT Exchange-Correlation Energy =     -20.3071456737278524
    Empirical Dispersion Energy =           0.0000000000000000
    VV10 Nonlocal Energy =                  0.0000000000000000
    Total Energy =                       -157.8130625570901486

  UHF NO Occupations:
  HONO-2 :   15  A 1.9996009
  HONO-1 :   16  A 1.9989804
  HONO-0 :   17  A 1.0000000
  LUNO+0 :   18  A 0.0010196
  LUNO+1 :   19  A 0.0003991
  LUNO+2 :   20  A 0.0001981
  LUNO+3 :   21  A 0.0001970

Computation Completed

Properties will be evaluated at   0.000000,   0.000000,   0.000000 [a0]

Properties computed using the SCF density matrix

  Nuclear Dipole Moment: [e a0]
     X:     0.8272      Y:    -0.0031      Z:     0.0102

  Electronic Dipole Moment: [e a0]
     X:    -0.7493      Y:     0.0031      Z:    -0.0110

  Dipole Moment: [e a0]
     X:     0.0779      Y:    -0.0001      Z:    -0.0008     Total:     0.0779

  Dipole Moment: [D]
     X:     0.1980      Y:    -0.0001      Z:    -0.0019     Total:     0.1981

*** tstop() called on n079 at Fri Nov  5 11:57:09 2021
Module time:
	user time   =     498.90 seconds =       8.32 minutes
	system time =       4.69 seconds =       0.08 minutes
	total time  =        127 seconds =       2.12 minutes
Total time:
	user time   =     498.90 seconds =       8.32 minutes
	system time =       4.69 seconds =       0.08 minutes
	total time  =        127 seconds =       2.12 minutes
Grab this energy -157.81306255709015
    Psi4 stopped on: Friday, 05 November 2021 11:57AM
    Psi4 wall time for execution: 0:02:06.63

*** Psi4 exiting successfully. Buy a developer a beer!
