                               Psi4 1.4a2.dev629

  ==> Input File <==

--------------------------------------------------------------------------
import os
memory 14 GB

molecule {
 C   -0.3230370065   -0.0000032677   -0.0053403577
 C    0.0608726994   -1.3976945599   -2.4219844691
 C    0.0608812594    2.7963106474   -0.0011112013
 C    0.0611298726   -1.3986110629    2.4213494825
 H    2.0868501230   -1.6409681893   -2.8410285566
 H   -0.7656099148   -0.3849983716   -4.0190844487
 H   -0.7649395364   -3.2891242960   -2.3433793869
 H    2.0865050831    3.2815063718    0.0009960975
 H   -0.7646460266    3.6751037578    1.6768442469
 H   -0.7663158449    3.6733898811   -1.6753882946
 H    2.0864398489   -1.6406309010    2.8424365325
 H   -0.7658689312   -3.2882016899    2.3445882876
 H   -0.7648695027   -0.3861026334    4.0211020679
units bohr
0 2
}

basis {

assign 6-31g_2dfp_

[ 6-31g_2dfp_ ]

spherical

!----------------------------------------------------------------------
! Basis Set Exchange
! Version v0.8.13
! https://www.basissetexchange.org
!----------------------------------------------------------------------
!   Basis set: 6-31G(2df,p)
! Description: 6-31G(2df,p)
!        Role: orbital
!     Version: 0  (Data from the original Basis Set Exchange)
!----------------------------------------------------------------------

****
H     0
S    3   1.00
     18.7311370              0.03349460
      2.8253937              0.23472695
      0.6401217              0.81375733
S    1   1.00
      0.1612778              1.00000000
P    1   1.00
      1.5000000              1.0000000
P    1   1.00
      0.3750000              1.0000000
****
B     0
S    6   1.00
   2068.8823000              0.0018663
    310.6495700              0.0142515
     70.6830330              0.0695516
     19.8610800              0.2325729
      6.2993048              0.4670787
      2.1270270              0.3634314
SP   3   1.00
      4.7279710             -0.1303938              0.0745976
      1.1903377             -0.1307889              0.3078467
      0.3594117              1.1309444              0.7434568
SP   1   1.00
      0.1267512              1.0000000              1.0000000
D    1   1.00
      0.8020000              1.0000000
D    1   1.00
      0.2005000              1.0000000
F    1   1.00
      0.5000000              1.0000000
****
C     0
S    6   1.00
   3047.5249000              0.0018347
    457.3695100              0.0140373
    103.9486900              0.0688426
     29.2101550              0.2321844
      9.2866630              0.4679413
      3.1639270              0.3623120
SP   3   1.00
      7.8682724             -0.1193324              0.0689991
      1.8812885             -0.1608542              0.3164240
      0.5442493              1.1434564              0.7443083
SP   1   1.00
      0.1687144              1.0000000              1.0000000
D    1   1.00
      1.2520000              1.0000000
D    1   1.00
      0.3130000              1.0000000
F    1   1.00
      0.8000000              1.0000000
****
N     0
S    6   1.00
   4173.5110000              0.0018348
    627.4579000              0.0139950
    142.9021000              0.0685870
     40.2343300              0.2322410
     12.8202100              0.4690700
      4.3904370              0.3604550
SP   3   1.00
     11.6263580             -0.1149610              0.0675800
      2.7162800             -0.1691180              0.3239070
      0.7722180              1.1458520              0.7408950
SP   1   1.00
      0.2120313              1.0000000              1.0000000
D    1   1.00
      1.8260000              1.0000000
D    1   1.00
      0.4565000              1.0000000
F    1   1.00
      1.0000000              1.0000000
****
O     0
S    6   1.00
   5484.6717000              0.0018311
    825.2349500              0.0139501
    188.0469600              0.0684451
     52.9645000              0.2327143
     16.8975700              0.4701930
      5.7996353              0.3585209
SP   3   1.00
     15.5396160             -0.1107775              0.0708743
      3.5999336             -0.1480263              0.3397528
      1.0137618              1.1307670              0.7271586
SP   1   1.00
      0.2700058              1.0000000              1.0000000
D    1   1.00
      2.5840000              1.0000000
D    1   1.00
      0.6460000              1.0000000
F    1   1.00
      1.4000000              1.0000000
****
F     0
S    6   1.00
   7001.7130900              0.0018196169
   1051.3660900              0.0139160796
    239.2856900              0.0684053245
     67.3974453              0.233185760
     21.5199573              0.471267439
      7.40310130             0.356618546
SP   3   1.00
     20.8479528             -0.108506975            0.0716287243
      4.80830834            -0.146451658            0.3459121030
      1.34406986             1.128688580            0.7224699570
SP   1   1.00
      0.358151393            1.0000000              1.0000000
D    1   1.00
      3.5000000              1.0000000
D    1   1.00
      0.8750000              1.0000000
F    1   1.00
      1.8500000              1.0000000
****
Al     0
S    6   1.00
  13983.1000000              0.00194267
   2098.7500000              0.0148599
    477.7050000              0.0728494
    134.3600000              0.2468300
     42.8709000              0.4872580
     14.5189000              0.3234960
SP   6   1.00
    239.6680000             -0.00292619             0.00460285
     57.4419000             -0.0374080              0.0331990
     18.2859000             -0.1144870              0.1362820
      6.5991400              0.1156350              0.3304760
      2.4904900              0.6125950              0.4491460
      0.9445400              0.3937990              0.2657040
SP   3   1.00
      1.2779000             -0.2276060             -0.0175130
      0.3975900              0.00144583             0.2445330
      0.1600950              1.0927900              0.8049340
SP   1   1.00
      0.0556577              1.0000000              1.0000000
D    1   1.00
      0.6500000              1.0000000
D    1   1.00
      0.1625000              1.0000000
F    1   1.00
      0.2500000              1.0000000
****
Si     0
S    6   1.00
  16115.9000000              0.00195948
   2425.5800000              0.01492880
    553.8670000              0.07284780
    156.3400000              0.24613000
     50.0683000              0.48591400
     17.0178000              0.32500200
SP   6   1.00
    292.7180000             -0.00278094             0.00443826
     69.8731000             -0.03571460             0.03266790
     22.3363000             -0.11498500             0.13472100
      8.1503900              0.09356340             0.32867800
      3.1345800              0.60301700             0.44964000
      1.2254300              0.41895900             0.26137200
SP   3   1.00
      1.7273800             -0.24463000            -0.01779510
      0.5729220              0.00431572             0.25353900
      0.2221920              1.09818000             0.80066900
SP   1   1.00
      0.0778369              1.00000000             1.00000000
D    1   1.00
      0.9000000              1.0000000
D    1   1.00
      0.2250000              1.0000000
F    1   1.00
      0.3200000              1.0000000
****
P     0
S    6   1.00
  19413.3000000              0.0018516
   2909.4200000              0.0142062
    661.3640000              0.0699995
    185.7590000              0.2400790
     59.1943000              0.4847620
     20.0310000              0.3352000
SP   6   1.00
    339.4780000             -0.00278217             0.00456462
     81.0101000             -0.0360499              0.03369360
     25.8780000             -0.1166310              0.13975500
      9.4522100              0.0968328              0.33936200
      3.6656600              0.6144180              0.45092100
      1.4674600              0.4037980              0.23858600
SP   3   1.00
      2.1562300             -0.2529230             -0.01776530
      0.7489970              0.0328517              0.27405800
      0.2831450              1.0812500              0.78542100
SP   1   1.00
      0.0998317              1.0000000              1.00000000
D    1   1.00
      1.1000000              1.0000000
D    1   1.00
      0.2750000              1.0000000
F    1   1.00
      0.4500000              1.0000000
****
S     0
S    6   1.00
  21917.1000000              0.0018690
   3301.4900000              0.0142300
    754.1460000              0.0696960
    212.7110000              0.2384870
     67.9896000              0.4833070
     23.0515000              0.3380740
SP   6   1.00
    423.7350000             -0.0023767              0.0040610
    100.7100000             -0.0316930              0.0306810
     32.1599000             -0.1133170              0.1304520
     11.8079000              0.0560900              0.3272050
      4.6311000              0.5922550              0.4528510
      1.8702500              0.4550060              0.2560420
SP   3   1.00
      2.6158400             -0.2503740             -0.0145110
      0.9221670              0.0669570              0.3102630
      0.3412870              1.0545100              0.7544830
SP   1   1.00
      0.1171670              1.0000000              1.0000000
D    1   1.00
      1.3000000              1.0000000
D    1   1.00
      0.3250000              1.0000000
F    1   1.00
      0.5500000              1.0000000
****
Cl     0
S    6   1.00
  25180.1000000              0.0018330
   3780.3500000              0.0140340
    860.4740000              0.0690970
    242.1450000              0.2374520
     77.3349000              0.4830340
     26.2470000              0.3398560
SP   6   1.00
    491.7650000             -0.0022974              0.0039894
    116.9840000             -0.0307140              0.0303180
     37.4153000             -0.1125280              0.1298800
     13.7834000              0.0450160              0.3279510
      5.4521500              0.5893530              0.4535270
      2.2258800              0.4652060              0.2521540
SP   3   1.00
      3.1864900             -0.2518300             -0.0142990
      1.1442700              0.0615890              0.3235720
      0.4203770              1.0601800              0.7435070
SP   1   1.00
      0.1426570              1.0000000              1.0000000
D    1   1.00
      1.5000000              1.0000000
D    1   1.00
      0.3750000              1.0000000
F    1   1.00
      0.7000000              1.0000000
****
}

set {
reference uhf
freeze_core true
e_convergence 10
d_convergence 10
dft_spherical_points 1202
dft_radial_points 99
}

e = energy('b3lyp')

print_out('Grab this energy {0}'.format(e))
--------------------------------------------------------------------------

    Molecular point group: c1

    Geometry (in Bohr), charge = 0, multiplicity = 2:

       Center              X                  Y                   Z               Mass
    ------------   -----------------  -----------------  -----------------  -----------------
         C           -0.323015205241    -0.000003176730    -0.003975437976    12.000000000000
         C            0.060894500659    -1.397694468930    -2.420619549376    12.000000000000
         C            0.060903060659     2.796310738370     0.000253718424    12.000000000000
         C            0.061151673859    -1.398610971930     2.422714402224    12.000000000000
         H            2.086871924259    -1.640968098330    -2.839663636876     1.007825032230
         H           -0.765588113541    -0.384998280630    -4.017719528976     1.007825032230
         H           -0.764917735141    -3.289124205030    -2.342014467176     1.007825032230
         H            2.086526884359     3.281506462770     0.002361017224     1.007825032230
         H           -0.764624225341     3.675103848770     1.678209166624     1.007825032230
         H           -0.766294043641     3.673389972070    -1.674023374876     1.007825032230
         H            2.086461650159    -1.640630810030     2.843801452224     1.007825032230
         H           -0.765847129941    -3.288201598930     2.345953207324     1.007825032230
         H           -0.764847701441    -0.386102542430     4.022466987624     1.007825032230

  Charge       = 0
  Multiplicity = 2
  Basis Set: ANONYMOUS2F205187
    Blend: 6-31G_2DFP_
  Basis Set: (ANONYMOUS2F205187 AUX)
    Blend: DEF2-UNIVERSAL-JKFIT

    Orbital Energies [Eh]
    ---------------------

    Alpha Occupied:

       1A    -10.179568     2A    -10.166690     3A    -10.166658
       4A    -10.166611     5A     -0.798819     6A     -0.686678
       7A     -0.686299     8A     -0.530774     9A     -0.441728
      10A     -0.435364    11A     -0.434935    12A     -0.382791
      13A     -0.382559    14A     -0.363490    15A     -0.338706
      16A     -0.337665    17A     -0.168635

    Alpha Virtual:

      18A      0.076043    19A      0.134182    20A      0.134207
      21A      0.142658    22A      0.143003    23A      0.154942
      24A      0.178947    25A      0.178961    26A      0.204637
      27A      0.215148    28A      0.276221    29A      0.276789
      30A      0.399073    31A      0.399333    32A      0.403136
      33A      0.423824    34A      0.423825    35A      0.457176
      36A      0.495569    37A      0.495666    38A      0.512498
      39A      0.514379    40A      0.579307    41A      0.579680
      42A      0.592179    43A      0.592198    44A      0.603037
      45A      0.625157    46A      0.632129    47A      0.636918
      48A      0.637230    49A      0.663820    50A      0.663953
      51A      0.684258    52A      0.684357    53A      0.734787
      54A      0.825142    55A      0.825361    56A      0.854917
      57A      0.915636    58A      0.915866    59A      0.944030
      60A      0.945467    61A      0.962078    62A      0.962432
      63A      1.004584    64A      1.128732    65A      1.129234
      66A      1.142615    67A      1.163641    68A      1.164427
      69A      1.224235    70A      1.274933    71A      1.275862
      72A      1.279865    73A      1.324596    74A      1.324785
      75A      1.356166    76A      1.367624    77A      1.368152
      78A      1.393947    79A      1.403695    80A      1.403820
      81A      1.417165    82A      1.417814    83A      1.429332
      84A      1.492712    85A      1.499659    86A      1.543563
      87A      1.543568    88A      1.575581    89A      1.575623
      90A      1.669762    91A      1.739849    92A      1.740247
      93A      1.769834    94A      1.832332    95A      1.832837
      96A      1.973120    97A      2.019591    98A      2.020594
      99A      2.020771   100A      2.056610   101A      2.057694
     102A      2.738843   103A      2.739319   104A      2.792079
     105A      2.814153   106A      2.890531   107A      2.891634
     108A      2.896451   109A      2.929282   110A      2.930085
     111A      2.959229   112A      2.963913   113A      2.964233
     114A      3.033960   115A      3.071738   116A      3.072771
     117A      3.085937   118A      3.169539   119A      3.169677
     120A      3.182551   121A      3.285501   122A      3.286117
     123A      3.327199   124A      3.327985   125A      3.374215
     126A      3.491394   127A      3.492455   128A      3.514798
     129A      3.527657   130A      3.568097   131A      3.568580
     132A      3.577283   133A      3.666029   134A      3.666652
     135A      3.681634   136A      3.695547   137A      3.695608
     138A      3.780518   139A      3.782015   140A      3.789867
     141A      3.913848   142A      3.914775   143A      4.036283
     144A      4.113905   145A      4.114477   146A      4.147907
     147A      4.149881   148A      4.174474   149A      4.203861
     150A      4.205123   151A      4.205947   152A      4.212454
     153A      4.316936   154A      4.318092   155A      4.361498
     156A      4.426459   157A      4.426580   158A      4.445877
     159A      4.519707   160A      4.519983   161A      4.581489
     162A      4.581917   163A      4.625169   164A      4.714252
     165A      4.780482   166A      4.781603   167A      4.840833
     168A      4.965889   169A      5.004326   170A      5.004865
     171A      5.229063   172A      5.248201   173A      5.248269
     174A      5.357560   175A      5.358693   176A      5.485113

    Beta Occupied:

       1A    -10.167444     2A    -10.167416     3A    -10.167381
       4A    -10.165773     5A     -0.782122     6A     -0.684448
       7A     -0.684093     8A     -0.511845     9A     -0.431718
      10A     -0.431295    11A     -0.422319    12A     -0.376798
      13A     -0.376648    14A     -0.362462    15A     -0.333844
      16A     -0.332783

    Beta Virtual:

      17A     -0.025712    18A      0.077063    19A      0.135074
      20A      0.135082    21A      0.144567    22A      0.144892
      23A      0.163446    24A      0.182633    25A      0.182671
      26A      0.215385    27A      0.219839    28A      0.282534
      29A      0.283032    30A      0.400278    31A      0.400532
      32A      0.419485    33A      0.426616    34A      0.426637
      35A      0.469438    36A      0.497841    37A      0.497943
      38A      0.514248    39A      0.556644    40A      0.584841
      41A      0.585265    42A      0.598289    43A      0.598319
      44A      0.610504    45A      0.628592    46A      0.632294
      47A      0.640264    48A      0.640605    49A      0.667348
      50A      0.667468    51A      0.686973    52A      0.687074
      53A      0.757131    54A      0.830333    55A      0.830543
      56A      0.856307    57A      0.923594    58A      0.923877
      59A      0.947306    60A      0.952866    61A      0.967402
      62A      0.967770    63A      1.009750    64A      1.132796
      65A      1.133246    66A      1.155988    67A      1.168720
      68A      1.169496    69A      1.233346    70A      1.280621
      71A      1.281445    72A      1.285550    73A      1.329596
      74A      1.329761    75A      1.365612    76A      1.372907
      77A      1.373336    78A      1.395015    79A      1.407080
      80A      1.407313    81A      1.422275    82A      1.422906
      83A      1.429636    84A      1.493759    85A      1.510168
      86A      1.547911    87A      1.547925    88A      1.583535
      89A      1.583547    90A      1.674616    91A      1.745611
      92A      1.746017    93A      1.780638    94A      1.836191
      95A      1.836724    96A      1.973983    97A      2.026023
      98A      2.027144    99A      2.042055   100A      2.063363
     101A      2.064425   102A      2.747052   103A      2.747589
     104A      2.814570   105A      2.817195   106A      2.903079
     107A      2.903993   108A      2.926221   109A      2.931878
     110A      2.932804   111A      2.960305   112A      2.968519
     113A      2.968833   114A      3.041982   115A      3.081812
     116A      3.082688   117A      3.087770   118A      3.185133
     119A      3.185284   120A      3.190260   121A      3.290516
     122A      3.291051   123A      3.330927   124A      3.331717
     125A      3.382019   126A      3.494105   127A      3.495186
     128A      3.513158   129A      3.530654   130A      3.577157
     131A      3.581491   132A      3.581881   133A      3.670745
     134A      3.671225   135A      3.694909   136A      3.726885
     137A      3.727182   138A      3.785108   139A      3.786592
     140A      3.818230   141A      3.923675   142A      3.924599
     143A      4.047105   144A      4.120480   145A      4.120969
     146A      4.155338   147A      4.157256   148A      4.188649
     149A      4.210788   150A      4.211556   151A      4.212478
     152A      4.217006   153A      4.324344   154A      4.325627
     155A      4.364840   156A      4.434782   157A      4.434896
     158A      4.448781   159A      4.527578   160A      4.527949
     161A      4.592094   162A      4.592531   163A      4.632361
     164A      4.724682   165A      4.787402   166A      4.788596
     167A      4.843748   168A      4.970704   169A      5.008421
     170A      5.008930   171A      5.234817   172A      5.250003
     173A      5.250059   174A      5.364069   175A      5.365254
     176A      5.487457

    Final Occupation by Irrep:
              A
    DOCC [    16 ]
    SOCC [     1 ]

  @DF-UKS Final Energy:  -157.81303460682321

   => Energetics <=

    Nuclear Repulsion Energy =            125.5762221873714282
    One-Electron Energy =                -459.1063928189263947
    Two-Electron Energy =                 196.0280901347515794
    DFT Exchange-Correlation Energy =     -20.3109541100198427
    Empirical Dispersion Energy =           0.0000000000000000
    VV10 Nonlocal Energy =                  0.0000000000000000
    Total Energy =                       -157.8130346068232086

  UHF NO Occupations:
  HONO-2 :   15  A 1.9995992
  HONO-1 :   16  A 1.9989874
  HONO-0 :   17  A 1.0000000
  LUNO+0 :   18  A 0.0010126
  LUNO+1 :   19  A 0.0004008
  LUNO+2 :   20  A 0.0001964
  LUNO+3 :   21  A 0.0001943

Computation Completed

Properties will be evaluated at   0.000000,   0.000000,   0.000000 [a0]

Properties computed using the SCF density matrix

  Nuclear Dipole Moment: [e a0]
     X:     0.8273      Y:    -0.0000      Z:     0.0096

  Electronic Dipole Moment: [e a0]
     X:    -0.7503      Y:     0.0000      Z:    -0.0108

  Dipole Moment: [e a0]
     X:     0.0770      Y:     0.0000      Z:    -0.0012     Total:     0.0770

  Dipole Moment: [D]
     X:     0.1958      Y:     0.0000      Z:    -0.0031     Total:     0.1958

*** tstop() called on n065 at Fri Nov  5 14:01:21 2021
Module time:
	user time   =     542.03 seconds =       9.03 minutes
	system time =      12.08 seconds =       0.20 minutes
	total time  =        139 seconds =       2.32 minutes
Total time:
	user time   =     542.03 seconds =       9.03 minutes
	system time =      12.08 seconds =       0.20 minutes
	total time  =        139 seconds =       2.32 minutes
Grab this energy -157.8130346068232
    Psi4 stopped on: Friday, 05 November 2021 02:01PM
    Psi4 wall time for execution: 0:02:19.34

*** Psi4 exiting successfully. Buy a developer a beer!
