                               Psi4 1.4a2.dev629

  ==> Input File <==

--------------------------------------------------------------------------
import os
memory 14 GB

molecule {
 C   -0.3236401153   -0.0000017163    0.0002467909
 C    0.0622438036   -1.4034814644   -2.4310400914
 C    0.0611589228    2.8072050622   -0.0001487127
 C    0.0603157361   -1.4037180218    2.4311522426
 H    2.0900315330   -1.6492332883   -2.8581925834
 H   -0.7646294424   -0.3901359350   -4.0287967669
 H   -0.7638276880   -3.2936985123   -2.3507880427
 H    2.0870897596    3.2946979610   -0.0018545417
 H   -0.7648479683    3.6848384061    1.6774579054
 H   -0.7667754280    3.6876752250   -1.6763107167
 H    2.0844154609   -1.6455592342    2.8481196921
 H   -0.7676339162   -3.2969660264    2.3572048567
 H   -0.7665085345   -0.3916467691    4.0329499679
units bohr
0 2
}

basis {

assign 6-31g_2dfp_

[ 6-31g_2dfp_ ]

spherical

!----------------------------------------------------------------------
! Basis Set Exchange
! Version v0.8.13
! https://www.basissetexchange.org
!----------------------------------------------------------------------
!   Basis set: 6-31G(2df,p)
! Description: 6-31G(2df,p)
!        Role: orbital
!     Version: 0  (Data from the original Basis Set Exchange)
!----------------------------------------------------------------------

****
H     0
S    3   1.00
     18.7311370              0.03349460
      2.8253937              0.23472695
      0.6401217              0.81375733
S    1   1.00
      0.1612778              1.00000000
P    1   1.00
      1.5000000              1.0000000
P    1   1.00
      0.3750000              1.0000000
****
B     0
S    6   1.00
   2068.8823000              0.0018663
    310.6495700              0.0142515
     70.6830330              0.0695516
     19.8610800              0.2325729
      6.2993048              0.4670787
      2.1270270              0.3634314
SP   3   1.00
      4.7279710             -0.1303938              0.0745976
      1.1903377             -0.1307889              0.3078467
      0.3594117              1.1309444              0.7434568
SP   1   1.00
      0.1267512              1.0000000              1.0000000
D    1   1.00
      0.8020000              1.0000000
D    1   1.00
      0.2005000              1.0000000
F    1   1.00
      0.5000000              1.0000000
****
C     0
S    6   1.00
   3047.5249000              0.0018347
    457.3695100              0.0140373
    103.9486900              0.0688426
     29.2101550              0.2321844
      9.2866630              0.4679413
      3.1639270              0.3623120
SP   3   1.00
      7.8682724             -0.1193324              0.0689991
      1.8812885             -0.1608542              0.3164240
      0.5442493              1.1434564              0.7443083
SP   1   1.00
      0.1687144              1.0000000              1.0000000
D    1   1.00
      1.2520000              1.0000000
D    1   1.00
      0.3130000              1.0000000
F    1   1.00
      0.8000000              1.0000000
****
N     0
S    6   1.00
   4173.5110000              0.0018348
    627.4579000              0.0139950
    142.9021000              0.0685870
     40.2343300              0.2322410
     12.8202100              0.4690700
      4.3904370              0.3604550
SP   3   1.00
     11.6263580             -0.1149610              0.0675800
      2.7162800             -0.1691180              0.3239070
      0.7722180              1.1458520              0.7408950
SP   1   1.00
      0.2120313              1.0000000              1.0000000
D    1   1.00
      1.8260000              1.0000000
D    1   1.00
      0.4565000              1.0000000
F    1   1.00
      1.0000000              1.0000000
****
O     0
S    6   1.00
   5484.6717000              0.0018311
    825.2349500              0.0139501
    188.0469600              0.0684451
     52.9645000              0.2327143
     16.8975700              0.4701930
      5.7996353              0.3585209
SP   3   1.00
     15.5396160             -0.1107775              0.0708743
      3.5999336             -0.1480263              0.3397528
      1.0137618              1.1307670              0.7271586
SP   1   1.00
      0.2700058              1.0000000              1.0000000
D    1   1.00
      2.5840000              1.0000000
D    1   1.00
      0.6460000              1.0000000
F    1   1.00
      1.4000000              1.0000000
****
F     0
S    6   1.00
   7001.7130900              0.0018196169
   1051.3660900              0.0139160796
    239.2856900              0.0684053245
     67.3974453              0.233185760
     21.5199573              0.471267439
      7.40310130             0.356618546
SP   3   1.00
     20.8479528             -0.108506975            0.0716287243
      4.80830834            -0.146451658            0.3459121030
      1.34406986             1.128688580            0.7224699570
SP   1   1.00
      0.358151393            1.0000000              1.0000000
D    1   1.00
      3.5000000              1.0000000
D    1   1.00
      0.8750000              1.0000000
F    1   1.00
      1.8500000              1.0000000
****
Al     0
S    6   1.00
  13983.1000000              0.00194267
   2098.7500000              0.0148599
    477.7050000              0.0728494
    134.3600000              0.2468300
     42.8709000              0.4872580
     14.5189000              0.3234960
SP   6   1.00
    239.6680000             -0.00292619             0.00460285
     57.4419000             -0.0374080              0.0331990
     18.2859000             -0.1144870              0.1362820
      6.5991400              0.1156350              0.3304760
      2.4904900              0.6125950              0.4491460
      0.9445400              0.3937990              0.2657040
SP   3   1.00
      1.2779000             -0.2276060             -0.0175130
      0.3975900              0.00144583             0.2445330
      0.1600950              1.0927900              0.8049340
SP   1   1.00
      0.0556577              1.0000000              1.0000000
D    1   1.00
      0.6500000              1.0000000
D    1   1.00
      0.1625000              1.0000000
F    1   1.00
      0.2500000              1.0000000
****
Si     0
S    6   1.00
  16115.9000000              0.00195948
   2425.5800000              0.01492880
    553.8670000              0.07284780
    156.3400000              0.24613000
     50.0683000              0.48591400
     17.0178000              0.32500200
SP   6   1.00
    292.7180000             -0.00278094             0.00443826
     69.8731000             -0.03571460             0.03266790
     22.3363000             -0.11498500             0.13472100
      8.1503900              0.09356340             0.32867800
      3.1345800              0.60301700             0.44964000
      1.2254300              0.41895900             0.26137200
SP   3   1.00
      1.7273800             -0.24463000            -0.01779510
      0.5729220              0.00431572             0.25353900
      0.2221920              1.09818000             0.80066900
SP   1   1.00
      0.0778369              1.00000000             1.00000000
D    1   1.00
      0.9000000              1.0000000
D    1   1.00
      0.2250000              1.0000000
F    1   1.00
      0.3200000              1.0000000
****
P     0
S    6   1.00
  19413.3000000              0.0018516
   2909.4200000              0.0142062
    661.3640000              0.0699995
    185.7590000              0.2400790
     59.1943000              0.4847620
     20.0310000              0.3352000
SP   6   1.00
    339.4780000             -0.00278217             0.00456462
     81.0101000             -0.0360499              0.03369360
     25.8780000             -0.1166310              0.13975500
      9.4522100              0.0968328              0.33936200
      3.6656600              0.6144180              0.45092100
      1.4674600              0.4037980              0.23858600
SP   3   1.00
      2.1562300             -0.2529230             -0.01776530
      0.7489970              0.0328517              0.27405800
      0.2831450              1.0812500              0.78542100
SP   1   1.00
      0.0998317              1.0000000              1.00000000
D    1   1.00
      1.1000000              1.0000000
D    1   1.00
      0.2750000              1.0000000
F    1   1.00
      0.4500000              1.0000000
****
S     0
S    6   1.00
  21917.1000000              0.0018690
   3301.4900000              0.0142300
    754.1460000              0.0696960
    212.7110000              0.2384870
     67.9896000              0.4833070
     23.0515000              0.3380740
SP   6   1.00
    423.7350000             -0.0023767              0.0040610
    100.7100000             -0.0316930              0.0306810
     32.1599000             -0.1133170              0.1304520
     11.8079000              0.0560900              0.3272050
      4.6311000              0.5922550              0.4528510
      1.8702500              0.4550060              0.2560420
SP   3   1.00
      2.6158400             -0.2503740             -0.0145110
      0.9221670              0.0669570              0.3102630
      0.3412870              1.0545100              0.7544830
SP   1   1.00
      0.1171670              1.0000000              1.0000000
D    1   1.00
      1.3000000              1.0000000
D    1   1.00
      0.3250000              1.0000000
F    1   1.00
      0.5500000              1.0000000
****
Cl     0
S    6   1.00
  25180.1000000              0.0018330
   3780.3500000              0.0140340
    860.4740000              0.0690970
    242.1450000              0.2374520
     77.3349000              0.4830340
     26.2470000              0.3398560
SP   6   1.00
    491.7650000             -0.0022974              0.0039894
    116.9840000             -0.0307140              0.0303180
     37.4153000             -0.1125280              0.1298800
     13.7834000              0.0450160              0.3279510
      5.4521500              0.5893530              0.4535270
      2.2258800              0.4652060              0.2521540
SP   3   1.00
      3.1864900             -0.2518300             -0.0142990
      1.1442700              0.0615890              0.3235720
      0.4203770              1.0601800              0.7435070
SP   1   1.00
      0.1426570              1.0000000              1.0000000
D    1   1.00
      1.5000000              1.0000000
D    1   1.00
      0.3750000              1.0000000
F    1   1.00
      0.7000000              1.0000000
****
}

set {
reference uhf
freeze_core true
e_convergence 10
d_convergence 10
dft_spherical_points 1202
dft_radial_points 99
}

e = energy('b3lyp')

print_out('Grab this energy {0}'.format(e))
--------------------------------------------------------------------------

    Molecular point group: c1

    Geometry (in Bohr), charge = 0, multiplicity = 2:

       Center              X                  Y                   Z               Mass
    ------------   -----------------  -----------------  -----------------  -----------------
         C           -0.323662906904    -0.000002030346     0.000206299202    12.000000000000
         C            0.062221011996    -1.403481778446    -2.431080583098    12.000000000000
         C            0.061136131196     2.807204748154    -0.000189204398    12.000000000000
         C            0.060292944496    -1.403718335846     2.431111750902    12.000000000000
         H            2.090008741396    -1.649233602346    -2.858233075098     1.007825032230
         H           -0.764652234004    -0.390136249046    -4.028837258598     1.007825032230
         H           -0.763850479604    -3.293698826346    -2.350828534398     1.007825032230
         H            2.087066967996     3.294697646954    -0.001895033398     1.007825032230
         H           -0.764870759904     3.684838092054     1.677417413702     1.007825032230
         H           -0.766798219604     3.687674910954    -1.676351208398     1.007825032230
         H            2.084392669296    -1.645559548246     2.848079200402     1.007825032230
         H           -0.767656707804    -3.296966340446     2.357164365002     1.007825032230
         H           -0.766531326104    -0.391647083146     4.032909476202     1.007825032230

  Charge       = 0
  Multiplicity = 2
  Basis Set: ANONYMOUS83464889
    Blend: 6-31G_2DFP_
  Basis Set: (ANONYMOUS83464889 AUX)
    Blend: DEF2-UNIVERSAL-JKFIT

    Orbital Energies [Eh]
    ---------------------

    Alpha Occupied:

       1A    -10.181113     2A    -10.167413     3A    -10.167381
       4A    -10.167335     5A     -0.796721     6A     -0.685917
       7A     -0.685858     8A     -0.530778     9A     -0.440532
      10A     -0.434279    11A     -0.434106    12A     -0.382748
      13A     -0.382299    14A     -0.363728    15A     -0.337964
      16A     -0.337659    17A     -0.169286

    Alpha Virtual:

      18A      0.076102    19A      0.134066    20A      0.134162
      21A      0.142219    22A      0.142632    23A      0.154819
      24A      0.178465    25A      0.178737    26A      0.202441
      27A      0.214457    28A      0.275432    29A      0.275475
      30A      0.399125    31A      0.399371    32A      0.403548
      33A      0.424276    34A      0.424490    35A      0.456032
      36A      0.495151    37A      0.495176    38A      0.511828
      39A      0.513572    40A      0.577980    41A      0.578250
      42A      0.590821    43A      0.591340    44A      0.602154
      45A      0.624356    46A      0.631392    47A      0.635244
      48A      0.635688    49A      0.662894    50A      0.662972
      51A      0.683298    52A      0.683524    53A      0.735193
      54A      0.825502    55A      0.825619    56A      0.852910
      57A      0.913981    58A      0.914617    59A      0.942785
      60A      0.945183    61A      0.960268    62A      0.960425
      63A      1.002333    64A      1.126812    65A      1.127624
      66A      1.141863    67A      1.162335    68A      1.162658
      69A      1.222436    70A      1.273477    71A      1.273679
      72A      1.278850    73A      1.323947    74A      1.324088
      75A      1.355803    76A      1.364229    77A      1.364249
      78A      1.390935    79A      1.403801    80A      1.404830
      81A      1.416422    82A      1.417072    83A      1.426497
      84A      1.490306    85A      1.498491    86A      1.542085
      87A      1.542110    88A      1.572809    89A      1.573767
      90A      1.669901    91A      1.738686    92A      1.738866
      93A      1.766818    94A      1.829775    95A      1.830625
      96A      1.970352    97A      2.016011    98A      2.017859
      99A      2.018014   100A      2.047721   101A      2.048653
     102A      2.737870   103A      2.737899   104A      2.789764
     105A      2.808706   106A      2.888611   107A      2.888930
     108A      2.893456   109A      2.929017   110A      2.929635
     111A      2.958753   112A      2.964501   113A      2.964862
     114A      3.034032   115A      3.069712   116A      3.070984
     117A      3.082783   118A      3.167706   119A      3.168166
     120A      3.178726   121A      3.284669   122A      3.284909
     123A      3.325860   124A      3.327635   125A      3.376974
     126A      3.487288   127A      3.489426   128A      3.513225
     129A      3.522985   130A      3.568242   131A      3.568483
     132A      3.573241   133A      3.665967   134A      3.666864
     135A      3.677743   136A      3.692034   137A      3.693343
     138A      3.772272   139A      3.772394   140A      3.788466
     141A      3.910010   142A      3.910273   143A      4.032613
     144A      4.108336   145A      4.108610   146A      4.147407
     147A      4.147429   148A      4.172033   149A      4.200204
     150A      4.200856   151A      4.201676   152A      4.209225
     153A      4.314236   154A      4.314616   155A      4.356485
     156A      4.422335   157A      4.422494   158A      4.440996
     159A      4.513209   160A      4.514489   161A      4.574694
     162A      4.574761   163A      4.610291   164A      4.704633
     165A      4.767573   166A      4.768777   167A      4.832955
     168A      4.959849   169A      5.000801   170A      5.001880
     171A      5.227051   172A      5.244855   173A      5.245947
     174A      5.352868   175A      5.352955   176A      5.473646

    Beta Occupied:

       1A    -10.168163     2A    -10.168137     3A    -10.168108
       4A    -10.167260     5A     -0.780069     6A     -0.683735
       7A     -0.683686     8A     -0.511648     9A     -0.430680
      10A     -0.430484    11A     -0.421327    12A     -0.376876
      13A     -0.376415    14A     -0.362724    15A     -0.333071
      16A     -0.332788

    Beta Virtual:

      17A     -0.025775    18A      0.077100    19A      0.134970
      20A      0.135051    21A      0.144083    22A      0.144452
      23A      0.163234    24A      0.182106    25A      0.182387
      26A      0.214680    27A      0.218002    28A      0.281844
      29A      0.281898    30A      0.400265    31A      0.400504
      32A      0.420091    33A      0.427095    34A      0.427311
      35A      0.467585    36A      0.497397    37A      0.497424
      38A      0.513547    39A      0.555987    40A      0.583521
      41A      0.583799    42A      0.597057    43A      0.597583
      44A      0.609536    45A      0.627673    46A      0.631551
      47A      0.638453    48A      0.638893    49A      0.666489
      50A      0.666585    51A      0.685870    52A      0.686066
      53A      0.757894    54A      0.830656    55A      0.830768
      56A      0.854227    57A      0.921966    58A      0.922550
      59A      0.944621    60A      0.954199    61A      0.965562
      62A      0.965693    63A      1.007651    64A      1.130885
      65A      1.131607    66A      1.155223    67A      1.167376
      68A      1.167765    69A      1.231267    70A      1.279049
      71A      1.279225    72A      1.284668    73A      1.328934
      74A      1.329085    75A      1.365168    76A      1.369471
      77A      1.369531    78A      1.391985    79A      1.407296
      80A      1.408331    81A      1.421409    82A      1.422053
      83A      1.426751    84A      1.491355    85A      1.508868
      86A      1.546461    87A      1.546670    88A      1.580517
      89A      1.581661    90A      1.674740    91A      1.744449
      92A      1.744623    93A      1.777574    94A      1.833617
      95A      1.834458    96A      1.971209    97A      2.024273
      98A      2.024389    99A      2.037314   100A      2.054396
     101A      2.055352   102A      2.746288   103A      2.746341
     104A      2.809114   105A      2.814919   106A      2.901503
     107A      2.901876   108A      2.923069   109A      2.931349
     110A      2.931949   111A      2.959808   112A      2.968987
     113A      2.969346   114A      3.041879   115A      3.079493
     116A      3.080850   117A      3.084581   118A      3.183566
     119A      3.184029   120A      3.186454   121A      3.289254
     122A      3.289569   123A      3.329751   124A      3.331503
     125A      3.384810   126A      3.490059   127A      3.492149
     128A      3.511600   129A      3.526082   130A      3.572781
     131A      3.581686   132A      3.581980   133A      3.670835
     134A      3.671708   135A      3.691042   136A      3.724105
     137A      3.724911   138A      3.776785   139A      3.776858
     140A      3.817130   141A      3.919814   142A      3.920088
     143A      4.043570   144A      4.115451   145A      4.115674
     146A      4.154350   147A      4.154535   148A      4.185979
     149A      4.206274   150A      4.206969   151A      4.209276
     152A      4.213623   153A      4.321673   154A      4.321998
     155A      4.359866   156A      4.430435   157A      4.430615
     158A      4.443862   159A      4.520880   160A      4.522145
     161A      4.585260   162A      4.585357   163A      4.617499
     164A      4.714895   165A      4.774494   166A      4.775758
     167A      4.835874   168A      4.964621   169A      5.004817
     170A      5.005865   171A      5.232729   172A      5.246628
     173A      5.247717   174A      5.359301   175A      5.359375
     176A      5.475945

    Final Occupation by Irrep:
              A
    DOCC [    16 ]
    SOCC [     1 ]

  @DF-UKS Final Energy:  -157.81306768310961

   => Energetics <=

    Nuclear Repulsion Energy =            125.2136575810438188
    One-Electron Energy =                -458.3925761803964178
    Two-Electron Energy =                 195.6692020844739943
    DFT Exchange-Correlation Energy =     -20.3033511682310142
    Empirical Dispersion Energy =           0.0000000000000000
    VV10 Nonlocal Energy =                  0.0000000000000000
    Total Energy =                       -157.8130676831096082

  UHF NO Occupations:
  HONO-2 :   15  A 1.9996026
  HONO-1 :   16  A 1.9989734
  HONO-0 :   17  A 1.0000000
  LUNO+0 :   18  A 0.0010266
  LUNO+1 :   19  A 0.0003974
  LUNO+2 :   20  A 0.0001999
  LUNO+3 :   21  A 0.0001996

Computation Completed

Properties will be evaluated at   0.000000,   0.000000,   0.000000 [a0]

Properties computed using the SCF density matrix

  Nuclear Dipole Moment: [e a0]
     X:     0.8270      Y:    -0.0000      Z:    -0.0003

  Electronic Dipole Moment: [e a0]
     X:    -0.7483      Y:     0.0000      Z:     0.0010

  Dipole Moment: [e a0]
     X:     0.0788      Y:     0.0000      Z:     0.0008     Total:     0.0788

  Dipole Moment: [D]
     X:     0.2002      Y:     0.0000      Z:     0.0019     Total:     0.2002

*** tstop() called on n031 at Fri Nov  5 15:20:21 2021
Module time:
	user time   =     597.67 seconds =       9.96 minutes
	system time =      11.83 seconds =       0.20 minutes
	total time  =        153 seconds =       2.55 minutes
Total time:
	user time   =     597.67 seconds =       9.96 minutes
	system time =      11.83 seconds =       0.20 minutes
	total time  =        153 seconds =       2.55 minutes
Grab this energy -157.8130676831096
    Psi4 stopped on: Friday, 05 November 2021 03:20PM
    Psi4 wall time for execution: 0:02:33.32

*** Psi4 exiting successfully. Buy a developer a beer!
