                               Psi4 1.4a2.dev629

  ==> Input File <==

--------------------------------------------------------------------------
import os
memory 14 GB

molecule {
 C   -0.3233342962    0.0054875772    0.0000000000
 C    0.0621308788   -1.4032568679   -2.4203666934
 C    0.0590407259    2.8097635404   -0.0000000000
 C    0.0621308788   -1.4032568679    2.4203666934
 H    2.0852633327   -1.6501382558   -2.8389217106
 H   -0.7604975965   -0.3953650848   -4.0238625610
 H   -0.7675140014   -3.2954784296   -2.3352151909
 H    2.0901446557    3.2967654258   -0.0000000000
 H   -0.7686120948    3.6882182096    1.6735695727
 H   -0.7686120948    3.6882182096   -1.6735695727
 H    2.0852633327   -1.6501382558    2.8389217106
 H   -0.7675140014   -3.2954784296    2.3352151909
 H   -0.7604975965   -0.3953650848    4.0238625610
units bohr
0 2
}

basis {

assign 6-31g_2dfp_

[ 6-31g_2dfp_ ]

spherical

!----------------------------------------------------------------------
! Basis Set Exchange
! Version v0.8.13
! https://www.basissetexchange.org
!----------------------------------------------------------------------
!   Basis set: 6-31G(2df,p)
! Description: 6-31G(2df,p)
!        Role: orbital
!     Version: 0  (Data from the original Basis Set Exchange)
!----------------------------------------------------------------------

****
H     0
S    3   1.00
     18.7311370              0.03349460
      2.8253937              0.23472695
      0.6401217              0.81375733
S    1   1.00
      0.1612778              1.00000000
P    1   1.00
      1.5000000              1.0000000
P    1   1.00
      0.3750000              1.0000000
****
B     0
S    6   1.00
   2068.8823000              0.0018663
    310.6495700              0.0142515
     70.6830330              0.0695516
     19.8610800              0.2325729
      6.2993048              0.4670787
      2.1270270              0.3634314
SP   3   1.00
      4.7279710             -0.1303938              0.0745976
      1.1903377             -0.1307889              0.3078467
      0.3594117              1.1309444              0.7434568
SP   1   1.00
      0.1267512              1.0000000              1.0000000
D    1   1.00
      0.8020000              1.0000000
D    1   1.00
      0.2005000              1.0000000
F    1   1.00
      0.5000000              1.0000000
****
C     0
S    6   1.00
   3047.5249000              0.0018347
    457.3695100              0.0140373
    103.9486900              0.0688426
     29.2101550              0.2321844
      9.2866630              0.4679413
      3.1639270              0.3623120
SP   3   1.00
      7.8682724             -0.1193324              0.0689991
      1.8812885             -0.1608542              0.3164240
      0.5442493              1.1434564              0.7443083
SP   1   1.00
      0.1687144              1.0000000              1.0000000
D    1   1.00
      1.2520000              1.0000000
D    1   1.00
      0.3130000              1.0000000
F    1   1.00
      0.8000000              1.0000000
****
N     0
S    6   1.00
   4173.5110000              0.0018348
    627.4579000              0.0139950
    142.9021000              0.0685870
     40.2343300              0.2322410
     12.8202100              0.4690700
      4.3904370              0.3604550
SP   3   1.00
     11.6263580             -0.1149610              0.0675800
      2.7162800             -0.1691180              0.3239070
      0.7722180              1.1458520              0.7408950
SP   1   1.00
      0.2120313              1.0000000              1.0000000
D    1   1.00
      1.8260000              1.0000000
D    1   1.00
      0.4565000              1.0000000
F    1   1.00
      1.0000000              1.0000000
****
O     0
S    6   1.00
   5484.6717000              0.0018311
    825.2349500              0.0139501
    188.0469600              0.0684451
     52.9645000              0.2327143
     16.8975700              0.4701930
      5.7996353              0.3585209
SP   3   1.00
     15.5396160             -0.1107775              0.0708743
      3.5999336             -0.1480263              0.3397528
      1.0137618              1.1307670              0.7271586
SP   1   1.00
      0.2700058              1.0000000              1.0000000
D    1   1.00
      2.5840000              1.0000000
D    1   1.00
      0.6460000              1.0000000
F    1   1.00
      1.4000000              1.0000000
****
F     0
S    6   1.00
   7001.7130900              0.0018196169
   1051.3660900              0.0139160796
    239.2856900              0.0684053245
     67.3974453              0.233185760
     21.5199573              0.471267439
      7.40310130             0.356618546
SP   3   1.00
     20.8479528             -0.108506975            0.0716287243
      4.80830834            -0.146451658            0.3459121030
      1.34406986             1.128688580            0.7224699570
SP   1   1.00
      0.358151393            1.0000000              1.0000000
D    1   1.00
      3.5000000              1.0000000
D    1   1.00
      0.8750000              1.0000000
F    1   1.00
      1.8500000              1.0000000
****
Al     0
S    6   1.00
  13983.1000000              0.00194267
   2098.7500000              0.0148599
    477.7050000              0.0728494
    134.3600000              0.2468300
     42.8709000              0.4872580
     14.5189000              0.3234960
SP   6   1.00
    239.6680000             -0.00292619             0.00460285
     57.4419000             -0.0374080              0.0331990
     18.2859000             -0.1144870              0.1362820
      6.5991400              0.1156350              0.3304760
      2.4904900              0.6125950              0.4491460
      0.9445400              0.3937990              0.2657040
SP   3   1.00
      1.2779000             -0.2276060             -0.0175130
      0.3975900              0.00144583             0.2445330
      0.1600950              1.0927900              0.8049340
SP   1   1.00
      0.0556577              1.0000000              1.0000000
D    1   1.00
      0.6500000              1.0000000
D    1   1.00
      0.1625000              1.0000000
F    1   1.00
      0.2500000              1.0000000
****
Si     0
S    6   1.00
  16115.9000000              0.00195948
   2425.5800000              0.01492880
    553.8670000              0.07284780
    156.3400000              0.24613000
     50.0683000              0.48591400
     17.0178000              0.32500200
SP   6   1.00
    292.7180000             -0.00278094             0.00443826
     69.8731000             -0.03571460             0.03266790
     22.3363000             -0.11498500             0.13472100
      8.1503900              0.09356340             0.32867800
      3.1345800              0.60301700             0.44964000
      1.2254300              0.41895900             0.26137200
SP   3   1.00
      1.7273800             -0.24463000            -0.01779510
      0.5729220              0.00431572             0.25353900
      0.2221920              1.09818000             0.80066900
SP   1   1.00
      0.0778369              1.00000000             1.00000000
D    1   1.00
      0.9000000              1.0000000
D    1   1.00
      0.2250000              1.0000000
F    1   1.00
      0.3200000              1.0000000
****
P     0
S    6   1.00
  19413.3000000              0.0018516
   2909.4200000              0.0142062
    661.3640000              0.0699995
    185.7590000              0.2400790
     59.1943000              0.4847620
     20.0310000              0.3352000
SP   6   1.00
    339.4780000             -0.00278217             0.00456462
     81.0101000             -0.0360499              0.03369360
     25.8780000             -0.1166310              0.13975500
      9.4522100              0.0968328              0.33936200
      3.6656600              0.6144180              0.45092100
      1.4674600              0.4037980              0.23858600
SP   3   1.00
      2.1562300             -0.2529230             -0.01776530
      0.7489970              0.0328517              0.27405800
      0.2831450              1.0812500              0.78542100
SP   1   1.00
      0.0998317              1.0000000              1.00000000
D    1   1.00
      1.1000000              1.0000000
D    1   1.00
      0.2750000              1.0000000
F    1   1.00
      0.4500000              1.0000000
****
S     0
S    6   1.00
  21917.1000000              0.0018690
   3301.4900000              0.0142300
    754.1460000              0.0696960
    212.7110000              0.2384870
     67.9896000              0.4833070
     23.0515000              0.3380740
SP   6   1.00
    423.7350000             -0.0023767              0.0040610
    100.7100000             -0.0316930              0.0306810
     32.1599000             -0.1133170              0.1304520
     11.8079000              0.0560900              0.3272050
      4.6311000              0.5922550              0.4528510
      1.8702500              0.4550060              0.2560420
SP   3   1.00
      2.6158400             -0.2503740             -0.0145110
      0.9221670              0.0669570              0.3102630
      0.3412870              1.0545100              0.7544830
SP   1   1.00
      0.1171670              1.0000000              1.0000000
D    1   1.00
      1.3000000              1.0000000
D    1   1.00
      0.3250000              1.0000000
F    1   1.00
      0.5500000              1.0000000
****
Cl     0
S    6   1.00
  25180.1000000              0.0018330
   3780.3500000              0.0140340
    860.4740000              0.0690970
    242.1450000              0.2374520
     77.3349000              0.4830340
     26.2470000              0.3398560
SP   6   1.00
    491.7650000             -0.0022974              0.0039894
    116.9840000             -0.0307140              0.0303180
     37.4153000             -0.1125280              0.1298800
     13.7834000              0.0450160              0.3279510
      5.4521500              0.5893530              0.4535270
      2.2258800              0.4652060              0.2521540
SP   3   1.00
      3.1864900             -0.2518300             -0.0142990
      1.1442700              0.0615890              0.3235720
      0.4203770              1.0601800              0.7435070
SP   1   1.00
      0.1426570              1.0000000              1.0000000
D    1   1.00
      1.5000000              1.0000000
D    1   1.00
      0.3750000              1.0000000
F    1   1.00
      0.7000000              1.0000000
****
}

set {
reference uhf
freeze_core true
e_convergence 10
d_convergence 10
dft_spherical_points 1202
dft_radial_points 99
}

e = energy('b3lyp')

print_out('Grab this energy {0}'.format(e))
--------------------------------------------------------------------------

    Molecular point group: cs

    Geometry (in Bohr), charge = 0, multiplicity = 2:

       Center              X                  Y                   Z               Mass
    ------------   -----------------  -----------------  -----------------  -----------------
         C           -0.323335870209     0.003805123895     0.000000000000    12.000000000000
         C            0.062129304791    -1.404939321205    -2.420366693400    12.000000000000
         C            0.059039151891     2.808081087095     0.000000000000    12.000000000000
         C            0.062129304791    -1.404939321205     2.420366693400    12.000000000000
         H            2.085261758691    -1.651820709105    -2.838921710600     1.007825032230
         H           -0.760499170509    -0.397047538105    -4.023862561000     1.007825032230
         H           -0.767515575409    -3.297160882905    -2.335215190900     1.007825032230
         H            2.090143081691     3.295082972495     0.000000000000     1.007825032230
         H           -0.768613668809     3.686535756295     1.673569572700     1.007825032230
         H           -0.768613668809     3.686535756295    -1.673569572700     1.007825032230
         H            2.085261758691    -1.651820709105     2.838921710600     1.007825032230
         H           -0.767515575409    -3.297160882905     2.335215190900     1.007825032230
         H           -0.760499170509    -0.397047538105     4.023862561000     1.007825032230

  Charge       = 0
  Multiplicity = 2
  Basis Set: ANONYMOUS92E8A907
    Blend: 6-31G_2DFP_
  Basis Set: (ANONYMOUS92E8A907 AUX)
    Blend: DEF2-UNIVERSAL-JKFIT

    Orbital Energies [Eh]
    ---------------------

    Alpha Occupied:

       1Ap   -10.180342     2Ap   -10.167354     1App  -10.166861
       3Ap   -10.166830     4Ap    -0.797769     5Ap    -0.686408
       2App   -0.685966     6Ap    -0.530778     7Ap    -0.441131
       8Ap    -0.434909     3App   -0.434429     9Ap    -0.382720
       4App   -0.382475     5App   -0.363609    10Ap    -0.338308
       6App   -0.337689    11Ap    -0.168961

    Alpha Virtual:

      12Ap     0.076070    13Ap     0.133747     7App    0.134562
      14Ap     0.142426     8App    0.142828    15Ap     0.154878
      16Ap     0.178470     9App    0.179091    17Ap     0.203546
      10App    0.214805    18Ap     0.275893    11App    0.276079
      19Ap     0.399048    12App    0.399338    20Ap     0.403423
      21Ap     0.423880    13App    0.424321    22Ap     0.456592
      23Ap     0.495133    14App    0.495639    15App    0.512175
      24Ap     0.513982    25Ap     0.578369    16App    0.579228
      26Ap     0.591457    17App    0.591822    27Ap     0.602581
      28Ap     0.624767    18App    0.631773    19App    0.636130
      29Ap     0.636370    30Ap     0.662835    20App    0.664003
      31Ap     0.683784    21App    0.683927    32Ap     0.734994
      33Ap     0.824589    22App    0.826208    23App    0.853907
      34Ap     0.914562    24App    0.915496    25App    0.944067
      35Ap     0.944486    26App    0.961243    36Ap     0.961576
      37Ap     1.003468    38Ap     1.126881    27App    1.129344
      39Ap     1.142222    40Ap     1.162655    28App    1.163890
      41Ap     1.223335    42Ap     1.273775    29App    1.275163
      43Ap     1.279412    30App    1.324305    44Ap     1.324390
      45Ap     1.355937    46Ap     1.365309    31App    1.366746
      32App    1.392415    47Ap     1.402838    33App    1.405386
      34App    1.417075    48Ap     1.417181    35App    1.427941
      36App    1.491431    49Ap     1.499046    50Ap     1.542015
      37App    1.543686    51Ap     1.572757    38App    1.576237
      52Ap     1.669819    53Ap     1.738071    39App    1.740636
      54Ap     1.768449    40App    1.831107    55Ap     1.831687
      41App    1.971745    56Ap     2.017068    57Ap     2.018368
      42App    2.020906    58Ap     2.049200    43App    2.056190
      59Ap     2.737807    44App    2.739162    60Ap     2.790925
      45App    2.811438    46App    2.889852    61Ap     2.890049
      62Ap     2.894942    63Ap     2.929306    47App    2.929688
      48App    2.958995    64Ap     2.963149    49App    2.965630
      65Ap     3.033998    66Ap     3.070282    50App    3.072294
      51App    3.084367    67Ap     3.168200    52App    3.169377
      68Ap     3.180586    53App    3.284278    69Ap     3.286359
      70Ap     3.326396    54App    3.327915    71Ap     3.375696
      72Ap     3.489859    55App    3.490396    56App    3.514038
      73Ap     3.525252    74Ap     3.567449    57App    3.569087
      58App    3.575521    75Ap     3.665528    59App    3.667229
      76Ap     3.679662    60App    3.693521    77Ap     3.694711
      61App    3.776003    78Ap     3.777424    79Ap     3.789373
      80Ap     3.910902    62App    3.913554    81Ap     4.034456
      82Ap     4.109533    63App    4.113194    83Ap     4.147011
      64App    4.149120    84Ap     4.173237    85Ap     4.201474
      86Ap     4.203413    65App    4.203999    66App    4.210901
      87Ap     4.315146    67App    4.316790    68App    4.359008
      69App    4.424177    88Ap     4.424650    70App    4.443548
      89Ap     4.515271    71App    4.518407    90Ap     4.577306
      72App    4.579235    91Ap     4.617557    92Ap     4.709474
      93Ap     4.772846    73App    4.776346    74App    4.836924
      94Ap     4.962862    95Ap     5.001248    75App    5.004673
      96Ap     5.227969    97Ap     5.244911    76App    5.248721
      98Ap     5.353667    77App    5.357419    78App    5.479346

    Beta Occupied:

       1Ap   -10.168113     1App  -10.167614     2Ap   -10.167598
       3Ap   -10.166519     4Ap    -0.781094     5Ap    -0.684219
       2App   -0.683759     6Ap    -0.511749     7Ap    -0.431306
       3App   -0.430785     8Ap    -0.421819     9Ap    -0.376793
       4App   -0.376572     5App   -0.362593    10Ap    -0.333427
       6App   -0.332815

    Beta Virtual:

      11Ap    -0.025744    12Ap     0.077079    13Ap     0.134639
       7App    0.135453    14Ap     0.144329     8App    0.144667
      15Ap     0.163337    16Ap     0.182113     9App    0.182791
      10App    0.215035    17Ap     0.218928    18Ap     0.282232
      11App    0.282435    19Ap     0.400303    12App    0.400485
      20Ap     0.419804    21Ap     0.426675    13App    0.427147
      22Ap     0.468502    23Ap     0.497398    14App    0.497896
      15App    0.513911    24Ap     0.556327    25Ap     0.583965
      16App    0.584735    26Ap     0.597605    17App    0.598037
      27Ap     0.609989    28Ap     0.628153    18App    0.631931
      19App    0.639398    29Ap     0.639671    30Ap     0.666403
      20App    0.667559    31Ap     0.686350    21App    0.686634
      32Ap     0.757517    33Ap     0.829750    22App    0.831384
      23App    0.855260    34Ap     0.922531    24App    0.923468
      25App    0.945920    35Ap     0.953400    26App    0.966510
      36Ap     0.966924    37Ap     1.008706    38Ap     1.130979
      27App    1.133303    39Ap     1.155599    40Ap     1.167658
      28App    1.169032    41Ap     1.232306    42Ap     1.279354
      29App    1.280775    43Ap     1.285168    30App    1.329277
      44Ap     1.329399    45Ap     1.365342    46Ap     1.370503
      31App    1.372038    32App    1.393479    47Ap     1.406298
      33App    1.408859    34App    1.422108    48Ap     1.422249
      35App    1.428212    36App    1.492481    49Ap     1.509491
      50Ap     1.546329    37App    1.548188    51Ap     1.580766
      38App    1.583967    52Ap     1.674666    53Ap     1.743854
      39App    1.746394    54Ap     1.779212    40App    1.834972
      55Ap     1.835533    41App    1.972605    56Ap     2.023435
      42App    2.027406    57Ap     2.039675    58Ap     2.056049
      43App    2.062771    59Ap     2.746108    44App    2.747534
      45App    2.811850    60Ap     2.816061    46App    2.902523
      61Ap     2.902760    62Ap     2.924641    63Ap     2.931847
      47App    2.932108    48App    2.960060    64Ap     2.967715
      49App    2.970152    65Ap     3.041935    66Ap     3.079992
      50App    3.082353    51App    3.086243    67Ap     3.184126
      52App    3.184898    68Ap     3.188307    53App    3.289132
      69Ap     3.291104    70Ap     3.330220    54App    3.331705
      71Ap     3.383508    72Ap     3.492563    55App    3.493145
      56App    3.512423    73Ap     3.528306    57App    3.574720
      74Ap     3.580831    58App    3.583037    75Ap     3.670209
      59App    3.672052    76Ap     3.692949    60App    3.725188
      77Ap     3.726299    61App    3.780572    78Ap     3.782037
      79Ap     3.817788    80Ap     3.920739    62App    3.923350
      81Ap     4.045343    82Ap     4.116375    63App    4.119980
      83Ap     4.154230    64App    4.156328    84Ap     4.187290
      85Ap     4.207874    65App    4.209899    86Ap     4.210956
      66App    4.215379    87Ap     4.322602    67App    4.324212
      68App    4.362374    69App    4.432309    88Ap     4.432892
      70App    4.446487    89Ap     4.523156    71App    4.526094
      90Ap     4.587840    72App    4.589905    91Ap     4.624751
      92Ap     4.719819    93Ap     4.779763    73App    4.783335
      74App    4.839842    94Ap     4.967656    95Ap     5.005307
      75App    5.008692    96Ap     5.233685    97Ap     5.246711
      76App    5.250489    98Ap     5.360119    77App    5.363927
      78App    5.481668

    Final Occupation by Irrep:
             Ap   App
    DOCC [    10,    6 ]
    SOCC [     1,    0 ]

  @DF-UKS Final Energy:  -157.81305443319624

   => Energetics <=

    Nuclear Repulsion Energy =            125.3948875399969722
    One-Electron Energy =                -458.7493991749383895
    Two-Electron Energy =                 195.8486056314035295
    DFT Exchange-Correlation Energy =     -20.3071484296583158
    Empirical Dispersion Energy =           0.0000000000000000
    VV10 Nonlocal Energy =                  0.0000000000000000
    Total Energy =                       -157.8130544331962426

  UHF NO Occupations:
  HONO-2 :    9 Ap 1.9996009
  HONO-1 :   10 Ap 1.9989804
  HONO-0 :   11 Ap 1.0000000
  LUNO+0 :   12 Ap 0.0010196
  LUNO+1 :   13 Ap 0.0003991
  LUNO+2 :    7App 0.0001979
  LUNO+3 :   14 Ap 0.0001972

Computation Completed

Properties will be evaluated at   0.000000,   0.000000,   0.000000 [a0]

Properties computed using the SCF density matrix

  Nuclear Dipole Moment: [e a0]
     X:     0.8272      Y:    -0.0119      Z:     0.0000

  Electronic Dipole Moment: [e a0]
     X:    -0.7493      Y:     0.0133      Z:     0.0000

  Dipole Moment: [e a0]
     X:     0.0779      Y:     0.0014      Z:     0.0000     Total:     0.0779

  Dipole Moment: [D]
     X:     0.1980      Y:     0.0036      Z:     0.0000     Total:     0.1981

*** tstop() called on n036 at Fri Nov  5 14:22:29 2021
Module time:
	user time   =     630.89 seconds =      10.51 minutes
	system time =      12.55 seconds =       0.21 minutes
	total time  =        162 seconds =       2.70 minutes
Total time:
	user time   =     630.89 seconds =      10.51 minutes
	system time =      12.55 seconds =       0.21 minutes
	total time  =        162 seconds =       2.70 minutes
Grab this energy -157.81305443319624
    Psi4 stopped on: Friday, 05 November 2021 02:22PM
    Psi4 wall time for execution: 0:02:41.78

*** Psi4 exiting successfully. Buy a developer a beer!
