                               Psi4 1.4a2.dev629

  ==> Input File <==

--------------------------------------------------------------------------
import os
memory 14 GB

molecule {
 C   -0.3233323949   -0.0024220106   -0.0050026575
 C    0.0602226586   -1.4076212004   -2.4296726281
 C    0.0618156774    2.8030000171    0.0062341768
 C    0.0612642103   -1.3953663788    2.4209090819
 H    2.0849787568   -1.6505845956   -2.8533305125
 H   -0.7694164263   -0.3979112310   -4.0276252363
 H   -0.7647973450   -3.3008989345   -2.3486085795
 H    2.0893640231    3.2872589849    0.0111402777
 H   -0.7669910206    3.6755294710    1.6856942400
 H   -0.7614760853    3.6906996482   -1.6667867407
 H    2.0863179840   -1.6329875118    2.8451470151
 H   -0.7602124586   -3.2893440455    2.3482003340
 H   -0.7703454563   -0.3793765266    4.0137012293
units bohr
0 2
}

basis {

assign 6-31g_2dfp_

[ 6-31g_2dfp_ ]

spherical

!----------------------------------------------------------------------
! Basis Set Exchange
! Version v0.8.13
! https://www.basissetexchange.org
!----------------------------------------------------------------------
!   Basis set: 6-31G(2df,p)
! Description: 6-31G(2df,p)
!        Role: orbital
!     Version: 0  (Data from the original Basis Set Exchange)
!----------------------------------------------------------------------

****
H     0
S    3   1.00
     18.7311370              0.03349460
      2.8253937              0.23472695
      0.6401217              0.81375733
S    1   1.00
      0.1612778              1.00000000
P    1   1.00
      1.5000000              1.0000000
P    1   1.00
      0.3750000              1.0000000
****
B     0
S    6   1.00
   2068.8823000              0.0018663
    310.6495700              0.0142515
     70.6830330              0.0695516
     19.8610800              0.2325729
      6.2993048              0.4670787
      2.1270270              0.3634314
SP   3   1.00
      4.7279710             -0.1303938              0.0745976
      1.1903377             -0.1307889              0.3078467
      0.3594117              1.1309444              0.7434568
SP   1   1.00
      0.1267512              1.0000000              1.0000000
D    1   1.00
      0.8020000              1.0000000
D    1   1.00
      0.2005000              1.0000000
F    1   1.00
      0.5000000              1.0000000
****
C     0
S    6   1.00
   3047.5249000              0.0018347
    457.3695100              0.0140373
    103.9486900              0.0688426
     29.2101550              0.2321844
      9.2866630              0.4679413
      3.1639270              0.3623120
SP   3   1.00
      7.8682724             -0.1193324              0.0689991
      1.8812885             -0.1608542              0.3164240
      0.5442493              1.1434564              0.7443083
SP   1   1.00
      0.1687144              1.0000000              1.0000000
D    1   1.00
      1.2520000              1.0000000
D    1   1.00
      0.3130000              1.0000000
F    1   1.00
      0.8000000              1.0000000
****
N     0
S    6   1.00
   4173.5110000              0.0018348
    627.4579000              0.0139950
    142.9021000              0.0685870
     40.2343300              0.2322410
     12.8202100              0.4690700
      4.3904370              0.3604550
SP   3   1.00
     11.6263580             -0.1149610              0.0675800
      2.7162800             -0.1691180              0.3239070
      0.7722180              1.1458520              0.7408950
SP   1   1.00
      0.2120313              1.0000000              1.0000000
D    1   1.00
      1.8260000              1.0000000
D    1   1.00
      0.4565000              1.0000000
F    1   1.00
      1.0000000              1.0000000
****
O     0
S    6   1.00
   5484.6717000              0.0018311
    825.2349500              0.0139501
    188.0469600              0.0684451
     52.9645000              0.2327143
     16.8975700              0.4701930
      5.7996353              0.3585209
SP   3   1.00
     15.5396160             -0.1107775              0.0708743
      3.5999336             -0.1480263              0.3397528
      1.0137618              1.1307670              0.7271586
SP   1   1.00
      0.2700058              1.0000000              1.0000000
D    1   1.00
      2.5840000              1.0000000
D    1   1.00
      0.6460000              1.0000000
F    1   1.00
      1.4000000              1.0000000
****
F     0
S    6   1.00
   7001.7130900              0.0018196169
   1051.3660900              0.0139160796
    239.2856900              0.0684053245
     67.3974453              0.233185760
     21.5199573              0.471267439
      7.40310130             0.356618546
SP   3   1.00
     20.8479528             -0.108506975            0.0716287243
      4.80830834            -0.146451658            0.3459121030
      1.34406986             1.128688580            0.7224699570
SP   1   1.00
      0.358151393            1.0000000              1.0000000
D    1   1.00
      3.5000000              1.0000000
D    1   1.00
      0.8750000              1.0000000
F    1   1.00
      1.8500000              1.0000000
****
Al     0
S    6   1.00
  13983.1000000              0.00194267
   2098.7500000              0.0148599
    477.7050000              0.0728494
    134.3600000              0.2468300
     42.8709000              0.4872580
     14.5189000              0.3234960
SP   6   1.00
    239.6680000             -0.00292619             0.00460285
     57.4419000             -0.0374080              0.0331990
     18.2859000             -0.1144870              0.1362820
      6.5991400              0.1156350              0.3304760
      2.4904900              0.6125950              0.4491460
      0.9445400              0.3937990              0.2657040
SP   3   1.00
      1.2779000             -0.2276060             -0.0175130
      0.3975900              0.00144583             0.2445330
      0.1600950              1.0927900              0.8049340
SP   1   1.00
      0.0556577              1.0000000              1.0000000
D    1   1.00
      0.6500000              1.0000000
D    1   1.00
      0.1625000              1.0000000
F    1   1.00
      0.2500000              1.0000000
****
Si     0
S    6   1.00
  16115.9000000              0.00195948
   2425.5800000              0.01492880
    553.8670000              0.07284780
    156.3400000              0.24613000
     50.0683000              0.48591400
     17.0178000              0.32500200
SP   6   1.00
    292.7180000             -0.00278094             0.00443826
     69.8731000             -0.03571460             0.03266790
     22.3363000             -0.11498500             0.13472100
      8.1503900              0.09356340             0.32867800
      3.1345800              0.60301700             0.44964000
      1.2254300              0.41895900             0.26137200
SP   3   1.00
      1.7273800             -0.24463000            -0.01779510
      0.5729220              0.00431572             0.25353900
      0.2221920              1.09818000             0.80066900
SP   1   1.00
      0.0778369              1.00000000             1.00000000
D    1   1.00
      0.9000000              1.0000000
D    1   1.00
      0.2250000              1.0000000
F    1   1.00
      0.3200000              1.0000000
****
P     0
S    6   1.00
  19413.3000000              0.0018516
   2909.4200000              0.0142062
    661.3640000              0.0699995
    185.7590000              0.2400790
     59.1943000              0.4847620
     20.0310000              0.3352000
SP   6   1.00
    339.4780000             -0.00278217             0.00456462
     81.0101000             -0.0360499              0.03369360
     25.8780000             -0.1166310              0.13975500
      9.4522100              0.0968328              0.33936200
      3.6656600              0.6144180              0.45092100
      1.4674600              0.4037980              0.23858600
SP   3   1.00
      2.1562300             -0.2529230             -0.01776530
      0.7489970              0.0328517              0.27405800
      0.2831450              1.0812500              0.78542100
SP   1   1.00
      0.0998317              1.0000000              1.00000000
D    1   1.00
      1.1000000              1.0000000
D    1   1.00
      0.2750000              1.0000000
F    1   1.00
      0.4500000              1.0000000
****
S     0
S    6   1.00
  21917.1000000              0.0018690
   3301.4900000              0.0142300
    754.1460000              0.0696960
    212.7110000              0.2384870
     67.9896000              0.4833070
     23.0515000              0.3380740
SP   6   1.00
    423.7350000             -0.0023767              0.0040610
    100.7100000             -0.0316930              0.0306810
     32.1599000             -0.1133170              0.1304520
     11.8079000              0.0560900              0.3272050
      4.6311000              0.5922550              0.4528510
      1.8702500              0.4550060              0.2560420
SP   3   1.00
      2.6158400             -0.2503740             -0.0145110
      0.9221670              0.0669570              0.3102630
      0.3412870              1.0545100              0.7544830
SP   1   1.00
      0.1171670              1.0000000              1.0000000
D    1   1.00
      1.3000000              1.0000000
D    1   1.00
      0.3250000              1.0000000
F    1   1.00
      0.5500000              1.0000000
****
Cl     0
S    6   1.00
  25180.1000000              0.0018330
   3780.3500000              0.0140340
    860.4740000              0.0690970
    242.1450000              0.2374520
     77.3349000              0.4830340
     26.2470000              0.3398560
SP   6   1.00
    491.7650000             -0.0022974              0.0039894
    116.9840000             -0.0307140              0.0303180
     37.4153000             -0.1125280              0.1298800
     13.7834000              0.0450160              0.3279510
      5.4521500              0.5893530              0.4535270
      2.2258800              0.4652060              0.2521540
SP   3   1.00
      3.1864900             -0.2518300             -0.0142990
      1.1442700              0.0615890              0.3235720
      0.4203770              1.0601800              0.7435070
SP   1   1.00
      0.1426570              1.0000000              1.0000000
D    1   1.00
      1.5000000              1.0000000
D    1   1.00
      0.3750000              1.0000000
F    1   1.00
      0.7000000              1.0000000
****
}

set {
reference uhf
freeze_core true
e_convergence 10
d_convergence 10
dft_spherical_points 1202
dft_radial_points 99
}

e = energy('b3lyp')

print_out('Grab this energy {0}'.format(e))
--------------------------------------------------------------------------

    Molecular point group: c1

    Geometry (in Bohr), charge = 0, multiplicity = 2:

       Center              X                  Y                   Z               Mass
    ------------   -----------------  -----------------  -----------------  -----------------
         C           -0.323334347212    -0.001957480181    -0.003551934872    12.000000000000
         C            0.060220706288    -1.407156669981    -2.428221905472    12.000000000000
         C            0.061813725088     2.803464547519     0.007684899428    12.000000000000
         C            0.061262257988    -1.394901848381     2.422359804528    12.000000000000
         H            2.084976804488    -1.650120065181    -2.851879789872     1.007825032230
         H           -0.769418378612    -0.397446700581    -4.026174513672     1.007825032230
         H           -0.764799297312    -3.300434404081    -2.347157856872     1.007825032230
         H            2.089362070788     3.287723515319     0.012591000328     1.007825032230
         H           -0.766992972912     3.675994001419     1.687144962628     1.007825032230
         H           -0.761478037612     3.691164178619    -1.665336018072     1.007825032230
         H            2.086316031688    -1.632522981381     2.846597737728     1.007825032230
         H           -0.760214410912    -3.288879515081     2.349651056628     1.007825032230
         H           -0.770347408612    -0.378911996181     4.015151951928     1.007825032230

  Charge       = 0
  Multiplicity = 2
  Basis Set: ANONYMOUSC54C3DE5
    Blend: 6-31G_2DFP_
  Basis Set: (ANONYMOUSC54C3DE5 AUX)
    Blend: DEF2-UNIVERSAL-JKFIT

    Orbital Energies [Eh]
    ---------------------

    Alpha Occupied:

       1A    -10.180341     2A    -10.167236     3A    -10.167174
       4A    -10.166636     5A     -0.797771     6A     -0.686449
       7A     -0.685922     8A     -0.530776     9A     -0.441127
      10A     -0.434946    11A     -0.434398    12A     -0.382751
      13A     -0.382446    14A     -0.363610    15A     -0.338308
      16A     -0.337686    17A     -0.168961

    Alpha Virtual:

      18A      0.076072    19A      0.133907    20A      0.134404
      21A      0.142490    22A      0.142763    23A      0.154880
      24A      0.178555    25A      0.179001    26A      0.203544
      27A      0.214807    28A      0.275611    29A      0.276361
      30A      0.399079    31A      0.399300    32A      0.403427
      33A      0.423965    34A      0.424241    35A      0.456596
      36A      0.494985    37A      0.495785    38A      0.512172
      39A      0.513986    40A      0.578491    41A      0.579111
      42A      0.591416    43A      0.591863    44A      0.602576
      45A      0.624768    46A      0.631764    47A      0.636014
      48A      0.636494    49A      0.663118    50A      0.663710
      51A      0.683612    52A      0.684097    53A      0.734994
      54A      0.824574    55A      0.826228    56A      0.853915
      57A      0.914760    58A      0.915296    59A      0.944049
      60A      0.944518    61A      0.961134    62A      0.961659
      63A      1.003471    64A      1.126940    65A      1.129280
      66A      1.142200    67A      1.162794    68A      1.163767
      69A      1.223334    70A      1.273953    71A      1.275034
      72A      1.279364    73A      1.324202    74A      1.324506
      75A      1.355996    76A      1.365213    77A      1.366832
      78A      1.392419    79A      1.403237    80A      1.404941
      81A      1.416562    82A      1.417681    83A      1.427936
      84A      1.491435    85A      1.499068    86A      1.542451
      87A      1.543218    88A      1.572612    89A      1.576388
      90A      1.669826    91A      1.738321    92A      1.740479
      93A      1.768347    94A      1.830743    95A      1.832057
      96A      1.971725    97A      2.017507    98A      2.018371
      99A      2.020469   100A      2.049962   101A      2.055433
     102A      2.738213   103A      2.738752   104A      2.790926
     105A      2.811434   106A      2.889462   107A      2.890385
     108A      2.894996   109A      2.929250   110A      2.929740
     111A      2.958988   112A      2.963449   113A      2.965334
     114A      3.034011   115A      3.070239   116A      3.072304
     117A      3.084378   118A      3.168019   119A      3.169561
     120A      3.180588   121A      3.284605   122A      3.286010
     123A      3.326126   124A      3.328204   125A      3.375665
     126A      3.489588   127A      3.490659   128A      3.514022
     129A      3.525292   130A      3.566864   131A      3.569823
     132A      3.575341   133A      3.666156   134A      3.666584
     135A      3.679679   136A      3.693537   137A      3.694679
     138A      3.775178   139A      3.778296   140A      3.789340
     141A      3.910728   142A      3.913739   143A      4.034470
     144A      4.109670   145A      4.113090   146A      4.146359
     147A      4.149844   148A      4.173233   149A      4.201326
     150A      4.202634   151A      4.204765   152A      4.211004
     153A      4.315425   154A      4.316471   155A      4.359003
     156A      4.423907   157A      4.424876   158A      4.443551
     159A      4.515763   160A      4.517939   161A      4.576986
     162A      4.579524   163A      4.617533   164A      4.709441
     165A      4.773166   166A      4.776078   167A      4.836953
     168A      4.962847   169A      5.001797   170A      5.004138
     171A      5.228013   172A      5.246633   173A      5.247018
     174A      5.354314   175A      5.356702   176A      5.479333

    Beta Occupied:

       1A    -10.167990     2A    -10.167934     3A    -10.167401
       4A    -10.166517     5A     -0.781096     6A     -0.684249
       7A     -0.683727     8A     -0.511748     9A     -0.431327
      10A     -0.430759    11A     -0.421824    12A     -0.376843
      13A     -0.376525    14A     -0.362594    15A     -0.333434
      16A     -0.332805

    Beta Virtual:

      17A     -0.025743    18A      0.077081    19A      0.134786
      20A      0.135305    21A      0.144365    22A      0.144630
      23A      0.163339    24A      0.182217    25A      0.182682
      26A      0.215036    27A      0.218926    28A      0.281963
      29A      0.282705    30A      0.400283    31A      0.400502
      32A      0.419801    33A      0.426759    34A      0.427070
      35A      0.468507    36A      0.497243    37A      0.498051
      38A      0.513908    39A      0.556327    40A      0.584058
      41A      0.584648    42A      0.597612    43A      0.598022
      44A      0.609995    45A      0.628150    46A      0.631924
      47A      0.639277    48A      0.639800    49A      0.666668
      50A      0.667285    51A      0.686198    52A      0.686784
      53A      0.757516    54A      0.829732    55A      0.831406
      56A      0.855268    57A      0.922719    58A      0.923278
      59A      0.945908    60A      0.953432    61A      0.966373
      62A      0.967029    63A      1.008708    64A      1.130978
      65A      1.133302    66A      1.155567    67A      1.167856
      68A      1.168860    69A      1.232304    70A      1.279545
      71A      1.280633    72A      1.285121    73A      1.329193
      74A      1.329495    75A      1.365412    76A      1.370370
      77A      1.372154    78A      1.393482    79A      1.406724
      80A      1.408389    81A      1.421607    82A      1.422726
      83A      1.428212    84A      1.492486    85A      1.509511
      86A      1.546764    87A      1.547716    88A      1.580637
      89A      1.584109    90A      1.674672    91A      1.744084
      92A      1.746241    93A      1.779125    94A      1.834580
      95A      1.835930    96A      1.972588    97A      2.023947
      98A      2.026920    99A      2.039645   100A      2.056772
     101A      2.062062   102A      2.746498   103A      2.747138
     104A      2.811847   105A      2.816060   106A      2.902257
     107A      2.903008   108A      2.924640   109A      2.931789
     110A      2.932186   111A      2.960055   112A      2.968028
     113A      2.969840   114A      3.041946   115A      3.080003
     116A      3.082234   117A      3.086331   118A      3.183861
     119A      3.185131   120A      3.188343   121A      3.289471
     122A      3.290745   123A      3.329928   124A      3.332013
     125A      3.383482   126A      3.492309   127A      3.493391
     128A      3.512402   129A      3.528347   130A      3.574705
     131A      3.580671   132A      3.583178   133A      3.670984
     134A      3.671269   135A      3.692958   136A      3.725278
     137A      3.726191   138A      3.779780   139A      3.782849
     140A      3.817782   141A      3.920560   142A      3.923542
     143A      4.045358   144A      4.116492   145A      4.119896
     146A      4.153641   147A      4.156984   148A      4.187292
     149A      4.207248   150A      4.210273   151A      4.211004
     152A      4.215520   153A      4.322833   154A      4.323943
     155A      4.362366   156A      4.432137   157A      4.433023
     158A      4.446492   159A      4.523626   160A      4.525647
     161A      4.587516   162A      4.590195   163A      4.624730
     164A      4.719787   165A      4.780100   166A      4.783050
     167A      4.839872   168A      4.967640   169A      5.005826
     170A      5.008188   171A      5.233725   172A      5.248407
     173A      5.248815   174A      5.360767   175A      5.363210
     176A      5.481654

    Final Occupation by Irrep:
              A
    DOCC [    16 ]
    SOCC [     1 ]

  @DF-UKS Final Energy:  -157.81306010929677

   => Energetics <=

    Nuclear Repulsion Energy =            125.3948816949879870
    One-Electron Energy =                -458.7494056850048310
    Two-Electron Energy =                 195.8486111317765221
    DFT Exchange-Correlation Energy =     -20.3071472510564348
    Empirical Dispersion Energy =           0.0000000000000000
    VV10 Nonlocal Energy =                  0.0000000000000000
    Total Energy =                       -157.8130601092967709

  UHF NO Occupations:
  HONO-2 :   15  A 1.9996009
  HONO-1 :   16  A 1.9989804
  HONO-0 :   17  A 1.0000000
  LUNO+0 :   18  A 0.0010196
  LUNO+1 :   19  A 0.0003991
  LUNO+2 :   20  A 0.0001982
  LUNO+3 :   21  A 0.0001969

Computation Completed

Properties will be evaluated at   0.000000,   0.000000,   0.000000 [a0]

Properties computed using the SCF density matrix

  Nuclear Dipole Moment: [e a0]
     X:     0.8272      Y:     0.0033      Z:     0.0102

  Electronic Dipole Moment: [e a0]
     X:    -0.7493      Y:    -0.0032      Z:    -0.0110

  Dipole Moment: [e a0]
     X:     0.0779      Y:     0.0000      Z:    -0.0007     Total:     0.0779

  Dipole Moment: [D]
     X:     0.1980      Y:     0.0001      Z:    -0.0019     Total:     0.1980

*** tstop() called on n071 at Fri Nov  5 15:46:42 2021
Module time:
	user time   =     606.91 seconds =      10.12 minutes
	system time =      13.96 seconds =       0.23 minutes
	total time  =        156 seconds =       2.60 minutes
Total time:
	user time   =     606.91 seconds =      10.12 minutes
	system time =      13.96 seconds =       0.23 minutes
	total time  =        156 seconds =       2.60 minutes
Grab this energy -157.81306010929677
    Psi4 stopped on: Friday, 05 November 2021 03:46PM
    Psi4 wall time for execution: 0:02:36.15

*** Psi4 exiting successfully. Buy a developer a beer!
