                               Psi4 1.4a2.dev629

  ==> Input File <==

--------------------------------------------------------------------------
import os
memory 14 GB

molecule {
 C   -0.3233412684    0.0015168119    0.0000000000
 C    0.0614535699   -1.4020152760   -2.4258939430
 C    0.0603900079    2.8014632401   -0.0000000000
 C    0.0614535699   -1.4020152760    2.4258939430
 H    2.0849160961   -1.6435344125   -2.8479873443
 H   -0.7631756036   -0.3865680533   -4.0258040874
 H   -0.7656737117   -3.2936181821   -2.3485323208
 H    2.0908394571    3.2877070887    0.0000000000
 H   -0.7677683874    3.6803801967    1.6732789561
 H   -0.7677683874    3.6803801967   -1.6732789561
 H    2.0849160961   -1.6435344125    2.8479873443
 H   -0.7656737117   -3.2936181821    2.3485323208
 H   -0.7631756036   -0.3865680533    4.0258040874
units bohr
0 2
}

basis {

assign 6-31g_2dfp_

[ 6-31g_2dfp_ ]

spherical

!----------------------------------------------------------------------
! Basis Set Exchange
! Version v0.8.13
! https://www.basissetexchange.org
!----------------------------------------------------------------------
!   Basis set: 6-31G(2df,p)
! Description: 6-31G(2df,p)
!        Role: orbital
!     Version: 0  (Data from the original Basis Set Exchange)
!----------------------------------------------------------------------

****
H     0
S    3   1.00
     18.7311370              0.03349460
      2.8253937              0.23472695
      0.6401217              0.81375733
S    1   1.00
      0.1612778              1.00000000
P    1   1.00
      1.5000000              1.0000000
P    1   1.00
      0.3750000              1.0000000
****
B     0
S    6   1.00
   2068.8823000              0.0018663
    310.6495700              0.0142515
     70.6830330              0.0695516
     19.8610800              0.2325729
      6.2993048              0.4670787
      2.1270270              0.3634314
SP   3   1.00
      4.7279710             -0.1303938              0.0745976
      1.1903377             -0.1307889              0.3078467
      0.3594117              1.1309444              0.7434568
SP   1   1.00
      0.1267512              1.0000000              1.0000000
D    1   1.00
      0.8020000              1.0000000
D    1   1.00
      0.2005000              1.0000000
F    1   1.00
      0.5000000              1.0000000
****
C     0
S    6   1.00
   3047.5249000              0.0018347
    457.3695100              0.0140373
    103.9486900              0.0688426
     29.2101550              0.2321844
      9.2866630              0.4679413
      3.1639270              0.3623120
SP   3   1.00
      7.8682724             -0.1193324              0.0689991
      1.8812885             -0.1608542              0.3164240
      0.5442493              1.1434564              0.7443083
SP   1   1.00
      0.1687144              1.0000000              1.0000000
D    1   1.00
      1.2520000              1.0000000
D    1   1.00
      0.3130000              1.0000000
F    1   1.00
      0.8000000              1.0000000
****
N     0
S    6   1.00
   4173.5110000              0.0018348
    627.4579000              0.0139950
    142.9021000              0.0685870
     40.2343300              0.2322410
     12.8202100              0.4690700
      4.3904370              0.3604550
SP   3   1.00
     11.6263580             -0.1149610              0.0675800
      2.7162800             -0.1691180              0.3239070
      0.7722180              1.1458520              0.7408950
SP   1   1.00
      0.2120313              1.0000000              1.0000000
D    1   1.00
      1.8260000              1.0000000
D    1   1.00
      0.4565000              1.0000000
F    1   1.00
      1.0000000              1.0000000
****
O     0
S    6   1.00
   5484.6717000              0.0018311
    825.2349500              0.0139501
    188.0469600              0.0684451
     52.9645000              0.2327143
     16.8975700              0.4701930
      5.7996353              0.3585209
SP   3   1.00
     15.5396160             -0.1107775              0.0708743
      3.5999336             -0.1480263              0.3397528
      1.0137618              1.1307670              0.7271586
SP   1   1.00
      0.2700058              1.0000000              1.0000000
D    1   1.00
      2.5840000              1.0000000
D    1   1.00
      0.6460000              1.0000000
F    1   1.00
      1.4000000              1.0000000
****
F     0
S    6   1.00
   7001.7130900              0.0018196169
   1051.3660900              0.0139160796
    239.2856900              0.0684053245
     67.3974453              0.233185760
     21.5199573              0.471267439
      7.40310130             0.356618546
SP   3   1.00
     20.8479528             -0.108506975            0.0716287243
      4.80830834            -0.146451658            0.3459121030
      1.34406986             1.128688580            0.7224699570
SP   1   1.00
      0.358151393            1.0000000              1.0000000
D    1   1.00
      3.5000000              1.0000000
D    1   1.00
      0.8750000              1.0000000
F    1   1.00
      1.8500000              1.0000000
****
Al     0
S    6   1.00
  13983.1000000              0.00194267
   2098.7500000              0.0148599
    477.7050000              0.0728494
    134.3600000              0.2468300
     42.8709000              0.4872580
     14.5189000              0.3234960
SP   6   1.00
    239.6680000             -0.00292619             0.00460285
     57.4419000             -0.0374080              0.0331990
     18.2859000             -0.1144870              0.1362820
      6.5991400              0.1156350              0.3304760
      2.4904900              0.6125950              0.4491460
      0.9445400              0.3937990              0.2657040
SP   3   1.00
      1.2779000             -0.2276060             -0.0175130
      0.3975900              0.00144583             0.2445330
      0.1600950              1.0927900              0.8049340
SP   1   1.00
      0.0556577              1.0000000              1.0000000
D    1   1.00
      0.6500000              1.0000000
D    1   1.00
      0.1625000              1.0000000
F    1   1.00
      0.2500000              1.0000000
****
Si     0
S    6   1.00
  16115.9000000              0.00195948
   2425.5800000              0.01492880
    553.8670000              0.07284780
    156.3400000              0.24613000
     50.0683000              0.48591400
     17.0178000              0.32500200
SP   6   1.00
    292.7180000             -0.00278094             0.00443826
     69.8731000             -0.03571460             0.03266790
     22.3363000             -0.11498500             0.13472100
      8.1503900              0.09356340             0.32867800
      3.1345800              0.60301700             0.44964000
      1.2254300              0.41895900             0.26137200
SP   3   1.00
      1.7273800             -0.24463000            -0.01779510
      0.5729220              0.00431572             0.25353900
      0.2221920              1.09818000             0.80066900
SP   1   1.00
      0.0778369              1.00000000             1.00000000
D    1   1.00
      0.9000000              1.0000000
D    1   1.00
      0.2250000              1.0000000
F    1   1.00
      0.3200000              1.0000000
****
P     0
S    6   1.00
  19413.3000000              0.0018516
   2909.4200000              0.0142062
    661.3640000              0.0699995
    185.7590000              0.2400790
     59.1943000              0.4847620
     20.0310000              0.3352000
SP   6   1.00
    339.4780000             -0.00278217             0.00456462
     81.0101000             -0.0360499              0.03369360
     25.8780000             -0.1166310              0.13975500
      9.4522100              0.0968328              0.33936200
      3.6656600              0.6144180              0.45092100
      1.4674600              0.4037980              0.23858600
SP   3   1.00
      2.1562300             -0.2529230             -0.01776530
      0.7489970              0.0328517              0.27405800
      0.2831450              1.0812500              0.78542100
SP   1   1.00
      0.0998317              1.0000000              1.00000000
D    1   1.00
      1.1000000              1.0000000
D    1   1.00
      0.2750000              1.0000000
F    1   1.00
      0.4500000              1.0000000
****
S     0
S    6   1.00
  21917.1000000              0.0018690
   3301.4900000              0.0142300
    754.1460000              0.0696960
    212.7110000              0.2384870
     67.9896000              0.4833070
     23.0515000              0.3380740
SP   6   1.00
    423.7350000             -0.0023767              0.0040610
    100.7100000             -0.0316930              0.0306810
     32.1599000             -0.1133170              0.1304520
     11.8079000              0.0560900              0.3272050
      4.6311000              0.5922550              0.4528510
      1.8702500              0.4550060              0.2560420
SP   3   1.00
      2.6158400             -0.2503740             -0.0145110
      0.9221670              0.0669570              0.3102630
      0.3412870              1.0545100              0.7544830
SP   1   1.00
      0.1171670              1.0000000              1.0000000
D    1   1.00
      1.3000000              1.0000000
D    1   1.00
      0.3250000              1.0000000
F    1   1.00
      0.5500000              1.0000000
****
Cl     0
S    6   1.00
  25180.1000000              0.0018330
   3780.3500000              0.0140340
    860.4740000              0.0690970
    242.1450000              0.2374520
     77.3349000              0.4830340
     26.2470000              0.3398560
SP   6   1.00
    491.7650000             -0.0022974              0.0039894
    116.9840000             -0.0307140              0.0303180
     37.4153000             -0.1125280              0.1298800
     13.7834000              0.0450160              0.3279510
      5.4521500              0.5893530              0.4535270
      2.2258800              0.4652060              0.2521540
SP   3   1.00
      3.1864900             -0.2518300             -0.0142990
      1.1442700              0.0615890              0.3235720
      0.4203770              1.0601800              0.7435070
SP   1   1.00
      0.1426570              1.0000000              1.0000000
D    1   1.00
      1.5000000              1.0000000
D    1   1.00
      0.3750000              1.0000000
F    1   1.00
      0.7000000              1.0000000
****
}

set {
reference uhf
freeze_core true
e_convergence 10
d_convergence 10
dft_spherical_points 1202
dft_radial_points 99
}

e = energy('b3lyp')

print_out('Grab this energy {0}'.format(e))
--------------------------------------------------------------------------

    Molecular point group: cs

    Geometry (in Bohr), charge = 0, multiplicity = 2:

       Center              X                  Y                   Z               Mass
    ------------   -----------------  -----------------  -----------------  -----------------
         C           -0.323340471803     0.001719575130     0.000000000000    12.000000000000
         C            0.061454366497    -1.401812512770    -2.425893943000    12.000000000000
         C            0.060390804497     2.801666003330     0.000000000000    12.000000000000
         C            0.061454366497    -1.401812512770     2.425893943000    12.000000000000
         H            2.084916892697    -1.643331649270    -2.847987344300     1.007825032230
         H           -0.763174807003    -0.386365290070    -4.025804087400     1.007825032230
         H           -0.765672915103    -3.293415418870    -2.348532320800     1.007825032230
         H            2.090840253697     3.287909851930     0.000000000000     1.007825032230
         H           -0.767767590803     3.680582959930     1.673278956100     1.007825032230
         H           -0.767767590803     3.680582959930    -1.673278956100     1.007825032230
         H            2.084916892697    -1.643331649270     2.847987344300     1.007825032230
         H           -0.765672915103    -3.293415418870     2.348532320800     1.007825032230
         H           -0.763174807003    -0.386365290070     4.025804087400     1.007825032230

  Charge       = 0
  Multiplicity = 2
  Basis Set: ANONYMOUS2866B7FC
    Blend: 6-31G_2DFP_
  Basis Set: (ANONYMOUS2866B7FC AUX)
    Blend: DEF2-UNIVERSAL-JKFIT

    Orbital Energies [Eh]
    ---------------------

    Alpha Occupied:

       1Ap   -10.180342     2Ap   -10.167076     1App  -10.167002
       3Ap   -10.166967     4Ap    -0.797766     5Ap    -0.686267
       2App   -0.686108     6Ap    -0.530777     7Ap    -0.441131
       3App   -0.434701     8Ap    -0.434633     9Ap    -0.382614
       4App   -0.382585     5App   -0.363610    10Ap    -0.338325
       6App   -0.337673    11Ap    -0.168961

    Alpha Virtual:

      12Ap     0.076072    13Ap     0.134026     7App    0.134285
       8App    0.142626    14Ap     0.142626    15Ap     0.154882
      16Ap     0.178642     9App    0.178914    17Ap     0.203548
      10App    0.214802    11App    0.275782    18Ap     0.276188
      12App    0.399089    19Ap     0.399369    20Ap     0.403344
      21Ap     0.424008    13App    0.424187    22Ap     0.456591
      14App    0.495281    23Ap     0.495497    15App    0.512160
      24Ap     0.513981    25Ap     0.578679    16App    0.578953
      26Ap     0.591501    17App    0.591765    27Ap     0.602575
      28Ap     0.624764    18App    0.631772    29Ap     0.636145
      19App    0.636349    30Ap     0.663137    20App    0.663697
      21App    0.683689    31Ap     0.684016    32Ap     0.734995
      22App    0.825384    33Ap     0.825422    23App    0.853920
      34Ap     0.914709    24App    0.915343    25App    0.944126
      35Ap     0.944610    36Ap     0.961238    26App    0.961353
      37Ap     1.003450    38Ap     1.128036    27App    1.128183
      39Ap     1.142188    40Ap     1.163144    28App    1.163420
      41Ap     1.223331    29App    1.274459    42Ap     1.274516
      43Ap     1.279357    30App    1.324335    44Ap     1.324366
      45Ap     1.355960    46Ap     1.365797    31App    1.366310
      32App    1.392445    47Ap     1.403837    33App    1.404264
      34App    1.416337    48Ap     1.417925    35App    1.427910
      36App    1.491493    49Ap     1.499082    50Ap     1.542557
      37App    1.543122    51Ap     1.574286    38App    1.574611
      52Ap     1.669818    53Ap     1.739256    39App    1.739471
      54Ap     1.768439    40App    1.830665    55Ap     1.832128
      41App    1.971720    56Ap     2.018140    57Ap     2.018328
      42App    2.019910    58Ap     2.051116    43App    2.054183
      59Ap     2.738124    44App    2.738847    60Ap     2.790924
      45App    2.811423    46App    2.889280    61Ap     2.890593
      62Ap     2.894973    47App    2.929343    63Ap     2.929647
      48App    2.958995    64Ap     2.963750    49App    2.965007
      65Ap     3.034014    50App    3.071161    66Ap     3.071405
      51App    3.084360    52App    3.168686    67Ap     3.168886
      68Ap     3.180587    53App    3.284771    69Ap     3.285860
      54App    3.327007    70Ap     3.327301    71Ap     3.375635
      55App    3.489939    72Ap     3.490366    56App    3.514017
      73Ap     3.525314    57App    3.568343    74Ap     3.568423
      58App    3.575178    75Ap     3.665803    59App    3.666918
      76Ap     3.679718    60App    3.693951    77Ap     3.694304
      78Ap     3.776795    61App    3.776807    79Ap     3.789119
      62App    3.911768    80Ap     3.912681    81Ap     4.034439
      82Ap     4.110690    63App    4.112041    64App    4.147333
      83Ap     4.148869    84Ap     4.173220    65App    4.202211
      85Ap     4.202439    86Ap     4.204132    66App    4.210918
      87Ap     4.315918    67App    4.316044    68App    4.358976
      88Ap     4.424217    69App    4.424660    70App    4.443465
      89Ap     4.516341    71App    4.517352    72App    4.577865
      90Ap     4.578653    91Ap     4.617572    92Ap     4.709454
      93Ap     4.773982    73App    4.775196    74App    4.836896
      94Ap     4.962871    95Ap     5.001930    75App    5.003971
      96Ap     5.228005    97Ap     5.244979    76App    5.248610
      98Ap     5.354354    77App    5.356700    78App    5.479377

    Beta Occupied:

       1Ap   -10.167835     1App  -10.167753     2Ap   -10.167735
       3Ap   -10.166519     4Ap    -0.781091     5Ap    -0.684072
       2App   -0.683908     6Ap    -0.511748     3App   -0.431072
       7Ap    -0.431017     8Ap    -0.421815     4App   -0.376685
       9Ap    -0.376684     5App   -0.362594    10Ap    -0.333440
       6App   -0.332804

    Beta Virtual:

      11Ap    -0.025743    12Ap     0.077081    13Ap     0.134939
       7App    0.135152     8App    0.144489    14Ap     0.144505
      15Ap     0.163339    16Ap     0.182307     9App    0.182592
      10App    0.215032    17Ap     0.218930    11App    0.282141
      18Ap     0.282525    12App    0.400259    19Ap     0.400537
      20Ap     0.419791    21Ap     0.426819    13App    0.426998
      22Ap     0.468499    14App    0.497531    23Ap     0.497768
      15App    0.513895    24Ap     0.556325    25Ap     0.584245
      16App    0.584488    26Ap     0.597668    17App    0.597959
      27Ap     0.609998    28Ap     0.628139    18App    0.631929
      29Ap     0.639427    19App    0.639637    30Ap     0.666737
      20App    0.667225    21App    0.686345    31Ap     0.686631
      32Ap     0.757518    22App    0.830547    33Ap     0.830596
      23App    0.855274    34Ap     0.922694    24App    0.923300
      25App    0.945963    35Ap     0.953540    36Ap     0.966505
      26App    0.966697    37Ap     1.008691    38Ap     1.132135
      27App    1.132139    39Ap     1.155544    40Ap     1.168196
      28App    1.168539    41Ap     1.232302    29App    1.280042
      42Ap     1.280128    43Ap     1.285109    30App    1.329313
      44Ap     1.329369    45Ap     1.365371    46Ap     1.371062
      31App    1.371528    32App    1.393504    47Ap     1.407276
      33App    1.407765    34App    1.421388    48Ap     1.422973
      35App    1.428179    36App    1.492542    49Ap     1.509524
      50Ap     1.546990    37App    1.547503    51Ap     1.582155
      38App    1.582488    52Ap     1.674665    53Ap     1.745034
      39App    1.745233    54Ap     1.779201    40App    1.834510
      55Ap     1.835994    41App    1.972579    56Ap     2.024566
      42App    2.026334    57Ap     2.039639    58Ap     2.057871
      43App    2.060876    59Ap     2.746463    44App    2.747180
      45App    2.811835    60Ap     2.816060    46App    2.901931
      61Ap     2.903347    62Ap     2.924653    47App    2.931819
      63Ap     2.932129    48App    2.960058    64Ap     2.968297
      49App    2.969552    65Ap     3.041947    50App    3.081139
      66Ap     3.081230    51App    3.086195    52App    3.184351
      67Ap     3.184726    68Ap     3.188264    53App    3.289590
      69Ap     3.290638    54App    3.330801    70Ap     3.331119
      71Ap     3.383451    55App    3.492691    72Ap     3.493074
      56App    3.512385    73Ap     3.528360    57App    3.574969
      58App    3.581659    74Ap     3.581854    75Ap     3.670620
      59App    3.671619    76Ap     3.692982    77Ap     3.725762
      60App    3.725766    78Ap     3.781317    61App    3.781338
      79Ap     3.817662    62App    3.921542    80Ap     3.922541
      81Ap     4.045324    82Ap     4.117528    63App    4.118833
      64App    4.154631    83Ap     4.155988    84Ap     4.187279
      65App    4.208084    85Ap     4.209600    86Ap     4.210952
      66App    4.215390    87Ap     4.323389    67App    4.323452
      68App    4.362338    88Ap     4.432437    69App    4.432854
      70App    4.446363    89Ap     4.524114    71App    4.525159
      72App    4.588477    90Ap     4.589241    91Ap     4.624767
      92Ap     4.719799    93Ap     4.780954    73App    4.782130
      74App    4.839813    94Ap     4.967666    95Ap     5.005988
      75App    5.007992    96Ap     5.233721    97Ap     5.246765
      76App    5.250391    98Ap     5.360843    77App    5.363171
      78App    5.481699

    Final Occupation by Irrep:
             Ap   App
    DOCC [    10,    6 ]
    SOCC [     1,    0 ]

  @DF-UKS Final Energy:  -157.81306457950669

   => Energetics <=

    Nuclear Repulsion Energy =            125.3946269767230177
    One-Electron Energy =                -458.7489065037878504
    Two-Electron Energy =                 195.8483587133009109
    DFT Exchange-Correlation Energy =     -20.3071437657427865
    Empirical Dispersion Energy =           0.0000000000000000
    VV10 Nonlocal Energy =                  0.0000000000000000
    Total Energy =                       -157.8130645795066869

  UHF NO Occupations:
  HONO-2 :    9 Ap 1.9996009
  HONO-1 :   10 Ap 1.9989804
  HONO-0 :   11 Ap 1.0000000
  LUNO+0 :   12 Ap 0.0010196
  LUNO+1 :   13 Ap 0.0003991
  LUNO+2 :    7App 0.0001980
  LUNO+3 :   14 Ap 0.0001971

Computation Completed

Properties will be evaluated at   0.000000,   0.000000,   0.000000 [a0]

Properties computed using the SCF density matrix

  Nuclear Dipole Moment: [e a0]
     X:     0.8272      Y:     0.0014      Z:     0.0000

  Electronic Dipole Moment: [e a0]
     X:    -0.7493      Y:    -0.0007      Z:     0.0000

  Dipole Moment: [e a0]
     X:     0.0779      Y:     0.0007      Z:     0.0000     Total:     0.0779

  Dipole Moment: [D]
     X:     0.1980      Y:     0.0018      Z:     0.0000     Total:     0.1980

*** tstop() called on n065 at Fri Nov  5 11:49:06 2021
Module time:
	user time   =     540.41 seconds =       9.01 minutes
	system time =      11.80 seconds =       0.20 minutes
	total time  =        139 seconds =       2.32 minutes
Total time:
	user time   =     540.41 seconds =       9.01 minutes
	system time =      11.80 seconds =       0.20 minutes
	total time  =        139 seconds =       2.32 minutes
Grab this energy -157.8130645795067
    Psi4 stopped on: Friday, 05 November 2021 11:49AM
    Psi4 wall time for execution: 0:02:18.88

*** Psi4 exiting successfully. Buy a developer a beer!
