                               Psi4 1.4a2.dev629

  ==> Input File <==

--------------------------------------------------------------------------
import os
memory 14 GB

molecule {
 C   -0.3233396113    0.0019961640   -0.0000011508
 C    0.0612179921   -1.3993858391   -2.4277317371
 C    0.0608669422    2.8009136147    0.0009641813
 C    0.0612173939   -1.4010599835    2.4267623464
 H    2.0868199546   -1.6399245625   -2.8525057354
 H   -0.7644818071   -0.3921361887   -4.0281237883
 H   -0.7669907689   -3.2922072637   -2.3436911537
 H    2.0870216021    3.2835152695    0.0025998470
 H   -0.7627779274    3.6799620515    1.6739707242
 H   -0.7675014436    3.6809865842   -1.6774971830
 H    2.0868240362   -1.6444286581    2.8498966431
 H   -0.7622707079   -3.2886516982    2.3445875851
 H   -0.7692135317   -0.3896038036    4.0307694212
units bohr
0 2
}

basis {

assign 6-31g_2dfp_

[ 6-31g_2dfp_ ]

spherical

!----------------------------------------------------------------------
! Basis Set Exchange
! Version v0.8.13
! https://www.basissetexchange.org
!----------------------------------------------------------------------
!   Basis set: 6-31G(2df,p)
! Description: 6-31G(2df,p)
!        Role: orbital
!     Version: 0  (Data from the original Basis Set Exchange)
!----------------------------------------------------------------------

****
H     0
S    3   1.00
     18.7311370              0.03349460
      2.8253937              0.23472695
      0.6401217              0.81375733
S    1   1.00
      0.1612778              1.00000000
P    1   1.00
      1.5000000              1.0000000
P    1   1.00
      0.3750000              1.0000000
****
B     0
S    6   1.00
   2068.8823000              0.0018663
    310.6495700              0.0142515
     70.6830330              0.0695516
     19.8610800              0.2325729
      6.2993048              0.4670787
      2.1270270              0.3634314
SP   3   1.00
      4.7279710             -0.1303938              0.0745976
      1.1903377             -0.1307889              0.3078467
      0.3594117              1.1309444              0.7434568
SP   1   1.00
      0.1267512              1.0000000              1.0000000
D    1   1.00
      0.8020000              1.0000000
D    1   1.00
      0.2005000              1.0000000
F    1   1.00
      0.5000000              1.0000000
****
C     0
S    6   1.00
   3047.5249000              0.0018347
    457.3695100              0.0140373
    103.9486900              0.0688426
     29.2101550              0.2321844
      9.2866630              0.4679413
      3.1639270              0.3623120
SP   3   1.00
      7.8682724             -0.1193324              0.0689991
      1.8812885             -0.1608542              0.3164240
      0.5442493              1.1434564              0.7443083
SP   1   1.00
      0.1687144              1.0000000              1.0000000
D    1   1.00
      1.2520000              1.0000000
D    1   1.00
      0.3130000              1.0000000
F    1   1.00
      0.8000000              1.0000000
****
N     0
S    6   1.00
   4173.5110000              0.0018348
    627.4579000              0.0139950
    142.9021000              0.0685870
     40.2343300              0.2322410
     12.8202100              0.4690700
      4.3904370              0.3604550
SP   3   1.00
     11.6263580             -0.1149610              0.0675800
      2.7162800             -0.1691180              0.3239070
      0.7722180              1.1458520              0.7408950
SP   1   1.00
      0.2120313              1.0000000              1.0000000
D    1   1.00
      1.8260000              1.0000000
D    1   1.00
      0.4565000              1.0000000
F    1   1.00
      1.0000000              1.0000000
****
O     0
S    6   1.00
   5484.6717000              0.0018311
    825.2349500              0.0139501
    188.0469600              0.0684451
     52.9645000              0.2327143
     16.8975700              0.4701930
      5.7996353              0.3585209
SP   3   1.00
     15.5396160             -0.1107775              0.0708743
      3.5999336             -0.1480263              0.3397528
      1.0137618              1.1307670              0.7271586
SP   1   1.00
      0.2700058              1.0000000              1.0000000
D    1   1.00
      2.5840000              1.0000000
D    1   1.00
      0.6460000              1.0000000
F    1   1.00
      1.4000000              1.0000000
****
F     0
S    6   1.00
   7001.7130900              0.0018196169
   1051.3660900              0.0139160796
    239.2856900              0.0684053245
     67.3974453              0.233185760
     21.5199573              0.471267439
      7.40310130             0.356618546
SP   3   1.00
     20.8479528             -0.108506975            0.0716287243
      4.80830834            -0.146451658            0.3459121030
      1.34406986             1.128688580            0.7224699570
SP   1   1.00
      0.358151393            1.0000000              1.0000000
D    1   1.00
      3.5000000              1.0000000
D    1   1.00
      0.8750000              1.0000000
F    1   1.00
      1.8500000              1.0000000
****
Al     0
S    6   1.00
  13983.1000000              0.00194267
   2098.7500000              0.0148599
    477.7050000              0.0728494
    134.3600000              0.2468300
     42.8709000              0.4872580
     14.5189000              0.3234960
SP   6   1.00
    239.6680000             -0.00292619             0.00460285
     57.4419000             -0.0374080              0.0331990
     18.2859000             -0.1144870              0.1362820
      6.5991400              0.1156350              0.3304760
      2.4904900              0.6125950              0.4491460
      0.9445400              0.3937990              0.2657040
SP   3   1.00
      1.2779000             -0.2276060             -0.0175130
      0.3975900              0.00144583             0.2445330
      0.1600950              1.0927900              0.8049340
SP   1   1.00
      0.0556577              1.0000000              1.0000000
D    1   1.00
      0.6500000              1.0000000
D    1   1.00
      0.1625000              1.0000000
F    1   1.00
      0.2500000              1.0000000
****
Si     0
S    6   1.00
  16115.9000000              0.00195948
   2425.5800000              0.01492880
    553.8670000              0.07284780
    156.3400000              0.24613000
     50.0683000              0.48591400
     17.0178000              0.32500200
SP   6   1.00
    292.7180000             -0.00278094             0.00443826
     69.8731000             -0.03571460             0.03266790
     22.3363000             -0.11498500             0.13472100
      8.1503900              0.09356340             0.32867800
      3.1345800              0.60301700             0.44964000
      1.2254300              0.41895900             0.26137200
SP   3   1.00
      1.7273800             -0.24463000            -0.01779510
      0.5729220              0.00431572             0.25353900
      0.2221920              1.09818000             0.80066900
SP   1   1.00
      0.0778369              1.00000000             1.00000000
D    1   1.00
      0.9000000              1.0000000
D    1   1.00
      0.2250000              1.0000000
F    1   1.00
      0.3200000              1.0000000
****
P     0
S    6   1.00
  19413.3000000              0.0018516
   2909.4200000              0.0142062
    661.3640000              0.0699995
    185.7590000              0.2400790
     59.1943000              0.4847620
     20.0310000              0.3352000
SP   6   1.00
    339.4780000             -0.00278217             0.00456462
     81.0101000             -0.0360499              0.03369360
     25.8780000             -0.1166310              0.13975500
      9.4522100              0.0968328              0.33936200
      3.6656600              0.6144180              0.45092100
      1.4674600              0.4037980              0.23858600
SP   3   1.00
      2.1562300             -0.2529230             -0.01776530
      0.7489970              0.0328517              0.27405800
      0.2831450              1.0812500              0.78542100
SP   1   1.00
      0.0998317              1.0000000              1.00000000
D    1   1.00
      1.1000000              1.0000000
D    1   1.00
      0.2750000              1.0000000
F    1   1.00
      0.4500000              1.0000000
****
S     0
S    6   1.00
  21917.1000000              0.0018690
   3301.4900000              0.0142300
    754.1460000              0.0696960
    212.7110000              0.2384870
     67.9896000              0.4833070
     23.0515000              0.3380740
SP   6   1.00
    423.7350000             -0.0023767              0.0040610
    100.7100000             -0.0316930              0.0306810
     32.1599000             -0.1133170              0.1304520
     11.8079000              0.0560900              0.3272050
      4.6311000              0.5922550              0.4528510
      1.8702500              0.4550060              0.2560420
SP   3   1.00
      2.6158400             -0.2503740             -0.0145110
      0.9221670              0.0669570              0.3102630
      0.3412870              1.0545100              0.7544830
SP   1   1.00
      0.1171670              1.0000000              1.0000000
D    1   1.00
      1.3000000              1.0000000
D    1   1.00
      0.3250000              1.0000000
F    1   1.00
      0.5500000              1.0000000
****
Cl     0
S    6   1.00
  25180.1000000              0.0018330
   3780.3500000              0.0140340
    860.4740000              0.0690970
    242.1450000              0.2374520
     77.3349000              0.4830340
     26.2470000              0.3398560
SP   6   1.00
    491.7650000             -0.0022974              0.0039894
    116.9840000             -0.0307140              0.0303180
     37.4153000             -0.1125280              0.1298800
     13.7834000              0.0450160              0.3279510
      5.4521500              0.5893530              0.4535270
      2.2258800              0.4652060              0.2521540
SP   3   1.00
      3.1864900             -0.2518300             -0.0142990
      1.1442700              0.0615890              0.3235720
      0.4203770              1.0601800              0.7435070
SP   1   1.00
      0.1426570              1.0000000              1.0000000
D    1   1.00
      1.5000000              1.0000000
D    1   1.00
      0.3750000              1.0000000
F    1   1.00
      0.7000000              1.0000000
****
}

set {
reference uhf
freeze_core true
e_convergence 10
d_convergence 10
dft_spherical_points 1202
dft_radial_points 99
}

e = energy('b3lyp')

print_out('Grab this energy {0}'.format(e))
--------------------------------------------------------------------------

    Molecular point group: c1

    Geometry (in Bohr), charge = 0, multiplicity = 2:

       Center              X                  Y                   Z               Mass
    ------------   -----------------  -----------------  -----------------  -----------------
         C           -0.323340131674     0.001522017668     0.000000074220    12.000000000000
         C            0.061217471726    -1.399859985432    -2.427730512080    12.000000000000
         C            0.060866421826     2.800439468368     0.000965406320    12.000000000000
         C            0.061216873526    -1.401534129832     2.426763571420    12.000000000000
         H            2.086819434226    -1.640398708832    -2.852504510380     1.007825032230
         H           -0.764482327474    -0.392610335032    -4.028122563280     1.007825032230
         H           -0.766991289274    -3.292681410032    -2.343689928680     1.007825032230
         H            2.087021081726     3.283041123168     0.002601072020     1.007825032230
         H           -0.762778447774     3.679487905168     1.673971949220     1.007825032230
         H           -0.767501963974     3.680512437868    -1.677495957980     1.007825032230
         H            2.086823515826    -1.644902804432     2.849897868120     1.007825032230
         H           -0.762271228274    -3.289125844532     2.344588810120     1.007825032230
         H           -0.769214052074    -0.390077949932     4.030770646220     1.007825032230

  Charge       = 0
  Multiplicity = 2
  Basis Set: ANONYMOUS856A3852
    Blend: 6-31G_2DFP_
  Basis Set: (ANONYMOUS856A3852 AUX)
    Blend: DEF2-UNIVERSAL-JKFIT

    Orbital Energies [Eh]
    ---------------------

    Alpha Occupied:

       1A    -10.180342     2A    -10.167121     3A    -10.167092
       4A    -10.166831     5A     -0.797767     6A     -0.686310
       7A     -0.686066     8A     -0.530778     9A     -0.441129
      10A     -0.434737    11A     -0.434602    12A     -0.382634
      13A     -0.382564    14A     -0.363610    15A     -0.338064
      16A     -0.337931    17A     -0.168961

    Alpha Virtual:

      18A      0.076072    19A      0.134114    20A      0.134176
      21A      0.142571    22A      0.142696    23A      0.154878
      24A      0.178741    25A      0.178820    26A      0.203546
      27A      0.214806    28A      0.275716    29A      0.276255
      30A      0.399195    31A      0.399254    32A      0.403352
      33A      0.424044    34A      0.424152    35A      0.456591
      36A      0.495331    37A      0.495449    38A      0.512158
      39A      0.513980    40A      0.578532    41A      0.579100
      42A      0.591338    43A      0.591924    44A      0.602574
      45A      0.624714    46A      0.631829    47A      0.636202
      48A      0.636288    49A      0.663379    50A      0.663445
      51A      0.683836    52A      0.683891    53A      0.734994
      54A      0.825191    55A      0.825620    56A      0.853915
      57A      0.914886    58A      0.915155    59A      0.944097
      60A      0.944638    61A      0.960612    62A      0.961975
      63A      1.003466    64A      1.127882    65A      1.128326
      66A      1.142217    67A      1.163164    68A      1.163389
      69A      1.223323    70A      1.274336    71A      1.274645
      72A      1.279346    73A      1.324340    74A      1.324347
      75A      1.355988    76A      1.365884    77A      1.366219
      78A      1.392468    79A      1.403744    80A      1.404364
      81A      1.416721    82A      1.417519    83A      1.427910
      84A      1.491457    85A      1.499101    86A      1.542548
      87A      1.543099    88A      1.574443    89A      1.574458
      90A      1.669841    91A      1.739042    92A      1.739779
      93A      1.768308    94A      1.830911    95A      1.831902
      96A      1.971699    97A      2.018058    98A      2.019100
      99A      2.019281   100A      2.051843   101A      2.053451
     102A      2.738200   103A      2.738762   104A      2.790928
     105A      2.811419   106A      2.889703   107A      2.890168
     108A      2.894989   109A      2.929479   110A      2.929513
     111A      2.958993   112A      2.964224   113A      2.964542
     114A      3.033995   115A      3.071165   116A      3.071413
     117A      3.084369   118A      3.168586   119A      3.168983
     120A      3.180590   121A      3.285261   122A      3.285350
     123A      3.326846   124A      3.327493   125A      3.375618
     126A      3.489979   127A      3.490330   128A      3.514013
     129A      3.525317   130A      3.567984   131A      3.568728
     132A      3.575229   133A      3.666175   134A      3.666546
     135A      3.679650   136A      3.693704   137A      3.694583
     138A      3.775560   139A      3.778053   140A      3.789151
     141A      3.911972   142A      3.912500   143A      4.034442
     144A      4.110034   145A      4.112555   146A      4.147302
     147A      4.149007   148A      4.173158   149A      4.202598
     150A      4.203033   151A      4.203163   152A      4.211021
     153A      4.315135   154A      4.316736   155A      4.359020
     156A      4.424210   157A      4.424718   158A      4.443458
     159A      4.516422   160A      4.517247   161A      4.577931
     162A      4.578588   163A      4.617526   164A      4.709457
     165A      4.773566   166A      4.775638   167A      4.836950
     168A      4.962873   169A      5.002593   170A      5.003325
     171A      5.228022   172A      5.246279   173A      5.247199
     174A      5.354872   175A      5.356302   176A      5.479388

    Beta Occupied:

       1A    -10.167874     2A    -10.167857     3A    -10.167593
       4A    -10.166519     5A     -0.781092     6A     -0.684105
       7A     -0.683876     8A     -0.511749     9A     -0.431107
      10A     -0.430982    11A     -0.421818    12A     -0.376715
      13A     -0.376654    14A     -0.362594    15A     -0.333183
      16A     -0.333058

    Beta Virtual:

      17A     -0.025742    18A      0.077081    19A      0.135012
      20A      0.135058    21A      0.144441    22A      0.144568
      23A      0.163338    24A      0.182430    25A      0.182473
      26A      0.215029    27A      0.218935    28A      0.282074
      29A      0.282593    30A      0.400365    31A      0.400430
      32A      0.419789    33A      0.426856    34A      0.426964
      35A      0.468498    36A      0.497595    37A      0.497707
      38A      0.513895    39A      0.556323    40A      0.584080
      41A      0.584652    42A      0.597532    43A      0.598090
      44A      0.609995    45A      0.628062    46A      0.632016
      47A      0.639469    48A      0.639593    49A      0.666942
      50A      0.667011    51A      0.686449    52A      0.686547
      53A      0.757517    54A      0.830338    55A      0.830810
      56A      0.855268    57A      0.922890    58A      0.923092
      59A      0.945957    60A      0.953539    61A      0.965978
      62A      0.967227    63A      1.008706    64A      1.131837
      65A      1.132429    66A      1.155597    67A      1.168318
      68A      1.168379    69A      1.232296    70A      1.279934
      71A      1.280241    72A      1.285100    73A      1.329316
      74A      1.329347    75A      1.365404    76A      1.371157
      77A      1.371433    78A      1.393529    79A      1.407181
      80A      1.407855    81A      1.421777    82A      1.422565
      83A      1.428179    84A      1.492519    85A      1.509532
      86A      1.546954    87A      1.547511    88A      1.582316
      89A      1.582326    90A      1.674686    91A      1.744795
      92A      1.745549    93A      1.779088    94A      1.834769
      95A      1.835756    96A      1.972573    97A      2.025373
      98A      2.025515    99A      2.039717   100A      2.058529
     101A      2.060193   102A      2.746554   103A      2.747082
     104A      2.811827   105A      2.816066   106A      2.902448
     107A      2.902834   108A      2.924661   109A      2.931973
     110A      2.931980   111A      2.960056   112A      2.968786
     113A      2.969069   114A      3.041927   115A      3.081083
     116A      3.081315   117A      3.086190   118A      3.184306
     119A      3.184771   120A      3.188263   121A      3.290035
     122A      3.290174   123A      3.330668   124A      3.331281
     125A      3.383436   126A      3.492724   127A      3.493043
     128A      3.512385   129A      3.528365   130A      3.574903
     131A      3.581468   132A      3.582100   133A      3.671078
     134A      3.671176   135A      3.692940   136A      3.725643
     137A      3.725878   138A      3.780131   139A      3.782533
     140A      3.817698   141A      3.921806   142A      3.922299
     143A      4.045329   144A      4.116955   145A      4.119256
     146A      4.154494   147A      4.156256   148A      4.187164
     149A      4.208944   150A      4.209094   151A      4.210567
     152A      4.215566   153A      4.322548   154A      4.324201
     155A      4.362388   156A      4.432473   157A      4.432884
     158A      4.446343   159A      4.524223   160A      4.525026
     161A      4.588535   162A      4.589184   163A      4.624721
     164A      4.719801   165A      4.780563   166A      4.782547
     167A      4.839869   168A      4.967668   169A      5.006623
     170A      5.007374   171A      5.233737   172A      5.248060
     173A      5.248996   174A      5.361327   175A      5.362799
     176A      5.481709

    Final Occupation by Irrep:
              A
    DOCC [    16 ]
    SOCC [     1 ]

  @DF-UKS Final Energy:  -157.81305676019994

   => Energetics <=

    Nuclear Repulsion Energy =            125.3946606159874477
    One-Electron Energy =                -458.7489483715037295
    Two-Electron Energy =                 195.8483775915523495
    DFT Exchange-Correlation Energy =     -20.3071465962360023
    Empirical Dispersion Energy =           0.0000000000000000
    VV10 Nonlocal Energy =                  0.0000000000000000
    Total Energy =                       -157.8130567601999417

  UHF NO Occupations:
  HONO-2 :   15  A 1.9996009
  HONO-1 :   16  A 1.9989805
  HONO-0 :   17  A 1.0000000
  LUNO+0 :   18  A 0.0010195
  LUNO+1 :   19  A 0.0003991
  LUNO+2 :   20  A 0.0001979
  LUNO+3 :   21  A 0.0001972

Computation Completed

Properties will be evaluated at   0.000000,   0.000000,   0.000000 [a0]

Properties computed using the SCF density matrix

  Nuclear Dipole Moment: [e a0]
     X:     0.8272      Y:    -0.0034      Z:     0.0000

  Electronic Dipole Moment: [e a0]
     X:    -0.7493      Y:     0.0034      Z:    -0.0000

  Dipole Moment: [e a0]
     X:     0.0779      Y:     0.0000      Z:    -0.0000     Total:     0.0779

  Dipole Moment: [D]
     X:     0.1980      Y:     0.0001      Z:    -0.0000     Total:     0.1980

*** tstop() called on n056 at Fri Nov  5 14:43:37 2021
Module time:
	user time   =     544.03 seconds =       9.07 minutes
	system time =      12.02 seconds =       0.20 minutes
	total time  =        140 seconds =       2.33 minutes
Total time:
	user time   =     544.03 seconds =       9.07 minutes
	system time =      12.02 seconds =       0.20 minutes
	total time  =        140 seconds =       2.33 minutes
Grab this energy -157.81305676019994
    Psi4 stopped on: Friday, 05 November 2021 02:43PM
    Psi4 wall time for execution: 0:02:19.81

*** Psi4 exiting successfully. Buy a developer a beer!
