                               Psi4 1.4a2.dev629

  ==> Input File <==

--------------------------------------------------------------------------
import os
memory 14 GB

molecule {
 C   -0.3233523966    0.0004930095    0.0000000000
 C    0.0609082894   -1.3998115361   -2.4246064614
 C    0.0609345209    2.8009791971    0.0000000000
 C    0.0609082894   -1.3998115361    2.4246064614
 H    2.0889748139   -1.6442441322   -2.8476479168
 H   -0.7664513433   -0.3869656246   -4.0265726231
 H   -0.7664568678   -3.2944902181   -2.3489065804
 H    2.0825640757    3.2890962798   -0.0000000000
 H   -0.7633519305    3.6802151110    1.6723537417
 H   -0.7633519305    3.6802151110   -1.6723537417
 H    2.0889748139   -1.6442441322    2.8476479168
 H   -0.7664568678   -3.2944902181    2.3489065804
 H   -0.7664513433   -0.3869656246    4.0265726231
units bohr
0 2
}

basis {

assign 6-31g_2dfp_

[ 6-31g_2dfp_ ]

spherical

!----------------------------------------------------------------------
! Basis Set Exchange
! Version v0.8.13
! https://www.basissetexchange.org
!----------------------------------------------------------------------
!   Basis set: 6-31G(2df,p)
! Description: 6-31G(2df,p)
!        Role: orbital
!     Version: 0  (Data from the original Basis Set Exchange)
!----------------------------------------------------------------------

****
H     0
S    3   1.00
     18.7311370              0.03349460
      2.8253937              0.23472695
      0.6401217              0.81375733
S    1   1.00
      0.1612778              1.00000000
P    1   1.00
      1.5000000              1.0000000
P    1   1.00
      0.3750000              1.0000000
****
B     0
S    6   1.00
   2068.8823000              0.0018663
    310.6495700              0.0142515
     70.6830330              0.0695516
     19.8610800              0.2325729
      6.2993048              0.4670787
      2.1270270              0.3634314
SP   3   1.00
      4.7279710             -0.1303938              0.0745976
      1.1903377             -0.1307889              0.3078467
      0.3594117              1.1309444              0.7434568
SP   1   1.00
      0.1267512              1.0000000              1.0000000
D    1   1.00
      0.8020000              1.0000000
D    1   1.00
      0.2005000              1.0000000
F    1   1.00
      0.5000000              1.0000000
****
C     0
S    6   1.00
   3047.5249000              0.0018347
    457.3695100              0.0140373
    103.9486900              0.0688426
     29.2101550              0.2321844
      9.2866630              0.4679413
      3.1639270              0.3623120
SP   3   1.00
      7.8682724             -0.1193324              0.0689991
      1.8812885             -0.1608542              0.3164240
      0.5442493              1.1434564              0.7443083
SP   1   1.00
      0.1687144              1.0000000              1.0000000
D    1   1.00
      1.2520000              1.0000000
D    1   1.00
      0.3130000              1.0000000
F    1   1.00
      0.8000000              1.0000000
****
N     0
S    6   1.00
   4173.5110000              0.0018348
    627.4579000              0.0139950
    142.9021000              0.0685870
     40.2343300              0.2322410
     12.8202100              0.4690700
      4.3904370              0.3604550
SP   3   1.00
     11.6263580             -0.1149610              0.0675800
      2.7162800             -0.1691180              0.3239070
      0.7722180              1.1458520              0.7408950
SP   1   1.00
      0.2120313              1.0000000              1.0000000
D    1   1.00
      1.8260000              1.0000000
D    1   1.00
      0.4565000              1.0000000
F    1   1.00
      1.0000000              1.0000000
****
O     0
S    6   1.00
   5484.6717000              0.0018311
    825.2349500              0.0139501
    188.0469600              0.0684451
     52.9645000              0.2327143
     16.8975700              0.4701930
      5.7996353              0.3585209
SP   3   1.00
     15.5396160             -0.1107775              0.0708743
      3.5999336             -0.1480263              0.3397528
      1.0137618              1.1307670              0.7271586
SP   1   1.00
      0.2700058              1.0000000              1.0000000
D    1   1.00
      2.5840000              1.0000000
D    1   1.00
      0.6460000              1.0000000
F    1   1.00
      1.4000000              1.0000000
****
F     0
S    6   1.00
   7001.7130900              0.0018196169
   1051.3660900              0.0139160796
    239.2856900              0.0684053245
     67.3974453              0.233185760
     21.5199573              0.471267439
      7.40310130             0.356618546
SP   3   1.00
     20.8479528             -0.108506975            0.0716287243
      4.80830834            -0.146451658            0.3459121030
      1.34406986             1.128688580            0.7224699570
SP   1   1.00
      0.358151393            1.0000000              1.0000000
D    1   1.00
      3.5000000              1.0000000
D    1   1.00
      0.8750000              1.0000000
F    1   1.00
      1.8500000              1.0000000
****
Al     0
S    6   1.00
  13983.1000000              0.00194267
   2098.7500000              0.0148599
    477.7050000              0.0728494
    134.3600000              0.2468300
     42.8709000              0.4872580
     14.5189000              0.3234960
SP   6   1.00
    239.6680000             -0.00292619             0.00460285
     57.4419000             -0.0374080              0.0331990
     18.2859000             -0.1144870              0.1362820
      6.5991400              0.1156350              0.3304760
      2.4904900              0.6125950              0.4491460
      0.9445400              0.3937990              0.2657040
SP   3   1.00
      1.2779000             -0.2276060             -0.0175130
      0.3975900              0.00144583             0.2445330
      0.1600950              1.0927900              0.8049340
SP   1   1.00
      0.0556577              1.0000000              1.0000000
D    1   1.00
      0.6500000              1.0000000
D    1   1.00
      0.1625000              1.0000000
F    1   1.00
      0.2500000              1.0000000
****
Si     0
S    6   1.00
  16115.9000000              0.00195948
   2425.5800000              0.01492880
    553.8670000              0.07284780
    156.3400000              0.24613000
     50.0683000              0.48591400
     17.0178000              0.32500200
SP   6   1.00
    292.7180000             -0.00278094             0.00443826
     69.8731000             -0.03571460             0.03266790
     22.3363000             -0.11498500             0.13472100
      8.1503900              0.09356340             0.32867800
      3.1345800              0.60301700             0.44964000
      1.2254300              0.41895900             0.26137200
SP   3   1.00
      1.7273800             -0.24463000            -0.01779510
      0.5729220              0.00431572             0.25353900
      0.2221920              1.09818000             0.80066900
SP   1   1.00
      0.0778369              1.00000000             1.00000000
D    1   1.00
      0.9000000              1.0000000
D    1   1.00
      0.2250000              1.0000000
F    1   1.00
      0.3200000              1.0000000
****
P     0
S    6   1.00
  19413.3000000              0.0018516
   2909.4200000              0.0142062
    661.3640000              0.0699995
    185.7590000              0.2400790
     59.1943000              0.4847620
     20.0310000              0.3352000
SP   6   1.00
    339.4780000             -0.00278217             0.00456462
     81.0101000             -0.0360499              0.03369360
     25.8780000             -0.1166310              0.13975500
      9.4522100              0.0968328              0.33936200
      3.6656600              0.6144180              0.45092100
      1.4674600              0.4037980              0.23858600
SP   3   1.00
      2.1562300             -0.2529230             -0.01776530
      0.7489970              0.0328517              0.27405800
      0.2831450              1.0812500              0.78542100
SP   1   1.00
      0.0998317              1.0000000              1.00000000
D    1   1.00
      1.1000000              1.0000000
D    1   1.00
      0.2750000              1.0000000
F    1   1.00
      0.4500000              1.0000000
****
S     0
S    6   1.00
  21917.1000000              0.0018690
   3301.4900000              0.0142300
    754.1460000              0.0696960
    212.7110000              0.2384870
     67.9896000              0.4833070
     23.0515000              0.3380740
SP   6   1.00
    423.7350000             -0.0023767              0.0040610
    100.7100000             -0.0316930              0.0306810
     32.1599000             -0.1133170              0.1304520
     11.8079000              0.0560900              0.3272050
      4.6311000              0.5922550              0.4528510
      1.8702500              0.4550060              0.2560420
SP   3   1.00
      2.6158400             -0.2503740             -0.0145110
      0.9221670              0.0669570              0.3102630
      0.3412870              1.0545100              0.7544830
SP   1   1.00
      0.1171670              1.0000000              1.0000000
D    1   1.00
      1.3000000              1.0000000
D    1   1.00
      0.3250000              1.0000000
F    1   1.00
      0.5500000              1.0000000
****
Cl     0
S    6   1.00
  25180.1000000              0.0018330
   3780.3500000              0.0140340
    860.4740000              0.0690970
    242.1450000              0.2374520
     77.3349000              0.4830340
     26.2470000              0.3398560
SP   6   1.00
    491.7650000             -0.0022974              0.0039894
    116.9840000             -0.0307140              0.0303180
     37.4153000             -0.1125280              0.1298800
     13.7834000              0.0450160              0.3279510
      5.4521500              0.5893530              0.4535270
      2.2258800              0.4652060              0.2521540
SP   3   1.00
      3.1864900             -0.2518300             -0.0142990
      1.1442700              0.0615890              0.3235720
      0.4203770              1.0601800              0.7435070
SP   1   1.00
      0.1426570              1.0000000              1.0000000
D    1   1.00
      1.5000000              1.0000000
D    1   1.00
      0.3750000              1.0000000
F    1   1.00
      0.7000000              1.0000000
****
}

set {
reference uhf
freeze_core true
e_convergence 10
d_convergence 10
dft_spherical_points 1202
dft_radial_points 99
}

e = energy('b3lyp')

print_out('Grab this energy {0}'.format(e))
--------------------------------------------------------------------------

    Molecular point group: cs

    Geometry (in Bohr), charge = 0, multiplicity = 2:

       Center              X                  Y                   Z               Mass
    ------------   -----------------  -----------------  -----------------  -----------------
         C           -0.323244283857     0.000137282258     0.000000000000    12.000000000000
         C            0.061016402143    -1.400167263342    -2.424606461400    12.000000000000
         C            0.061042633643     2.800623469858     0.000000000000    12.000000000000
         C            0.061016402143    -1.400167263342     2.424606461400    12.000000000000
         H            2.089082926643    -1.644599859442    -2.847647916800     1.007825032230
         H           -0.766343230557    -0.387321351842    -4.026572623100     1.007825032230
         H           -0.766348755057    -3.294845945342    -2.348906580400     1.007825032230
         H            2.082672188443     3.288740552558     0.000000000000     1.007825032230
         H           -0.763243817757     3.679859383758     1.672353741700     1.007825032230
         H           -0.763243817757     3.679859383758    -1.672353741700     1.007825032230
         H            2.089082926643    -1.644599859442     2.847647916800     1.007825032230
         H           -0.766348755057    -3.294845945342     2.348906580400     1.007825032230
         H           -0.766343230557    -0.387321351842     4.026572623100     1.007825032230

  Charge       = 0
  Multiplicity = 2
  Basis Set: ANONYMOUS21A02F1D
    Blend: 6-31G_2DFP_
  Basis Set: (ANONYMOUS21A02F1D AUX)
    Blend: DEF2-UNIVERSAL-JKFIT

    Orbital Energies [Eh]
    ---------------------

    Alpha Occupied:

       1Ap   -10.180291     1App  -10.167417     2Ap   -10.167387
       3Ap   -10.166397     4Ap    -0.798024     5Ap    -0.686520
       2App   -0.685874     6Ap    -0.530941     7Ap    -0.441135
       3App   -0.434827     8Ap    -0.434653     9Ap    -0.382684
       4App   -0.382238     5App   -0.363411     6App   -0.338189
      10Ap    -0.338126    11Ap    -0.168982

    Alpha Virtual:

      12Ap     0.076063    13Ap     0.134089     7App    0.134092
      14Ap     0.142398     8App    0.142604    15Ap     0.154981
       9App    0.178289    16Ap     0.178941    17Ap     0.203836
      10App    0.214681    18Ap     0.276182    11App    0.276271
      12App    0.399145    19Ap     0.399299    20Ap     0.403253
      21Ap     0.423948    13App    0.424138    22Ap     0.456773
      14App    0.495310    23Ap     0.495450    15App    0.512107
      24Ap     0.513920    16App    0.578655    25Ap     0.578889
      17App    0.591232    26Ap     0.591816    27Ap     0.602548
      28Ap     0.624646    18App    0.631475    29Ap     0.635923
      19App    0.636758    20App    0.663345    30Ap     0.663713
      21App    0.683529    31Ap     0.684162    32Ap     0.734862
      33Ap     0.825031    22App    0.825816    23App    0.854053
      34Ap     0.914976    24App    0.914994    25App    0.944177
      35Ap     0.944923    36Ap     0.960988    26App    0.961471
      37Ap     1.003285    27App    1.127868    38Ap     1.128506
      39Ap     1.142638    40Ap     1.162565    28App    1.162752
      41Ap     1.223752    29App    1.274440    42Ap     1.274795
      43Ap     1.279516    44Ap     1.324207    30App    1.324901
      45Ap     1.356317    31App    1.365925    46Ap     1.366464
      32App    1.391962    33App    1.402946    47Ap     1.403708
      34App    1.416772    48Ap     1.417409    35App    1.427662
      36App    1.492015    49Ap     1.498502    50Ap     1.542938
      37App    1.543043    51Ap     1.574268    38App    1.574835
      52Ap     1.669015    53Ap     1.739824    39App    1.739983
      54Ap     1.768304    40App    1.829400    55Ap     1.832610
      41App    1.972300    56Ap     2.017963    57Ap     2.019762
      42App    2.019921    58Ap     2.053062    43App    2.053142
      59Ap     2.738215    44App    2.739107    60Ap     2.791147
      45App    2.811516    46App    2.889787    61Ap     2.890287
      62Ap     2.895386    63Ap     2.929236    47App    2.929436
      48App    2.958956    49App    2.963841    64Ap     2.964869
      65Ap     3.034195    50App    3.070985    66Ap     3.071473
      51App    3.084785    67Ap     3.168745    52App    3.169022
      68Ap     3.181188    69Ap     3.284914    53App    3.285058
      70Ap     3.327365    54App    3.327447    71Ap     3.375512
      72Ap     3.489423    55App    3.491073    56App    3.514163
      73Ap     3.525688    57App    3.568537    74Ap     3.568682
      58App    3.575058    59App    3.664857    75Ap     3.666243
      76Ap     3.679092    60App    3.693558    77Ap     3.694538
      61App    3.776303    78Ap     3.777441    79Ap     3.788826
      62App    3.912872    80Ap     3.913762    81Ap     4.034999
      63App    4.110298    82Ap     4.111776    83Ap     4.146116
      64App    4.150021    84Ap     4.173995    85Ap     4.201895
      65App    4.202998    86Ap     4.206037    66App    4.211531
      67App    4.315147    87Ap     4.316513    68App    4.358310
      88Ap     4.423105    69App    4.423369    70App    4.441594
      71App    4.516941    89Ap     4.517384    90Ap     4.578559
      72App    4.579467    91Ap     4.617909    92Ap     4.710769
      73App    4.775281    93Ap     4.775491    74App    4.838196
      94Ap     4.961557    75App    5.001521    95Ap     5.002674
      96Ap     5.227310    97Ap     5.242885    76App    5.250151
      77App    5.352663    98Ap     5.358853    78App    5.480654

    Beta Occupied:

       1App  -10.168175     1Ap   -10.168155     2Ap   -10.167159
       3Ap   -10.166475     4Ap    -0.781334     5Ap    -0.684316
       2App   -0.683672     6Ap    -0.511959     3App   -0.431189
       7Ap    -0.430994     8Ap    -0.421790     9Ap    -0.376761
       4App   -0.376298     5App   -0.362391     6App   -0.333320
      10Ap    -0.333271

    Beta Virtual:

      11Ap    -0.025913    12Ap     0.077076    13Ap     0.134930
       7App    0.135048    14Ap     0.144318     8App    0.144427
      15Ap     0.163482     9App    0.181984    16Ap     0.182618
      10App    0.214913    17Ap     0.219170    18Ap     0.282508
      11App    0.282602    12App    0.400317    19Ap     0.400479
      20Ap     0.419707    21Ap     0.426758    13App    0.426954
      22Ap     0.468757    14App    0.497578    23Ap     0.497718
      15App    0.513851    24Ap     0.556234    16App    0.584196
      25Ap     0.584445    17App    0.597424    26Ap     0.597968
      27Ap     0.609961    28Ap     0.628059    18App    0.631665
      29Ap     0.639249    19App    0.640009    20App    0.666896
      30Ap     0.667293    21App    0.686210    31Ap     0.686773
      32Ap     0.757309    33Ap     0.830189    22App    0.831026
      23App    0.855419    34Ap     0.922947    24App    0.922960
      25App    0.946020    35Ap     0.953864    36Ap     0.966332
      26App    0.966758    37Ap     1.008515    27App    1.131872
      38Ap     1.132545    39Ap     1.156053    40Ap     1.167616
      28App    1.167828    41Ap     1.232667    29App    1.280068
      42Ap     1.280427    43Ap     1.285245    44Ap     1.329171
      30App    1.329959    45Ap     1.365737    31App    1.371119
      46Ap     1.371639    32App    1.393029    33App    1.406425
      47Ap     1.407226    34App    1.421777    48Ap     1.422507
      35App    1.427919    36App    1.493076    49Ap     1.508966
      50Ap     1.547321    37App    1.547519    51Ap     1.582132
      38App    1.582679    52Ap     1.673855    53Ap     1.745606
      39App    1.745723    54Ap     1.779121    40App    1.833310
      55Ap     1.836461    41App    1.973170    56Ap     2.026167
      42App    2.026315    57Ap     2.039460    58Ap     2.059683
      43App    2.059877    59Ap     2.746506    44App    2.747425
      45App    2.811927    60Ap     2.816249    46App    2.902517
      61Ap     2.902881    62Ap     2.925101    63Ap     2.931798
      47App    2.931896    48App    2.960017    49App    2.968374
      64Ap     2.969486    65Ap     3.042171    50App    3.080854
      66Ap     3.081483    51App    3.086641    67Ap     3.184350
      52App    3.184718    68Ap     3.188853    69Ap     3.289735
      53App    3.289933    70Ap     3.331184    54App    3.331225
      71Ap     3.383363    72Ap     3.492195    55App    3.493780
      56App    3.512526    73Ap     3.528696    57App    3.574821
      74Ap     3.581919    58App    3.581937    59App    3.669383
      75Ap     3.670884    76Ap     3.692402    60App    3.725294
      77Ap     3.726242    61App    3.780921    78Ap     3.781999
      79Ap     3.817318    62App    3.922665    80Ap     3.923528
      81Ap     4.045802    63App    4.117402    82Ap     4.118472
      83Ap     4.153495    64App    4.156988    84Ap     4.188101
      85Ap     4.208872    65App    4.208876    86Ap     4.213059
      66App    4.216030    67App    4.322618    87Ap     4.323734
      68App    4.361696    88Ap     4.431446    69App    4.431538
      70App    4.444531    71App    4.524856    89Ap     4.525177
      90Ap     4.589225    72App    4.590039    91Ap     4.625120
      92Ap     4.721116    73App    4.782199    93Ap     4.782475
      74App    4.841110    94Ap     4.966375    75App    5.005599
      95Ap     5.006719    96Ap     5.233032    97Ap     5.244695
      76App    5.251946    77App    5.359186    98Ap     5.365343
      78App    5.482983

    Final Occupation by Irrep:
             Ap   App
    DOCC [    10,    6 ]
    SOCC [     1,    0 ]

  @DF-UKS Final Energy:  -157.81307841435759

   => Energetics <=

    Nuclear Repulsion Energy =            125.4226116670376854
    One-Electron Energy =                -458.8039488874341032
    Two-Electron Energy =                 195.8752904873141176
    DFT Exchange-Correlation Energy =     -20.3070316812753155
    Empirical Dispersion Energy =           0.0000000000000000
    VV10 Nonlocal Energy =                  0.0000000000000000
    Total Energy =                       -157.8130784143575909

  UHF NO Occupations:
  HONO-2 :    9 Ap 1.9995992
  HONO-1 :   10 Ap 1.9989827
  HONO-0 :   11 Ap 1.0000000
  LUNO+0 :   12 Ap 0.0010173
  LUNO+1 :   13 Ap 0.0004008
  LUNO+2 :    7App 0.0001968
  LUNO+3 :   14 Ap 0.0001967

Computation Completed

Properties will be evaluated at   0.000000,   0.000000,   0.000000 [a0]

Properties computed using the SCF density matrix

  Nuclear Dipole Moment: [e a0]
     X:     0.8280      Y:    -0.0025      Z:     0.0000

  Electronic Dipole Moment: [e a0]
     X:    -0.7502      Y:     0.0050      Z:     0.0000

  Dipole Moment: [e a0]
     X:     0.0778      Y:     0.0025      Z:     0.0000     Total:     0.0778

  Dipole Moment: [D]
     X:     0.1977      Y:     0.0062      Z:     0.0000     Total:     0.1978

*** tstop() called on n041 at Fri Nov  5 13:24:46 2021
Module time:
	user time   =     633.59 seconds =      10.56 minutes
	system time =      11.86 seconds =       0.20 minutes
	total time  =        162 seconds =       2.70 minutes
Total time:
	user time   =     633.59 seconds =      10.56 minutes
	system time =      11.86 seconds =       0.20 minutes
	total time  =        162 seconds =       2.70 minutes
Grab this energy -157.8130784143576
    Psi4 stopped on: Friday, 05 November 2021 01:24PM
    Psi4 wall time for execution: 0:02:42.81

*** Psi4 exiting successfully. Buy a developer a beer!
