                               Psi4 1.4a2.dev629

  ==> Input File <==

--------------------------------------------------------------------------
import os
memory 14 GB

molecule {
 C   -0.3233390664   -0.0017736995    0.0000000000
 C    0.0611473327   -1.4017357302   -2.4267051927
 C    0.0610091364    2.8003375244    0.0000000000
 C    0.0611473327   -1.4017357302    2.4267051927
 H    2.0870857941   -1.6459952766   -2.8433074532
 H   -0.7640778988   -0.3854285883   -4.0212322703
 H   -0.7665135821   -3.2935230768   -2.3534648626
 H    2.0864822867    3.2933796264    0.0000000000
 H   -0.7660217627    3.6806987895    1.6771099750
 H   -0.7660217627    3.6806987895   -1.6771099750
 H    2.0870857941   -1.6459952766    2.8433074532
 H   -0.7665135821   -3.2935230768    2.3534648626
 H   -0.7640778988   -0.3854285883    4.0212322703
units bohr
0 2
}

basis {

assign 6-31g_2dfp_

[ 6-31g_2dfp_ ]

spherical

!----------------------------------------------------------------------
! Basis Set Exchange
! Version v0.8.13
! https://www.basissetexchange.org
!----------------------------------------------------------------------
!   Basis set: 6-31G(2df,p)
! Description: 6-31G(2df,p)
!        Role: orbital
!     Version: 0  (Data from the original Basis Set Exchange)
!----------------------------------------------------------------------

****
H     0
S    3   1.00
     18.7311370              0.03349460
      2.8253937              0.23472695
      0.6401217              0.81375733
S    1   1.00
      0.1612778              1.00000000
P    1   1.00
      1.5000000              1.0000000
P    1   1.00
      0.3750000              1.0000000
****
B     0
S    6   1.00
   2068.8823000              0.0018663
    310.6495700              0.0142515
     70.6830330              0.0695516
     19.8610800              0.2325729
      6.2993048              0.4670787
      2.1270270              0.3634314
SP   3   1.00
      4.7279710             -0.1303938              0.0745976
      1.1903377             -0.1307889              0.3078467
      0.3594117              1.1309444              0.7434568
SP   1   1.00
      0.1267512              1.0000000              1.0000000
D    1   1.00
      0.8020000              1.0000000
D    1   1.00
      0.2005000              1.0000000
F    1   1.00
      0.5000000              1.0000000
****
C     0
S    6   1.00
   3047.5249000              0.0018347
    457.3695100              0.0140373
    103.9486900              0.0688426
     29.2101550              0.2321844
      9.2866630              0.4679413
      3.1639270              0.3623120
SP   3   1.00
      7.8682724             -0.1193324              0.0689991
      1.8812885             -0.1608542              0.3164240
      0.5442493              1.1434564              0.7443083
SP   1   1.00
      0.1687144              1.0000000              1.0000000
D    1   1.00
      1.2520000              1.0000000
D    1   1.00
      0.3130000              1.0000000
F    1   1.00
      0.8000000              1.0000000
****
N     0
S    6   1.00
   4173.5110000              0.0018348
    627.4579000              0.0139950
    142.9021000              0.0685870
     40.2343300              0.2322410
     12.8202100              0.4690700
      4.3904370              0.3604550
SP   3   1.00
     11.6263580             -0.1149610              0.0675800
      2.7162800             -0.1691180              0.3239070
      0.7722180              1.1458520              0.7408950
SP   1   1.00
      0.2120313              1.0000000              1.0000000
D    1   1.00
      1.8260000              1.0000000
D    1   1.00
      0.4565000              1.0000000
F    1   1.00
      1.0000000              1.0000000
****
O     0
S    6   1.00
   5484.6717000              0.0018311
    825.2349500              0.0139501
    188.0469600              0.0684451
     52.9645000              0.2327143
     16.8975700              0.4701930
      5.7996353              0.3585209
SP   3   1.00
     15.5396160             -0.1107775              0.0708743
      3.5999336             -0.1480263              0.3397528
      1.0137618              1.1307670              0.7271586
SP   1   1.00
      0.2700058              1.0000000              1.0000000
D    1   1.00
      2.5840000              1.0000000
D    1   1.00
      0.6460000              1.0000000
F    1   1.00
      1.4000000              1.0000000
****
F     0
S    6   1.00
   7001.7130900              0.0018196169
   1051.3660900              0.0139160796
    239.2856900              0.0684053245
     67.3974453              0.233185760
     21.5199573              0.471267439
      7.40310130             0.356618546
SP   3   1.00
     20.8479528             -0.108506975            0.0716287243
      4.80830834            -0.146451658            0.3459121030
      1.34406986             1.128688580            0.7224699570
SP   1   1.00
      0.358151393            1.0000000              1.0000000
D    1   1.00
      3.5000000              1.0000000
D    1   1.00
      0.8750000              1.0000000
F    1   1.00
      1.8500000              1.0000000
****
Al     0
S    6   1.00
  13983.1000000              0.00194267
   2098.7500000              0.0148599
    477.7050000              0.0728494
    134.3600000              0.2468300
     42.8709000              0.4872580
     14.5189000              0.3234960
SP   6   1.00
    239.6680000             -0.00292619             0.00460285
     57.4419000             -0.0374080              0.0331990
     18.2859000             -0.1144870              0.1362820
      6.5991400              0.1156350              0.3304760
      2.4904900              0.6125950              0.4491460
      0.9445400              0.3937990              0.2657040
SP   3   1.00
      1.2779000             -0.2276060             -0.0175130
      0.3975900              0.00144583             0.2445330
      0.1600950              1.0927900              0.8049340
SP   1   1.00
      0.0556577              1.0000000              1.0000000
D    1   1.00
      0.6500000              1.0000000
D    1   1.00
      0.1625000              1.0000000
F    1   1.00
      0.2500000              1.0000000
****
Si     0
S    6   1.00
  16115.9000000              0.00195948
   2425.5800000              0.01492880
    553.8670000              0.07284780
    156.3400000              0.24613000
     50.0683000              0.48591400
     17.0178000              0.32500200
SP   6   1.00
    292.7180000             -0.00278094             0.00443826
     69.8731000             -0.03571460             0.03266790
     22.3363000             -0.11498500             0.13472100
      8.1503900              0.09356340             0.32867800
      3.1345800              0.60301700             0.44964000
      1.2254300              0.41895900             0.26137200
SP   3   1.00
      1.7273800             -0.24463000            -0.01779510
      0.5729220              0.00431572             0.25353900
      0.2221920              1.09818000             0.80066900
SP   1   1.00
      0.0778369              1.00000000             1.00000000
D    1   1.00
      0.9000000              1.0000000
D    1   1.00
      0.2250000              1.0000000
F    1   1.00
      0.3200000              1.0000000
****
P     0
S    6   1.00
  19413.3000000              0.0018516
   2909.4200000              0.0142062
    661.3640000              0.0699995
    185.7590000              0.2400790
     59.1943000              0.4847620
     20.0310000              0.3352000
SP   6   1.00
    339.4780000             -0.00278217             0.00456462
     81.0101000             -0.0360499              0.03369360
     25.8780000             -0.1166310              0.13975500
      9.4522100              0.0968328              0.33936200
      3.6656600              0.6144180              0.45092100
      1.4674600              0.4037980              0.23858600
SP   3   1.00
      2.1562300             -0.2529230             -0.01776530
      0.7489970              0.0328517              0.27405800
      0.2831450              1.0812500              0.78542100
SP   1   1.00
      0.0998317              1.0000000              1.00000000
D    1   1.00
      1.1000000              1.0000000
D    1   1.00
      0.2750000              1.0000000
F    1   1.00
      0.4500000              1.0000000
****
S     0
S    6   1.00
  21917.1000000              0.0018690
   3301.4900000              0.0142300
    754.1460000              0.0696960
    212.7110000              0.2384870
     67.9896000              0.4833070
     23.0515000              0.3380740
SP   6   1.00
    423.7350000             -0.0023767              0.0040610
    100.7100000             -0.0316930              0.0306810
     32.1599000             -0.1133170              0.1304520
     11.8079000              0.0560900              0.3272050
      4.6311000              0.5922550              0.4528510
      1.8702500              0.4550060              0.2560420
SP   3   1.00
      2.6158400             -0.2503740             -0.0145110
      0.9221670              0.0669570              0.3102630
      0.3412870              1.0545100              0.7544830
SP   1   1.00
      0.1171670              1.0000000              1.0000000
D    1   1.00
      1.3000000              1.0000000
D    1   1.00
      0.3250000              1.0000000
F    1   1.00
      0.5500000              1.0000000
****
Cl     0
S    6   1.00
  25180.1000000              0.0018330
   3780.3500000              0.0140340
    860.4740000              0.0690970
    242.1450000              0.2374520
     77.3349000              0.4830340
     26.2470000              0.3398560
SP   6   1.00
    491.7650000             -0.0022974              0.0039894
    116.9840000             -0.0307140              0.0303180
     37.4153000             -0.1125280              0.1298800
     13.7834000              0.0450160              0.3279510
      5.4521500              0.5893530              0.4535270
      2.2258800              0.4652060              0.2521540
SP   3   1.00
      3.1864900             -0.2518300             -0.0142990
      1.1442700              0.0615890              0.3235720
      0.4203770              1.0601800              0.7435070
SP   1   1.00
      0.1426570              1.0000000              1.0000000
D    1   1.00
      1.5000000              1.0000000
D    1   1.00
      0.3750000              1.0000000
F    1   1.00
      0.7000000              1.0000000
****
}

set {
reference uhf
freeze_core true
e_convergence 10
d_convergence 10
dft_spherical_points 1202
dft_radial_points 99
}

e = energy('b3lyp')

print_out('Grab this energy {0}'.format(e))
--------------------------------------------------------------------------

    Molecular point group: cs

    Geometry (in Bohr), charge = 0, multiplicity = 2:

       Center              X                  Y                   Z               Mass
    ------------   -----------------  -----------------  -----------------  -----------------
         C           -0.323339975550    -0.000828024195     0.000000000000    12.000000000000
         C            0.061146423550    -1.400790054895    -2.426705192700    12.000000000000
         C            0.061008227250     2.801283199705     0.000000000000    12.000000000000
         C            0.061146423550    -1.400790054895     2.426705192700    12.000000000000
         H            2.087084884950    -1.645049601295    -2.843307453200     1.007825032230
         H           -0.764078807950    -0.384482912995    -4.021232270300     1.007825032230
         H           -0.766514491250    -3.292577401495    -2.353464862600     1.007825032230
         H            2.086481377550     3.294325301705     0.000000000000     1.007825032230
         H           -0.766022671850     3.681644464805     1.677109975000     1.007825032230
         H           -0.766022671850     3.681644464805    -1.677109975000     1.007825032230
         H            2.087084884950    -1.645049601295     2.843307453200     1.007825032230
         H           -0.766514491250    -3.292577401495     2.353464862600     1.007825032230
         H           -0.764078807950    -0.384482912995     4.021232270300     1.007825032230

  Charge       = 0
  Multiplicity = 2
  Basis Set: ANONYMOUS25593277
    Blend: 6-31G_2DFP_
  Basis Set: (ANONYMOUS25593277 AUX)
    Blend: DEF2-UNIVERSAL-JKFIT

    Orbital Energies [Eh]
    ---------------------

    Alpha Occupied:

       1Ap   -10.180342     2Ap   -10.167241     1App  -10.166918
       3Ap   -10.166886     4Ap    -0.797766     2App   -0.686332
       5Ap    -0.686042     6Ap    -0.530776     7Ap    -0.441131
       8Ap    -0.434677     3App   -0.434660     4App   -0.382725
       9Ap    -0.382473     5App   -0.363609    10Ap    -0.338142
       6App   -0.337857    11Ap    -0.168961

    Alpha Virtual:

      12Ap     0.076073    13Ap     0.134104     7App    0.134204
       8App    0.142504    14Ap     0.142752    15Ap     0.154879
      16Ap     0.178737     9App    0.178821    17Ap     0.203547
      10App    0.214803    18Ap     0.275943    11App    0.276028
      19Ap     0.399199    12App    0.399258    20Ap     0.403345
      13App    0.423998    21Ap     0.424198    22Ap     0.456593
      14App    0.495308    23Ap     0.495470    15App    0.512159
      24Ap     0.513980    25Ap     0.578561    16App    0.579073
      26Ap     0.591276    17App    0.591989    27Ap     0.602577
      28Ap     0.624753    18App    0.631766    19App    0.636129
      29Ap     0.636385    20App    0.663317    30Ap     0.663505
      31Ap     0.683801    21App    0.683905    32Ap     0.734992
      22App    0.825245    33Ap     0.825569    23App    0.853916
      34Ap     0.914892    24App    0.915146    25App    0.944124
      35Ap     0.944621    26App    0.960631    36Ap     0.961953
      37Ap     1.003462    27App    1.127822    38Ap     1.128379
      39Ap     1.142226    28App    1.162891    40Ap     1.163661
      41Ap     1.223325    29App    1.274340    42Ap     1.274615
      43Ap     1.279375    30App    1.324285    44Ap     1.324430
      45Ap     1.355998    46Ap     1.366052    31App    1.366061
      32App    1.392431    47Ap     1.403552    33App    1.404563
      48Ap     1.416880    34App    1.417352    35App    1.427916
      36App    1.491488    49Ap     1.499080    37App    1.542485
      50Ap     1.543166    38App    1.574244    51Ap     1.574643
      52Ap     1.669823    53Ap     1.738908    39App    1.739937
      54Ap     1.768308    55Ap     1.830413    40App    1.832394
      41App    1.971731    56Ap     2.018229    42App    2.018470
      57Ap     2.019701    58Ap     2.052517    43App    2.052768
      44App    2.738330    59Ap     2.738639    60Ap     2.790927
      45App    2.811421    61Ap     2.889751    46App    2.890155
      62Ap     2.894955    47App    2.929462    63Ap     2.929532
      48App    2.958991    49App    2.964156    64Ap     2.964598
      65Ap     3.034008    50App    3.071275    66Ap     3.071289
      51App    3.084356    67Ap     3.168751    52App    3.168800
      68Ap     3.180596    69Ap     3.285276    53App    3.285347
      70Ap     3.327013    54App    3.327305    71Ap     3.375622
      55App    3.489945    72Ap     3.490334    56App    3.514047
      73Ap     3.525323    74Ap     3.568185    57App    3.568478
      58App    3.575269    75Ap     3.665754    59App    3.666891
      76Ap     3.679723    77Ap     3.693599    60App    3.694701
      61App    3.775394    78Ap     3.778233    79Ap     3.789132
      62App    3.911748    80Ap     3.912706    81Ap     4.034453
      82Ap     4.110259    63App    4.112443    83Ap     4.147473
      64App    4.148728    84Ap     4.173311    85Ap     4.202391
      65App    4.202714    86Ap     4.203694    66App    4.210848
      87Ap     4.315889    67App    4.315933    68App    4.359066
      69App    4.423142    88Ap     4.425653    70App    4.443576
      71App    4.516609    89Ap     4.517068    90Ap     4.577965
      72App    4.578579    91Ap     4.617502    92Ap     4.709448
      73App    4.773839    93Ap     4.775359    74App    4.836901
      94Ap     4.962803    95Ap     5.001966    75App    5.004008
      96Ap     5.228031    76App    5.246138    97Ap     5.247495
      98Ap     5.354841    77App    5.356158    78App    5.479355

    Beta Occupied:

       1Ap   -10.168002     1App  -10.167669     2Ap   -10.167653
       3Ap   -10.166519     4Ap    -0.781092     2App   -0.684132
       5Ap    -0.683846     6Ap    -0.511747     7Ap    -0.431071
       3App   -0.431020     8Ap    -0.421817     4App   -0.376825
       9Ap    -0.376542     5App   -0.362592    10Ap    -0.333270
       6App   -0.332975

    Beta Virtual:

      11Ap    -0.025743    12Ap     0.077082    13Ap     0.135023
       7App    0.135065     8App    0.144390    14Ap     0.144608
      15Ap     0.163339    16Ap     0.182402     9App    0.182498
      10App    0.215033    17Ap     0.218930    18Ap     0.282292
      11App    0.282374    19Ap     0.400368    12App    0.400429
      20Ap     0.419788    13App    0.426806    21Ap     0.427015
      22Ap     0.468501    14App    0.497565    23Ap     0.497734
      15App    0.513894    24Ap     0.556325    25Ap     0.584116
      16App    0.584618    26Ap     0.597471    17App    0.598155
      27Ap     0.609999    28Ap     0.628130    18App    0.631925
      19App    0.639435    29Ap     0.639646    20App    0.666874
      30Ap     0.667076    31Ap     0.686427    21App    0.686549
      32Ap     0.757516    22App    0.830397    33Ap     0.830754
      23App    0.855269    34Ap     0.922901    24App    0.923079
      25App    0.945961    35Ap     0.953548    26App    0.965989
      36Ap     0.967210    37Ap     1.008702    27App    1.131781
      38Ap     1.132481    39Ap     1.155597    28App    1.168027
      40Ap     1.168674    41Ap     1.232297    29App    1.279932
      42Ap     1.280215    43Ap     1.285130    30App    1.329305
      44Ap     1.329388    45Ap     1.365416    46Ap     1.371296
      31App    1.371299    32App    1.393496    47Ap     1.407045
      33App    1.408000    48Ap     1.421917    34App    1.422405
      35App    1.428191    36App    1.492536    49Ap     1.509523
      37App    1.546885    50Ap     1.547582    38App    1.582110
      51Ap     1.582520    52Ap     1.674670    53Ap     1.744658
      39App    1.745710    54Ap     1.779088    55Ap     1.834282
      40App    1.836237    41App    1.972591    42App    2.024853
      56Ap     2.026046    57Ap     2.039681    58Ap     2.059206
      43App    2.059507    44App    2.746659    59Ap     2.746982
      45App    2.811834    60Ap     2.816062    61Ap     2.902487
      46App    2.902804    62Ap     2.924653    47App    2.931943
      63Ap     2.932012    48App    2.960055    49App    2.968703
      64Ap     2.969139    65Ap     3.041943    50App    3.081182
      66Ap     3.081195    51App    3.086180    67Ap     3.184449
      52App    3.184573    68Ap     3.188307    69Ap     3.290023
      53App    3.290197    70Ap     3.330827    54App    3.331100
      71Ap     3.383441    55App    3.492628    72Ap     3.493105
      56App    3.512418    73Ap     3.528372    57App    3.574874
      74Ap     3.581493    58App    3.582095    75Ap     3.670295
      59App    3.671919    76Ap     3.692979    77Ap     3.725526
      60App    3.726010    61App    3.779921    78Ap     3.782756
      79Ap     3.817678    62App    3.921598    80Ap     3.922488
      81Ap     4.045340    82Ap     4.117289    63App    4.119046
      83Ap     4.154580    64App    4.156055    84Ap     4.187355
      65App    4.208660    85Ap     4.209173    86Ap     4.210810
      66App    4.215319    87Ap     4.323334    67App    4.323356
      68App    4.362438    69App    4.431386    88Ap     4.433792
      70App    4.446512    71App    4.524392    89Ap     4.524863
      90Ap     4.588585    72App    4.589162    91Ap     4.624696
      92Ap     4.719793    73App    4.780815    93Ap     4.782290
      74App    4.839818    94Ap     4.967597    95Ap     5.006011
      75App    5.008042    96Ap     5.233746    76App    5.247921
      97Ap     5.249281    98Ap     5.361320    77App    5.362639
      78App    5.481676

    Final Occupation by Irrep:
             Ap   App
    DOCC [    10,    6 ]
    SOCC [     1,    0 ]

  @DF-UKS Final Energy:  -157.81306821056111

   => Energetics <=

    Nuclear Repulsion Energy =            125.3946037454223870
    One-Electron Energy =                -458.7488673037198623
    Two-Electron Energy =                 195.8483371688636510
    DFT Exchange-Correlation Energy =     -20.3071418211272956
    Empirical Dispersion Energy =           0.0000000000000000
    VV10 Nonlocal Energy =                  0.0000000000000000
    Total Energy =                       -157.8130682105611129

  UHF NO Occupations:
  HONO-2 :    9 Ap 1.9996009
  HONO-1 :   10 Ap 1.9989805
  HONO-0 :   11 Ap 1.0000000
  LUNO+0 :   12 Ap 0.0010195
  LUNO+1 :   13 Ap 0.0003991
  LUNO+2 :    7App 0.0001976
  LUNO+3 :   14 Ap 0.0001975

Computation Completed

Properties will be evaluated at   0.000000,   0.000000,   0.000000 [a0]

Properties computed using the SCF density matrix

  Nuclear Dipole Moment: [e a0]
     X:     0.8272      Y:     0.0066      Z:    -0.0000

  Electronic Dipole Moment: [e a0]
     X:    -0.7493      Y:    -0.0067      Z:     0.0000

  Dipole Moment: [e a0]
     X:     0.0779      Y:    -0.0001      Z:    -0.0000     Total:     0.0779

  Dipole Moment: [D]
     X:     0.1980      Y:    -0.0002      Z:    -0.0000     Total:     0.1980

*** tstop() called on n041 at Fri Nov  5 13:03:16 2021
Module time:
	user time   =     634.70 seconds =      10.58 minutes
	system time =      11.96 seconds =       0.20 minutes
	total time  =        162 seconds =       2.70 minutes
Total time:
	user time   =     634.70 seconds =      10.58 minutes
	system time =      11.96 seconds =       0.20 minutes
	total time  =        162 seconds =       2.70 minutes
Grab this energy -157.8130682105611
    Psi4 stopped on: Friday, 05 November 2021 01:03PM
    Psi4 wall time for execution: 0:02:42.58

*** Psi4 exiting successfully. Buy a developer a beer!
