                               Psi4 1.4a2.dev629

  ==> Input File <==

--------------------------------------------------------------------------
import os
memory 14 GB

molecule {
 C   -0.3233304805    0.0000053589    0.0047528807
 C    0.0607039653   -1.3948632710   -2.4220537615
 C    0.0610175766    2.8017478443   -0.0060804767
 C    0.0615843187   -1.4068755836    2.4306987481
 H    2.0847948541   -1.6334820068   -2.8383173570
 H   -0.7668014476   -0.3796928908   -4.0205961017
 H   -0.7651741020   -3.2878410054   -2.3519872725
 H    2.0867936364    3.2880918581   -0.0092869083
 H   -0.7638600094    3.6892379160    1.6664597482
 H   -0.7674465541    3.6712206038   -1.6864918202
 H    2.0890666094   -1.6547344496    2.8565538149
 H   -0.7659582473   -3.2961124687    2.3459958195
 H   -0.7639979964   -0.3967262186    4.0303526864
units bohr
0 2
}

basis {

assign 6-31g_2dfp_

[ 6-31g_2dfp_ ]

spherical

!----------------------------------------------------------------------
! Basis Set Exchange
! Version v0.8.13
! https://www.basissetexchange.org
!----------------------------------------------------------------------
!   Basis set: 6-31G(2df,p)
! Description: 6-31G(2df,p)
!        Role: orbital
!     Version: 0  (Data from the original Basis Set Exchange)
!----------------------------------------------------------------------

****
H     0
S    3   1.00
     18.7311370              0.03349460
      2.8253937              0.23472695
      0.6401217              0.81375733
S    1   1.00
      0.1612778              1.00000000
P    1   1.00
      1.5000000              1.0000000
P    1   1.00
      0.3750000              1.0000000
****
B     0
S    6   1.00
   2068.8823000              0.0018663
    310.6495700              0.0142515
     70.6830330              0.0695516
     19.8610800              0.2325729
      6.2993048              0.4670787
      2.1270270              0.3634314
SP   3   1.00
      4.7279710             -0.1303938              0.0745976
      1.1903377             -0.1307889              0.3078467
      0.3594117              1.1309444              0.7434568
SP   1   1.00
      0.1267512              1.0000000              1.0000000
D    1   1.00
      0.8020000              1.0000000
D    1   1.00
      0.2005000              1.0000000
F    1   1.00
      0.5000000              1.0000000
****
C     0
S    6   1.00
   3047.5249000              0.0018347
    457.3695100              0.0140373
    103.9486900              0.0688426
     29.2101550              0.2321844
      9.2866630              0.4679413
      3.1639270              0.3623120
SP   3   1.00
      7.8682724             -0.1193324              0.0689991
      1.8812885             -0.1608542              0.3164240
      0.5442493              1.1434564              0.7443083
SP   1   1.00
      0.1687144              1.0000000              1.0000000
D    1   1.00
      1.2520000              1.0000000
D    1   1.00
      0.3130000              1.0000000
F    1   1.00
      0.8000000              1.0000000
****
N     0
S    6   1.00
   4173.5110000              0.0018348
    627.4579000              0.0139950
    142.9021000              0.0685870
     40.2343300              0.2322410
     12.8202100              0.4690700
      4.3904370              0.3604550
SP   3   1.00
     11.6263580             -0.1149610              0.0675800
      2.7162800             -0.1691180              0.3239070
      0.7722180              1.1458520              0.7408950
SP   1   1.00
      0.2120313              1.0000000              1.0000000
D    1   1.00
      1.8260000              1.0000000
D    1   1.00
      0.4565000              1.0000000
F    1   1.00
      1.0000000              1.0000000
****
O     0
S    6   1.00
   5484.6717000              0.0018311
    825.2349500              0.0139501
    188.0469600              0.0684451
     52.9645000              0.2327143
     16.8975700              0.4701930
      5.7996353              0.3585209
SP   3   1.00
     15.5396160             -0.1107775              0.0708743
      3.5999336             -0.1480263              0.3397528
      1.0137618              1.1307670              0.7271586
SP   1   1.00
      0.2700058              1.0000000              1.0000000
D    1   1.00
      2.5840000              1.0000000
D    1   1.00
      0.6460000              1.0000000
F    1   1.00
      1.4000000              1.0000000
****
F     0
S    6   1.00
   7001.7130900              0.0018196169
   1051.3660900              0.0139160796
    239.2856900              0.0684053245
     67.3974453              0.233185760
     21.5199573              0.471267439
      7.40310130             0.356618546
SP   3   1.00
     20.8479528             -0.108506975            0.0716287243
      4.80830834            -0.146451658            0.3459121030
      1.34406986             1.128688580            0.7224699570
SP   1   1.00
      0.358151393            1.0000000              1.0000000
D    1   1.00
      3.5000000              1.0000000
D    1   1.00
      0.8750000              1.0000000
F    1   1.00
      1.8500000              1.0000000
****
Al     0
S    6   1.00
  13983.1000000              0.00194267
   2098.7500000              0.0148599
    477.7050000              0.0728494
    134.3600000              0.2468300
     42.8709000              0.4872580
     14.5189000              0.3234960
SP   6   1.00
    239.6680000             -0.00292619             0.00460285
     57.4419000             -0.0374080              0.0331990
     18.2859000             -0.1144870              0.1362820
      6.5991400              0.1156350              0.3304760
      2.4904900              0.6125950              0.4491460
      0.9445400              0.3937990              0.2657040
SP   3   1.00
      1.2779000             -0.2276060             -0.0175130
      0.3975900              0.00144583             0.2445330
      0.1600950              1.0927900              0.8049340
SP   1   1.00
      0.0556577              1.0000000              1.0000000
D    1   1.00
      0.6500000              1.0000000
D    1   1.00
      0.1625000              1.0000000
F    1   1.00
      0.2500000              1.0000000
****
Si     0
S    6   1.00
  16115.9000000              0.00195948
   2425.5800000              0.01492880
    553.8670000              0.07284780
    156.3400000              0.24613000
     50.0683000              0.48591400
     17.0178000              0.32500200
SP   6   1.00
    292.7180000             -0.00278094             0.00443826
     69.8731000             -0.03571460             0.03266790
     22.3363000             -0.11498500             0.13472100
      8.1503900              0.09356340             0.32867800
      3.1345800              0.60301700             0.44964000
      1.2254300              0.41895900             0.26137200
SP   3   1.00
      1.7273800             -0.24463000            -0.01779510
      0.5729220              0.00431572             0.25353900
      0.2221920              1.09818000             0.80066900
SP   1   1.00
      0.0778369              1.00000000             1.00000000
D    1   1.00
      0.9000000              1.0000000
D    1   1.00
      0.2250000              1.0000000
F    1   1.00
      0.3200000              1.0000000
****
P     0
S    6   1.00
  19413.3000000              0.0018516
   2909.4200000              0.0142062
    661.3640000              0.0699995
    185.7590000              0.2400790
     59.1943000              0.4847620
     20.0310000              0.3352000
SP   6   1.00
    339.4780000             -0.00278217             0.00456462
     81.0101000             -0.0360499              0.03369360
     25.8780000             -0.1166310              0.13975500
      9.4522100              0.0968328              0.33936200
      3.6656600              0.6144180              0.45092100
      1.4674600              0.4037980              0.23858600
SP   3   1.00
      2.1562300             -0.2529230             -0.01776530
      0.7489970              0.0328517              0.27405800
      0.2831450              1.0812500              0.78542100
SP   1   1.00
      0.0998317              1.0000000              1.00000000
D    1   1.00
      1.1000000              1.0000000
D    1   1.00
      0.2750000              1.0000000
F    1   1.00
      0.4500000              1.0000000
****
S     0
S    6   1.00
  21917.1000000              0.0018690
   3301.4900000              0.0142300
    754.1460000              0.0696960
    212.7110000              0.2384870
     67.9896000              0.4833070
     23.0515000              0.3380740
SP   6   1.00
    423.7350000             -0.0023767              0.0040610
    100.7100000             -0.0316930              0.0306810
     32.1599000             -0.1133170              0.1304520
     11.8079000              0.0560900              0.3272050
      4.6311000              0.5922550              0.4528510
      1.8702500              0.4550060              0.2560420
SP   3   1.00
      2.6158400             -0.2503740             -0.0145110
      0.9221670              0.0669570              0.3102630
      0.3412870              1.0545100              0.7544830
SP   1   1.00
      0.1171670              1.0000000              1.0000000
D    1   1.00
      1.3000000              1.0000000
D    1   1.00
      0.3250000              1.0000000
F    1   1.00
      0.5500000              1.0000000
****
Cl     0
S    6   1.00
  25180.1000000              0.0018330
   3780.3500000              0.0140340
    860.4740000              0.0690970
    242.1450000              0.2374520
     77.3349000              0.4830340
     26.2470000              0.3398560
SP   6   1.00
    491.7650000             -0.0022974              0.0039894
    116.9840000             -0.0307140              0.0303180
     37.4153000             -0.1125280              0.1298800
     13.7834000              0.0450160              0.3279510
      5.4521500              0.5893530              0.4535270
      2.2258800              0.4652060              0.2521540
SP   3   1.00
      3.1864900             -0.2518300             -0.0142990
      1.1442700              0.0615890              0.3235720
      0.4203770              1.0601800              0.7435070
SP   1   1.00
      0.1426570              1.0000000              1.0000000
D    1   1.00
      1.5000000              1.0000000
D    1   1.00
      0.3750000              1.0000000
F    1   1.00
      0.7000000              1.0000000
****
}

set {
reference uhf
freeze_core true
e_convergence 10
d_convergence 10
dft_spherical_points 1202
dft_radial_points 99
}

e = energy('b3lyp')

print_out('Grab this energy {0}'.format(e))
--------------------------------------------------------------------------

    Molecular point group: c1

    Geometry (in Bohr), charge = 0, multiplicity = 2:

       Center              X                  Y                   Z               Mass
    ------------   -----------------  -----------------  -----------------  -----------------
         C           -0.323333439897     0.000003024614     0.003343498568    12.000000000000
         C            0.060701005903    -1.394865605286    -2.423463143632    12.000000000000
         C            0.061014617203     2.801745510014    -0.007489858832    12.000000000000
         C            0.061581359303    -1.406877917886     2.429289365968    12.000000000000
         H            2.084791894703    -1.633484341086    -2.839726739132     1.007825032230
         H           -0.766804406997    -0.379695225086    -4.022005483832     1.007825032230
         H           -0.765177061397    -3.287843339686    -2.353396654632     1.007825032230
         H            2.086790677003     3.288089523814    -0.010696290432     1.007825032230
         H           -0.763862968797     3.689235581714     1.665050366068     1.007825032230
         H           -0.767449513497     3.671218269514    -1.687901202332     1.007825032230
         H            2.089063650003    -1.654736783886     2.855144432768     1.007825032230
         H           -0.765961206697    -3.296114802986     2.344586437368     1.007825032230
         H           -0.764000955797    -0.396728552886     4.028943304268     1.007825032230

  Charge       = 0
  Multiplicity = 2
  Basis Set: ANONYMOUSBCAF5750
    Blend: 6-31G_2DFP_
  Basis Set: (ANONYMOUSBCAF5750 AUX)
    Blend: DEF2-UNIVERSAL-JKFIT

    Orbital Energies [Eh]
    ---------------------

    Alpha Occupied:

       1A    -10.180342     2A    -10.167258     3A    -10.167016
       4A    -10.166772     5A     -0.797771     6A     -0.686377
       7A     -0.685995     8A     -0.530776     9A     -0.441130
      10A     -0.434850    11A     -0.434493    12A     -0.382677
      13A     -0.382517    14A     -0.363611    15A     -0.338118
      16A     -0.337877    17A     -0.168961

    Alpha Virtual:

      18A      0.076073    19A      0.133867    20A      0.134443
      21A      0.142285    22A      0.142972    23A      0.154879
      24A      0.178419    25A      0.179137    26A      0.203544
      27A      0.214806    28A      0.275797    29A      0.276177
      30A      0.399156    31A      0.399231    32A      0.403421
      33A      0.424067    34A      0.424131    35A      0.456592
      36A      0.494993    37A      0.495771    38A      0.512175
      39A      0.513994    40A      0.578673    41A      0.578920
      42A      0.591358    43A      0.591914    44A      0.602598
      45A      0.624764    46A      0.631767    47A      0.636248
      48A      0.636255    49A      0.663238    50A      0.663592
      51A      0.683725    52A      0.683983    53A      0.734993
      54A      0.824521    55A      0.826282    56A      0.853917
      57A      0.914467    58A      0.915588    59A      0.944113
      60A      0.944478    61A      0.961196    62A      0.961567
      63A      1.003469    64A      1.127363    65A      1.128879
      66A      1.142197    67A      1.162944    68A      1.163601
      69A      1.223339    70A      1.274082    71A      1.274923
      72A      1.279324    73A      1.324340    74A      1.324372
      75A      1.355982    76A      1.365320    77A      1.366764
      78A      1.392401    79A      1.402790    80A      1.405376
      81A      1.416280    82A      1.417945    83A      1.427931
      84A      1.491461    85A      1.499042    86A      1.542519
      87A      1.543222    88A      1.572121    89A      1.576837
      90A      1.669819    91A      1.738227    92A      1.740528
      93A      1.768401    94A      1.831323    95A      1.831488
      96A      1.971746    97A      2.017521    98A      2.018292
      99A      2.020546   100A      2.049671   101A      2.055695
     102A      2.738214   103A      2.738768   104A      2.790922
     105A      2.811437   106A      2.889689   107A      2.890210
     108A      2.894947   109A      2.929012   110A      2.929978
     111A      2.958954   112A      2.963693   113A      2.965125
     114A      3.034006   115A      3.069627   116A      3.072896
     117A      3.084405   118A      3.168253   119A      3.169345
     120A      3.180561   121A      3.284474   122A      3.286123
     123A      3.327094   124A      3.327240   125A      3.375667
     126A      3.488563   127A      3.491653   128A      3.514018
     129A      3.525290   130A      3.567379   131A      3.569486
     132A      3.575174   133A      3.665852   134A      3.666968
     135A      3.679659   136A      3.693874   137A      3.694295
     138A      3.775827   139A      3.777595   140A      3.789413
     141A      3.910944   142A      3.913533   143A      4.034466
     144A      4.109876   145A      4.112867   146A      4.146421
     147A      4.149788   148A      4.173238   149A      4.201464
     150A      4.202786   151A      4.204548   152A      4.210916
     153A      4.315774   154A      4.316128   155A      4.358973
     156A      4.424183   157A      4.424620   158A      4.443574
     159A      4.515357   160A      4.518273   161A      4.577209
     162A      4.579318   163A      4.617597   164A      4.709478
     165A      4.772664   166A      4.776465   167A      4.836981
     168A      4.962861   169A      5.001440   170A      5.004507
     171A      5.228025   172A      5.246435   173A      5.247215
     174A      5.354856   175A      5.356165   176A      5.479330

    Beta Occupied:

       1A    -10.168017     2A    -10.167775     3A    -10.167533
       4A    -10.166519     5A     -0.781096     6A     -0.684188
       7A     -0.683789     8A     -0.511748     9A     -0.431219
      10A     -0.430868    11A     -0.421826    12A     -0.376758
      13A     -0.376605    14A     -0.362594    15A     -0.333256
      16A     -0.332984

    Beta Virtual:

      17A     -0.025743    18A      0.077082    19A      0.134753
      20A      0.135337    21A      0.144183    22A      0.144815
      23A      0.163339    24A      0.182076    25A      0.182823
      26A      0.215036    27A      0.218927    28A      0.282128
      29A      0.282542    30A      0.400386    31A      0.400401
      32A      0.419804    33A      0.426864    34A      0.426956
      35A      0.468500    36A      0.497255    37A      0.498039
      38A      0.513911    39A      0.556331    40A      0.584260
      41A      0.584438    42A      0.597521    43A      0.598113
      44A      0.610006    45A      0.628146    46A      0.631926
      47A      0.639518    48A      0.639558    49A      0.666783
      50A      0.667172    51A      0.686293    52A      0.686687
      53A      0.757515    54A      0.829681    55A      0.831457
      56A      0.855270    57A      0.922452    58A      0.923546
      59A      0.945961    60A      0.953374    61A      0.966448
      62A      0.966952    63A      1.008706    64A      1.131356
      65A      1.132948    66A      1.155547    67A      1.168029
      68A      1.168687    69A      1.232308    70A      1.279662
      71A      1.280537    72A      1.285080    73A      1.329318
      74A      1.329371    75A      1.365391    76A      1.370481
      77A      1.372093    78A      1.393464    79A      1.406281
      80A      1.408817    81A      1.421330    82A      1.422987
      83A      1.428204    84A      1.492513    85A      1.509484
      86A      1.546923    87A      1.547630    88A      1.580052
      89A      1.584654    90A      1.674664    91A      1.744000
      92A      1.746287    93A      1.779172    94A      1.835157
      95A      1.835366    96A      1.972606    97A      2.023886
      98A      2.026990    99A      2.039660   100A      2.056463
     101A      2.062331   102A      2.746493   103A      2.747161
     104A      2.811850   105A      2.816056   106A      2.902390
     107A      2.902890   108A      2.924649   109A      2.931597
     110A      2.932359   111A      2.960037   112A      2.968257
     113A      2.969629   114A      3.041941   115A      3.079336
     116A      3.082842   117A      3.086397   118A      3.184115
     119A      3.184972   120A      3.188239   121A      3.289305
     122A      3.290896   123A      3.330879   124A      3.331063
     125A      3.383486   126A      3.491320   127A      3.494350
     128A      3.512397   129A      3.528345   130A      3.575008
     131A      3.580515   132A      3.583043   133A      3.670586
     134A      3.671718   135A      3.692955   136A      3.725660
     137A      3.725775   138A      3.780429   139A      3.782181
     140A      3.817822   141A      3.920767   142A      3.923344
     143A      4.045353   144A      4.116726   145A      4.119649
     146A      4.153605   147A      4.157025   148A      4.187293
     149A      4.207547   150A      4.209944   151A      4.211133
     152A      4.215410   153A      4.323262   154A      4.323521
     155A      4.362335   156A      4.432388   157A      4.432804
     158A      4.446497   159A      4.523251   160A      4.525955
     161A      4.587746   162A      4.589983   163A      4.624793
     164A      4.719822   165A      4.779548   166A      4.783482
     167A      4.839903   168A      4.967654   169A      5.005497
     170A      5.008531   171A      5.233736   172A      5.248228
     173A      5.248994   174A      5.361311   175A      5.362671
     176A      5.481652

    Final Occupation by Irrep:
              A
    DOCC [    16 ]
    SOCC [     1 ]

  @DF-UKS Final Energy:  -157.81305951225826

   => Energetics <=

    Nuclear Repulsion Energy =            125.3948502490067511
    One-Electron Energy =                -458.7493346976633575
    Two-Electron Energy =                 195.8485712138772215
    DFT Exchange-Correlation Energy =     -20.3071462774788927
    Empirical Dispersion Energy =           0.0000000000000000
    VV10 Nonlocal Energy =                  0.0000000000000000
    Total Energy =                       -157.8130595122582633

  UHF NO Occupations:
  HONO-2 :   15  A 1.9996009
  HONO-1 :   16  A 1.9989804
  HONO-0 :   17  A 1.0000000
  LUNO+0 :   18  A 0.0010196
  LUNO+1 :   19  A 0.0003991
  LUNO+2 :   20  A 0.0001977
  LUNO+3 :   21  A 0.0001974

Computation Completed

Properties will be evaluated at   0.000000,   0.000000,   0.000000 [a0]

Properties computed using the SCF density matrix

  Nuclear Dipole Moment: [e a0]
     X:     0.8272      Y:    -0.0000      Z:    -0.0099

  Electronic Dipole Moment: [e a0]
     X:    -0.7493      Y:     0.0000      Z:     0.0099

  Dipole Moment: [e a0]
     X:     0.0779      Y:     0.0000      Z:    -0.0000     Total:     0.0779

  Dipole Moment: [D]
     X:     0.1980      Y:     0.0000      Z:    -0.0000     Total:     0.1980

*** tstop() called on n033 at Fri Nov  5 15:20:32 2021
Module time:
	user time   =     640.04 seconds =      10.67 minutes
	system time =      12.27 seconds =       0.20 minutes
	total time  =        164 seconds =       2.73 minutes
Total time:
	user time   =     640.04 seconds =      10.67 minutes
	system time =      12.27 seconds =       0.20 minutes
	total time  =        164 seconds =       2.73 minutes
Grab this energy -157.81305951225826
    Psi4 stopped on: Friday, 05 November 2021 03:20PM
    Psi4 wall time for execution: 0:02:43.97

*** Psi4 exiting successfully. Buy a developer a beer!
