                               Psi4 1.4a2.dev629

  ==> Input File <==

--------------------------------------------------------------------------
import os
memory 14 GB

molecule {
 C   -0.3261445320   -0.0000022711   -0.0000000000
 C    0.0595222184   -1.4010833842   -2.4267368951
 C    0.0594023875    2.8021708463   -0.0000000000
 C    0.0595222184   -1.4010833842    2.4267368951
 H    2.0905671259   -1.6412834245   -2.8425655240
 H   -0.7659447080   -0.3922292246   -4.0266002677
 H   -0.7661066994   -3.2909646153   -2.3530189859
 H    2.0904288041    3.2824737044   -0.0000000000
 H   -0.7661852050    3.6832273521    1.6735882094
 H   -0.7661852050    3.6832273521   -1.6735882094
 H    2.0905671259   -1.6412834245    2.8425655240
 H   -0.7661066994   -3.2909646153    2.3530189859
 H   -0.7659447080   -0.3922292246    4.0266002677
units bohr
0 2
}

basis {

assign 6-31g_2dfp_

[ 6-31g_2dfp_ ]

spherical

!----------------------------------------------------------------------
! Basis Set Exchange
! Version v0.8.13
! https://www.basissetexchange.org
!----------------------------------------------------------------------
!   Basis set: 6-31G(2df,p)
! Description: 6-31G(2df,p)
!        Role: orbital
!     Version: 0  (Data from the original Basis Set Exchange)
!----------------------------------------------------------------------

****
H     0
S    3   1.00
     18.7311370              0.03349460
      2.8253937              0.23472695
      0.6401217              0.81375733
S    1   1.00
      0.1612778              1.00000000
P    1   1.00
      1.5000000              1.0000000
P    1   1.00
      0.3750000              1.0000000
****
B     0
S    6   1.00
   2068.8823000              0.0018663
    310.6495700              0.0142515
     70.6830330              0.0695516
     19.8610800              0.2325729
      6.2993048              0.4670787
      2.1270270              0.3634314
SP   3   1.00
      4.7279710             -0.1303938              0.0745976
      1.1903377             -0.1307889              0.3078467
      0.3594117              1.1309444              0.7434568
SP   1   1.00
      0.1267512              1.0000000              1.0000000
D    1   1.00
      0.8020000              1.0000000
D    1   1.00
      0.2005000              1.0000000
F    1   1.00
      0.5000000              1.0000000
****
C     0
S    6   1.00
   3047.5249000              0.0018347
    457.3695100              0.0140373
    103.9486900              0.0688426
     29.2101550              0.2321844
      9.2866630              0.4679413
      3.1639270              0.3623120
SP   3   1.00
      7.8682724             -0.1193324              0.0689991
      1.8812885             -0.1608542              0.3164240
      0.5442493              1.1434564              0.7443083
SP   1   1.00
      0.1687144              1.0000000              1.0000000
D    1   1.00
      1.2520000              1.0000000
D    1   1.00
      0.3130000              1.0000000
F    1   1.00
      0.8000000              1.0000000
****
N     0
S    6   1.00
   4173.5110000              0.0018348
    627.4579000              0.0139950
    142.9021000              0.0685870
     40.2343300              0.2322410
     12.8202100              0.4690700
      4.3904370              0.3604550
SP   3   1.00
     11.6263580             -0.1149610              0.0675800
      2.7162800             -0.1691180              0.3239070
      0.7722180              1.1458520              0.7408950
SP   1   1.00
      0.2120313              1.0000000              1.0000000
D    1   1.00
      1.8260000              1.0000000
D    1   1.00
      0.4565000              1.0000000
F    1   1.00
      1.0000000              1.0000000
****
O     0
S    6   1.00
   5484.6717000              0.0018311
    825.2349500              0.0139501
    188.0469600              0.0684451
     52.9645000              0.2327143
     16.8975700              0.4701930
      5.7996353              0.3585209
SP   3   1.00
     15.5396160             -0.1107775              0.0708743
      3.5999336             -0.1480263              0.3397528
      1.0137618              1.1307670              0.7271586
SP   1   1.00
      0.2700058              1.0000000              1.0000000
D    1   1.00
      2.5840000              1.0000000
D    1   1.00
      0.6460000              1.0000000
F    1   1.00
      1.4000000              1.0000000
****
F     0
S    6   1.00
   7001.7130900              0.0018196169
   1051.3660900              0.0139160796
    239.2856900              0.0684053245
     67.3974453              0.233185760
     21.5199573              0.471267439
      7.40310130             0.356618546
SP   3   1.00
     20.8479528             -0.108506975            0.0716287243
      4.80830834            -0.146451658            0.3459121030
      1.34406986             1.128688580            0.7224699570
SP   1   1.00
      0.358151393            1.0000000              1.0000000
D    1   1.00
      3.5000000              1.0000000
D    1   1.00
      0.8750000              1.0000000
F    1   1.00
      1.8500000              1.0000000
****
Al     0
S    6   1.00
  13983.1000000              0.00194267
   2098.7500000              0.0148599
    477.7050000              0.0728494
    134.3600000              0.2468300
     42.8709000              0.4872580
     14.5189000              0.3234960
SP   6   1.00
    239.6680000             -0.00292619             0.00460285
     57.4419000             -0.0374080              0.0331990
     18.2859000             -0.1144870              0.1362820
      6.5991400              0.1156350              0.3304760
      2.4904900              0.6125950              0.4491460
      0.9445400              0.3937990              0.2657040
SP   3   1.00
      1.2779000             -0.2276060             -0.0175130
      0.3975900              0.00144583             0.2445330
      0.1600950              1.0927900              0.8049340
SP   1   1.00
      0.0556577              1.0000000              1.0000000
D    1   1.00
      0.6500000              1.0000000
D    1   1.00
      0.1625000              1.0000000
F    1   1.00
      0.2500000              1.0000000
****
Si     0
S    6   1.00
  16115.9000000              0.00195948
   2425.5800000              0.01492880
    553.8670000              0.07284780
    156.3400000              0.24613000
     50.0683000              0.48591400
     17.0178000              0.32500200
SP   6   1.00
    292.7180000             -0.00278094             0.00443826
     69.8731000             -0.03571460             0.03266790
     22.3363000             -0.11498500             0.13472100
      8.1503900              0.09356340             0.32867800
      3.1345800              0.60301700             0.44964000
      1.2254300              0.41895900             0.26137200
SP   3   1.00
      1.7273800             -0.24463000            -0.01779510
      0.5729220              0.00431572             0.25353900
      0.2221920              1.09818000             0.80066900
SP   1   1.00
      0.0778369              1.00000000             1.00000000
D    1   1.00
      0.9000000              1.0000000
D    1   1.00
      0.2250000              1.0000000
F    1   1.00
      0.3200000              1.0000000
****
P     0
S    6   1.00
  19413.3000000              0.0018516
   2909.4200000              0.0142062
    661.3640000              0.0699995
    185.7590000              0.2400790
     59.1943000              0.4847620
     20.0310000              0.3352000
SP   6   1.00
    339.4780000             -0.00278217             0.00456462
     81.0101000             -0.0360499              0.03369360
     25.8780000             -0.1166310              0.13975500
      9.4522100              0.0968328              0.33936200
      3.6656600              0.6144180              0.45092100
      1.4674600              0.4037980              0.23858600
SP   3   1.00
      2.1562300             -0.2529230             -0.01776530
      0.7489970              0.0328517              0.27405800
      0.2831450              1.0812500              0.78542100
SP   1   1.00
      0.0998317              1.0000000              1.00000000
D    1   1.00
      1.1000000              1.0000000
D    1   1.00
      0.2750000              1.0000000
F    1   1.00
      0.4500000              1.0000000
****
S     0
S    6   1.00
  21917.1000000              0.0018690
   3301.4900000              0.0142300
    754.1460000              0.0696960
    212.7110000              0.2384870
     67.9896000              0.4833070
     23.0515000              0.3380740
SP   6   1.00
    423.7350000             -0.0023767              0.0040610
    100.7100000             -0.0316930              0.0306810
     32.1599000             -0.1133170              0.1304520
     11.8079000              0.0560900              0.3272050
      4.6311000              0.5922550              0.4528510
      1.8702500              0.4550060              0.2560420
SP   3   1.00
      2.6158400             -0.2503740             -0.0145110
      0.9221670              0.0669570              0.3102630
      0.3412870              1.0545100              0.7544830
SP   1   1.00
      0.1171670              1.0000000              1.0000000
D    1   1.00
      1.3000000              1.0000000
D    1   1.00
      0.3250000              1.0000000
F    1   1.00
      0.5500000              1.0000000
****
Cl     0
S    6   1.00
  25180.1000000              0.0018330
   3780.3500000              0.0140340
    860.4740000              0.0690970
    242.1450000              0.2374520
     77.3349000              0.4830340
     26.2470000              0.3398560
SP   6   1.00
    491.7650000             -0.0022974              0.0039894
    116.9840000             -0.0307140              0.0303180
     37.4153000             -0.1125280              0.1298800
     13.7834000              0.0450160              0.3279510
      5.4521500              0.5893530              0.4535270
      2.2258800              0.4652060              0.2521540
SP   3   1.00
      3.1864900             -0.2518300             -0.0142990
      1.1442700              0.0615890              0.3235720
      0.4203770              1.0601800              0.7435070
SP   1   1.00
      0.1426570              1.0000000              1.0000000
D    1   1.00
      1.5000000              1.0000000
D    1   1.00
      0.3750000              1.0000000
F    1   1.00
      0.7000000              1.0000000
****
}

set {
reference uhf
freeze_core true
e_convergence 10
d_convergence 10
dft_spherical_points 1202
dft_radial_points 99
}

e = energy('b3lyp')

print_out('Grab this energy {0}'.format(e))
--------------------------------------------------------------------------

    Molecular point group: cs

    Geometry (in Bohr), charge = 0, multiplicity = 2:

       Center              X                  Y                   Z               Mass
    ------------   -----------------  -----------------  -----------------  -----------------
         C           -0.324669599424    -0.000002189745     0.000000000000    12.000000000000
         C            0.060997150976    -1.401083302845    -2.426736895100    12.000000000000
         C            0.060877320076     2.802170927655     0.000000000000    12.000000000000
         C            0.060997150976    -1.401083302845     2.426736895100    12.000000000000
         H            2.092042058476    -1.641283343145    -2.842565524000     1.007825032230
         H           -0.764469775424    -0.392229143245    -4.026600267700     1.007825032230
         H           -0.764631766824    -3.290964533945    -2.353018985900     1.007825032230
         H            2.091903736676     3.282473785755     0.000000000000     1.007825032230
         H           -0.764710272424     3.683227433455     1.673588209400     1.007825032230
         H           -0.764710272424     3.683227433455    -1.673588209400     1.007825032230
         H            2.092042058476    -1.641283343145     2.842565524000     1.007825032230
         H           -0.764631766824    -3.290964533945     2.353018985900     1.007825032230
         H           -0.764469775424    -0.392229143245     4.026600267700     1.007825032230

  Charge       = 0
  Multiplicity = 2
  Basis Set: ANONYMOUSBCAFB8A2
    Blend: 6-31G_2DFP_
  Basis Set: (ANONYMOUSBCAFB8A2 AUX)
    Blend: DEF2-UNIVERSAL-JKFIT

    Orbital Energies [Eh]
    ---------------------

    Alpha Occupied:

       1Ap   -10.180414     2Ap   -10.167080     1App  -10.167080
       3Ap   -10.167034     4Ap    -0.797664     5Ap    -0.686145
       2App   -0.686144     6Ap    -0.530759     7Ap    -0.441194
       3App   -0.434506     8Ap    -0.434506     9Ap    -0.382615
       4App   -0.382613     5App   -0.363651     6App   -0.338029
      10Ap    -0.338029    11Ap    -0.168908

    Alpha Virtual:

      12Ap     0.076120    13Ap     0.134199     7App    0.134200
      14Ap     0.142634     8App    0.142634    15Ap     0.154506
      16Ap     0.178638     9App    0.178638    17Ap     0.203374
      10App    0.214855    11App    0.275921    18Ap     0.275923
      19Ap     0.398881    12App    0.398885    20Ap     0.403330
      13App    0.424438    21Ap     0.424438    22Ap     0.456283
      23Ap     0.495592    14App    0.495593    15App    0.512233
      24Ap     0.513770    25Ap     0.578491    16App    0.578500
      17App    0.591555    26Ap     0.591557    27Ap     0.602049
      28Ap     0.625211    18App    0.631911    19App    0.636524
      29Ap     0.636528    30Ap     0.662649    20App    0.662649
      31Ap     0.684186    21App    0.684187    32Ap     0.734972
      22App    0.825470    33Ap     0.825472    23App    0.853297
      24App    0.914658    34Ap     0.914664    25App    0.944192
      35Ap     0.945547    26App    0.961467    36Ap     0.961483
      37Ap     1.002533    38Ap     1.127902    27App    1.127915
      39Ap     1.142085    40Ap     1.162977    28App    1.162990
      41Ap     1.223828    42Ap     1.274271    29App    1.274274
      43Ap     1.278984    30App    1.323858    44Ap     1.323861
      45Ap     1.356930    31App    1.365661    46Ap     1.365665
      32App    1.392598    47Ap     1.403308    33App    1.403310
      34App    1.418224    48Ap     1.418230    35App    1.427082
      36App    1.490875    49Ap     1.498459    37App    1.542401
      50Ap     1.542403    51Ap     1.575437    38App    1.575439
      52Ap     1.671024    53Ap     1.738705    39App    1.738717
      54Ap     1.766608    40App    1.832509    55Ap     1.832510
      41App    1.972652    56Ap     2.018169    42App    2.018171
      57Ap     2.018423    58Ap     2.050935    43App    2.050937
      44App    2.739222    59Ap     2.739222    60Ap     2.790305
      45App    2.811362    61Ap     2.889414    46App    2.889420
      62Ap     2.894349    63Ap     2.929240    47App    2.929249
      48App    2.958804    64Ap     2.963906    49App    2.963920
      65Ap     3.032833    50App    3.071727    66Ap     3.071741
      51App    3.086121    67Ap     3.168719    52App    3.168726
      68Ap     3.180392    53App    3.285617    69Ap     3.285617
      70Ap     3.326673    54App    3.326679    71Ap     3.376073
      55App    3.490428    72Ap     3.490447    56App    3.512541
      73Ap     3.526350    57App    3.567436    74Ap     3.567456
      58App    3.573483    75Ap     3.666069    59App    3.666077
      76Ap     3.679164    60App    3.694819    77Ap     3.694835
      78Ap     3.776055    61App    3.776080    79Ap     3.789633
      80Ap     3.912685    62App    3.912691    81Ap     4.035990
      82Ap     4.111206    63App    4.111210    83Ap     4.147747
      64App    4.147756    84Ap     4.171507    65App    4.203069
      85Ap     4.203071    86Ap     4.203116    66App    4.209169
      87Ap     4.315248    67App    4.315268    68App    4.359032
      88Ap     4.424255    69App    4.424257    70App    4.442673
      71App    4.515340    89Ap     4.515341    72App    4.578013
      90Ap     4.578025    91Ap     4.616897    92Ap     4.708616
      93Ap     4.774336    73App    4.774344    74App    4.839273
      94Ap     4.962655    75App    5.001749    95Ap     5.001761
      96Ap     5.224953    76App    5.249856    97Ap     5.249857
      98Ap     5.352960    77App    5.352973    78App    5.481044

    Beta Occupied:

       1Ap   -10.167833     1App  -10.167833     2Ap   -10.167808
       3Ap   -10.166592     4Ap    -0.780993     5Ap    -0.683962
       2App   -0.683961     6Ap    -0.511783     3App   -0.430909
       7Ap    -0.430909     8Ap    -0.421826     9Ap    -0.376685
       4App   -0.376684     5App   -0.362651     6App   -0.333144
      10Ap    -0.333144

    Beta Virtual:

      11Ap    -0.025706    12Ap     0.077151    13Ap     0.135146
       7App    0.135146    14Ap     0.144468     8App    0.144469
      15Ap     0.162936    16Ap     0.182287     9App    0.182288
      10App    0.215075    17Ap     0.218794    11App    0.282285
      18Ap     0.282287    19Ap     0.400047    12App    0.400051
      20Ap     0.419853    13App    0.427254    21Ap     0.427255
      22Ap     0.468012    23Ap     0.497847    14App    0.497848
      15App    0.513971    24Ap     0.556162    25Ap     0.584048
      16App    0.584057    17App    0.597752    26Ap     0.597752
      27Ap     0.609578    28Ap     0.628457    18App    0.632061
      19App    0.639781    29Ap     0.639785    30Ap     0.666218
      20App    0.666219    31Ap     0.686829    21App    0.686830
      32Ap     0.757528    22App    0.830644    33Ap     0.830646
      23App    0.854656    24App    0.922601    34Ap     0.922607
      25App    0.946020    35Ap     0.954443    26App    0.966765
      36Ap     0.966781    37Ap     1.007704    38Ap     1.131965
      27App    1.131977    39Ap     1.155764    40Ap     1.168033
      28App    1.168045    41Ap     1.232679    42Ap     1.279827
      29App    1.279831    43Ap     1.284615    30App    1.328857
      44Ap     1.328858    45Ap     1.366388    31App    1.370981
      46Ap     1.370985    32App    1.393655    47Ap     1.406704
      33App    1.406706    34App    1.423292    48Ap     1.423298
      35App    1.427353    36App    1.491908    49Ap     1.508934
      50Ap     1.546844    37App    1.546844    38App    1.583285
      51Ap     1.583285    52Ap     1.675919    53Ap     1.744459
      39App    1.744471    54Ap     1.777363    40App    1.836368
      55Ap     1.836369    41App    1.973491    56Ap     2.024397
      42App    2.024399    57Ap     2.039774    58Ap     2.057790
      43App    2.057792    44App    2.747555    59Ap     2.747556
      45App    2.811772    60Ap     2.815398    61Ap     2.902142
      46App    2.902147    62Ap     2.923874    63Ap     2.931708
      47App    2.931716    48App    2.959860    64Ap     2.968377
      49App    2.968391    65Ap     3.040992    50App    3.081639
      66Ap     3.081650    51App    3.087934    67Ap     3.184499
      52App    3.184503    68Ap     3.188032    69Ap     3.290471
      53App    3.290471    70Ap     3.330464    54App    3.330469
      71Ap     3.383892    55App    3.493052    72Ap     3.493071
      56App    3.510895    73Ap     3.529419    57App    3.573351
      58App    3.581005    74Ap     3.581027    75Ap     3.670811
      59App    3.670823    76Ap     3.692489    60App    3.726287
      77Ap     3.726302    78Ap     3.780458    61App    3.780484
      79Ap     3.818181    80Ap     3.922604    62App    3.922611
      81Ap     4.046886    82Ap     4.117933    63App    4.117935
      83Ap     4.155026    64App    4.155035    84Ap     4.185624
      65App    4.209165    85Ap     4.209168    86Ap     4.210983
      66App    4.213729    87Ap     4.322606    67App    4.322626
      68App    4.362328    88Ap     4.432465    69App    4.432467
      70App    4.445525    71App    4.523177    89Ap     4.523178
      72App    4.588552    90Ap     4.588564    91Ap     4.624073
      92Ap     4.718972    93Ap     4.781254    73App    4.781261
      74App    4.842175    94Ap     4.967465    75App    5.005798
      95Ap     5.005811    96Ap     5.230649    76App    5.251623
      97Ap     5.251624    98Ap     5.359410    77App    5.359424
      78App    5.483348

    Final Occupation by Irrep:
             Ap   App
    DOCC [    10,    6 ]
    SOCC [     1,    0 ]

  @DF-UKS Final Energy:  -157.81305284666118

   => Energetics <=

    Nuclear Repulsion Energy =            125.3776876260642297
    One-Electron Energy =                -458.7155325979658755
    Two-Electron Energy =                 195.8314814307185543
    DFT Exchange-Correlation Energy =     -20.3066893054781126
    Empirical Dispersion Energy =           0.0000000000000000
    VV10 Nonlocal Energy =                  0.0000000000000000
    Total Energy =                       -157.8130528466611793

  UHF NO Occupations:
  HONO-2 :    9 Ap 1.9995998
  HONO-1 :   10 Ap 1.9989776
  HONO-0 :   11 Ap 1.0000000
  LUNO+0 :   12 Ap 0.0010224
  LUNO+1 :   13 Ap 0.0004002
  LUNO+2 :    7App 0.0001979
  LUNO+3 :   14 Ap 0.0001978

Computation Completed

Properties will be evaluated at   0.000000,   0.000000,   0.000000 [a0]

Properties computed using the SCF density matrix

  Nuclear Dipole Moment: [e a0]
     X:     0.8376      Y:    -0.0000      Z:    -0.0000

  Electronic Dipole Moment: [e a0]
     X:    -0.7624      Y:     0.0000      Z:     0.0000

  Dipole Moment: [e a0]
     X:     0.0751      Y:    -0.0000      Z:    -0.0000     Total:     0.0751

  Dipole Moment: [D]
     X:     0.1910      Y:    -0.0000      Z:    -0.0000     Total:     0.1910

*** tstop() called on n065 at Fri Nov  5 14:52:07 2021
Module time:
	user time   =     541.53 seconds =       9.03 minutes
	system time =      12.15 seconds =       0.20 minutes
	total time  =        140 seconds =       2.33 minutes
Total time:
	user time   =     541.53 seconds =       9.03 minutes
	system time =      12.15 seconds =       0.20 minutes
	total time  =        140 seconds =       2.33 minutes
Grab this energy -157.81305284666118
    Psi4 stopped on: Friday, 05 November 2021 02:52PM
    Psi4 wall time for execution: 0:02:19.37

*** Psi4 exiting successfully. Buy a developer a beer!
