                               Psi4 1.4a2.dev629

  ==> Input File <==

--------------------------------------------------------------------------
import os
memory 14 GB

molecule {
 C   -0.3251045211   -0.0000021577   -0.0000000000
 C    0.0607693730   -1.4018264260   -2.4280244062
 C    0.0606494361    2.8036560166   -0.0000000000
 C    0.0607693730   -1.4018264260    2.4280244062
 H    2.0873025204   -1.6408329819   -2.8417860674
 H   -0.7651089715   -0.3899899665   -4.0276306063
 H   -0.7652716649   -3.2929771537   -2.3515947882
 H    2.0871639879    3.2815737557    0.0000000000
 H   -0.7653496468    3.6830005639    1.6760429858
 H   -0.7653496468    3.6830005639   -1.6760429858
 H    2.0873025204   -1.6408329819    2.8417860674
 H   -0.7652716649   -3.2929771537    2.3515947882
 H   -0.7651089715   -0.3899899665    4.0276306063
units bohr
0 2
}

basis {

assign 6-31g_2dfp_

[ 6-31g_2dfp_ ]

spherical

!----------------------------------------------------------------------
! Basis Set Exchange
! Version v0.8.13
! https://www.basissetexchange.org
!----------------------------------------------------------------------
!   Basis set: 6-31G(2df,p)
! Description: 6-31G(2df,p)
!        Role: orbital
!     Version: 0  (Data from the original Basis Set Exchange)
!----------------------------------------------------------------------

****
H     0
S    3   1.00
     18.7311370              0.03349460
      2.8253937              0.23472695
      0.6401217              0.81375733
S    1   1.00
      0.1612778              1.00000000
P    1   1.00
      1.5000000              1.0000000
P    1   1.00
      0.3750000              1.0000000
****
B     0
S    6   1.00
   2068.8823000              0.0018663
    310.6495700              0.0142515
     70.6830330              0.0695516
     19.8610800              0.2325729
      6.2993048              0.4670787
      2.1270270              0.3634314
SP   3   1.00
      4.7279710             -0.1303938              0.0745976
      1.1903377             -0.1307889              0.3078467
      0.3594117              1.1309444              0.7434568
SP   1   1.00
      0.1267512              1.0000000              1.0000000
D    1   1.00
      0.8020000              1.0000000
D    1   1.00
      0.2005000              1.0000000
F    1   1.00
      0.5000000              1.0000000
****
C     0
S    6   1.00
   3047.5249000              0.0018347
    457.3695100              0.0140373
    103.9486900              0.0688426
     29.2101550              0.2321844
      9.2866630              0.4679413
      3.1639270              0.3623120
SP   3   1.00
      7.8682724             -0.1193324              0.0689991
      1.8812885             -0.1608542              0.3164240
      0.5442493              1.1434564              0.7443083
SP   1   1.00
      0.1687144              1.0000000              1.0000000
D    1   1.00
      1.2520000              1.0000000
D    1   1.00
      0.3130000              1.0000000
F    1   1.00
      0.8000000              1.0000000
****
N     0
S    6   1.00
   4173.5110000              0.0018348
    627.4579000              0.0139950
    142.9021000              0.0685870
     40.2343300              0.2322410
     12.8202100              0.4690700
      4.3904370              0.3604550
SP   3   1.00
     11.6263580             -0.1149610              0.0675800
      2.7162800             -0.1691180              0.3239070
      0.7722180              1.1458520              0.7408950
SP   1   1.00
      0.2120313              1.0000000              1.0000000
D    1   1.00
      1.8260000              1.0000000
D    1   1.00
      0.4565000              1.0000000
F    1   1.00
      1.0000000              1.0000000
****
O     0
S    6   1.00
   5484.6717000              0.0018311
    825.2349500              0.0139501
    188.0469600              0.0684451
     52.9645000              0.2327143
     16.8975700              0.4701930
      5.7996353              0.3585209
SP   3   1.00
     15.5396160             -0.1107775              0.0708743
      3.5999336             -0.1480263              0.3397528
      1.0137618              1.1307670              0.7271586
SP   1   1.00
      0.2700058              1.0000000              1.0000000
D    1   1.00
      2.5840000              1.0000000
D    1   1.00
      0.6460000              1.0000000
F    1   1.00
      1.4000000              1.0000000
****
F     0
S    6   1.00
   7001.7130900              0.0018196169
   1051.3660900              0.0139160796
    239.2856900              0.0684053245
     67.3974453              0.233185760
     21.5199573              0.471267439
      7.40310130             0.356618546
SP   3   1.00
     20.8479528             -0.108506975            0.0716287243
      4.80830834            -0.146451658            0.3459121030
      1.34406986             1.128688580            0.7224699570
SP   1   1.00
      0.358151393            1.0000000              1.0000000
D    1   1.00
      3.5000000              1.0000000
D    1   1.00
      0.8750000              1.0000000
F    1   1.00
      1.8500000              1.0000000
****
Al     0
S    6   1.00
  13983.1000000              0.00194267
   2098.7500000              0.0148599
    477.7050000              0.0728494
    134.3600000              0.2468300
     42.8709000              0.4872580
     14.5189000              0.3234960
SP   6   1.00
    239.6680000             -0.00292619             0.00460285
     57.4419000             -0.0374080              0.0331990
     18.2859000             -0.1144870              0.1362820
      6.5991400              0.1156350              0.3304760
      2.4904900              0.6125950              0.4491460
      0.9445400              0.3937990              0.2657040
SP   3   1.00
      1.2779000             -0.2276060             -0.0175130
      0.3975900              0.00144583             0.2445330
      0.1600950              1.0927900              0.8049340
SP   1   1.00
      0.0556577              1.0000000              1.0000000
D    1   1.00
      0.6500000              1.0000000
D    1   1.00
      0.1625000              1.0000000
F    1   1.00
      0.2500000              1.0000000
****
Si     0
S    6   1.00
  16115.9000000              0.00195948
   2425.5800000              0.01492880
    553.8670000              0.07284780
    156.3400000              0.24613000
     50.0683000              0.48591400
     17.0178000              0.32500200
SP   6   1.00
    292.7180000             -0.00278094             0.00443826
     69.8731000             -0.03571460             0.03266790
     22.3363000             -0.11498500             0.13472100
      8.1503900              0.09356340             0.32867800
      3.1345800              0.60301700             0.44964000
      1.2254300              0.41895900             0.26137200
SP   3   1.00
      1.7273800             -0.24463000            -0.01779510
      0.5729220              0.00431572             0.25353900
      0.2221920              1.09818000             0.80066900
SP   1   1.00
      0.0778369              1.00000000             1.00000000
D    1   1.00
      0.9000000              1.0000000
D    1   1.00
      0.2250000              1.0000000
F    1   1.00
      0.3200000              1.0000000
****
P     0
S    6   1.00
  19413.3000000              0.0018516
   2909.4200000              0.0142062
    661.3640000              0.0699995
    185.7590000              0.2400790
     59.1943000              0.4847620
     20.0310000              0.3352000
SP   6   1.00
    339.4780000             -0.00278217             0.00456462
     81.0101000             -0.0360499              0.03369360
     25.8780000             -0.1166310              0.13975500
      9.4522100              0.0968328              0.33936200
      3.6656600              0.6144180              0.45092100
      1.4674600              0.4037980              0.23858600
SP   3   1.00
      2.1562300             -0.2529230             -0.01776530
      0.7489970              0.0328517              0.27405800
      0.2831450              1.0812500              0.78542100
SP   1   1.00
      0.0998317              1.0000000              1.00000000
D    1   1.00
      1.1000000              1.0000000
D    1   1.00
      0.2750000              1.0000000
F    1   1.00
      0.4500000              1.0000000
****
S     0
S    6   1.00
  21917.1000000              0.0018690
   3301.4900000              0.0142300
    754.1460000              0.0696960
    212.7110000              0.2384870
     67.9896000              0.4833070
     23.0515000              0.3380740
SP   6   1.00
    423.7350000             -0.0023767              0.0040610
    100.7100000             -0.0316930              0.0306810
     32.1599000             -0.1133170              0.1304520
     11.8079000              0.0560900              0.3272050
      4.6311000              0.5922550              0.4528510
      1.8702500              0.4550060              0.2560420
SP   3   1.00
      2.6158400             -0.2503740             -0.0145110
      0.9221670              0.0669570              0.3102630
      0.3412870              1.0545100              0.7544830
SP   1   1.00
      0.1171670              1.0000000              1.0000000
D    1   1.00
      1.3000000              1.0000000
D    1   1.00
      0.3250000              1.0000000
F    1   1.00
      0.5500000              1.0000000
****
Cl     0
S    6   1.00
  25180.1000000              0.0018330
   3780.3500000              0.0140340
    860.4740000              0.0690970
    242.1450000              0.2374520
     77.3349000              0.4830340
     26.2470000              0.3398560
SP   6   1.00
    491.7650000             -0.0022974              0.0039894
    116.9840000             -0.0307140              0.0303180
     37.4153000             -0.1125280              0.1298800
     13.7834000              0.0450160              0.3279510
      5.4521500              0.5893530              0.4535270
      2.2258800              0.4652060              0.2521540
SP   3   1.00
      3.1864900             -0.2518300             -0.0142990
      1.1442700              0.0615890              0.3235720
      0.4203770              1.0601800              0.7435070
SP   1   1.00
      0.1426570              1.0000000              1.0000000
D    1   1.00
      1.5000000              1.0000000
D    1   1.00
      0.3750000              1.0000000
F    1   1.00
      0.7000000              1.0000000
****
}

set {
reference uhf
freeze_core true
e_convergence 10
d_convergence 10
dft_spherical_points 1202
dft_radial_points 99
}

e = energy('b3lyp')

print_out('Grab this energy {0}'.format(e))
--------------------------------------------------------------------------

    Molecular point group: cs

    Geometry (in Bohr), charge = 0, multiplicity = 2:

       Center              X                  Y                   Z               Mass
    ------------   -----------------  -----------------  -----------------  -----------------
         C           -0.324550514572    -0.000001922271     0.000000000000    12.000000000000
         C            0.061323379528    -1.401826190571    -2.428024406200    12.000000000000
         C            0.061203442628     2.803656252029     0.000000000000    12.000000000000
         C            0.061323379528    -1.401826190571     2.428024406200    12.000000000000
         H            2.087856526928    -1.640832746471    -2.841786067400     1.007825032230
         H           -0.764554964972    -0.389989731071    -4.027630606300     1.007825032230
         H           -0.764717658372    -3.292976918271    -2.351594788200     1.007825032230
         H            2.087717994428     3.281573991129     0.000000000000     1.007825032230
         H           -0.764795640272     3.683000799329     1.676042985800     1.007825032230
         H           -0.764795640272     3.683000799329    -1.676042985800     1.007825032230
         H            2.087856526928    -1.640832746471     2.841786067400     1.007825032230
         H           -0.764717658372    -3.292976918271     2.351594788200     1.007825032230
         H           -0.764554964972    -0.389989731071     4.027630606300     1.007825032230

  Charge       = 0
  Multiplicity = 2
  Basis Set: ANONYMOUS37D11886
    Blend: 6-31G_2DFP_
  Basis Set: (ANONYMOUS37D11886 AUX)
    Blend: DEF2-UNIVERSAL-JKFIT

    Orbital Energies [Eh]
    ---------------------

    Alpha Occupied:

       1Ap   -10.180406     2Ap   -10.167024     1App  -10.167024
       3Ap   -10.166979     4Ap    -0.797445     5Ap    -0.686140
       2App   -0.686140     6Ap    -0.530598     7Ap    -0.441283
       3App   -0.434393     8Ap    -0.434392     9Ap    -0.382890
       4App   -0.382889     5App   -0.363674    10Ap    -0.337816
       6App   -0.337816    11Ap    -0.168850

    Alpha Virtual:

      12Ap     0.076044    13Ap     0.134263     7App    0.134264
      14Ap     0.142692     8App    0.142693    15Ap     0.154568
      16Ap     0.178981     9App    0.178981    17Ap     0.203123
      10App    0.214705    11App    0.275703    18Ap     0.275705
      19Ap     0.399007    12App    0.399011    20Ap     0.403510
      13App    0.424303    21Ap     0.424303    22Ap     0.456178
      23Ap     0.495421    14App    0.495422    15App    0.512405
      24Ap     0.513982    25Ap     0.578685    16App    0.578693
      17App    0.591941    26Ap     0.591942    27Ap     0.602845
      28Ap     0.624820    18App    0.631754    19App    0.636096
      29Ap     0.636100    30Ap     0.663021    20App    0.663021
      31Ap     0.683950    21App    0.683951    32Ap     0.735040
      22App    0.825485    33Ap     0.825487    23App    0.853438
      24App    0.914924    34Ap     0.914929    25App    0.943859
      35Ap     0.945095    26App    0.961628    36Ap     0.961644
      37Ap     1.002892    38Ap     1.127575    27App    1.127587
      39Ap     1.142403    40Ap     1.163319    28App    1.163331
      41Ap     1.222976    42Ap     1.274378    29App    1.274381
      43Ap     1.278978    30App    1.323875    44Ap     1.323877
      45Ap     1.356076    31App    1.365599    46Ap     1.365603
      32App    1.393128    47Ap     1.405049    33App    1.405051
      34App    1.417270    48Ap     1.417277    35App    1.427556
      36App    1.490369    49Ap     1.499977    37App    1.542599
      50Ap     1.542601    51Ap     1.574965    38App    1.574967
      52Ap     1.670546    53Ap     1.739038    39App    1.739050
      54Ap     1.768493    40App    1.831559    55Ap     1.831559
      41App    1.971040    56Ap     2.017444    42App    2.017447
      57Ap     2.018730    58Ap     2.051744    43App    2.051744
      44App    2.738730    59Ap     2.738731    60Ap     2.790474
      45App    2.810822    61Ap     2.889681    46App    2.889687
      62Ap     2.894286    63Ap     2.929192    47App    2.929200
      48App    2.958985    64Ap     2.964345    49App    2.964359
      65Ap     3.033356    50App    3.071802    66Ap     3.071815
      51App    3.084305    67Ap     3.168742    52App    3.168749
      68Ap     3.179832    53App    3.286050    69Ap     3.286051
      70Ap     3.325805    54App    3.325811    71Ap     3.375995
      55App    3.490555    72Ap     3.490575    56App    3.513568
      73Ap     3.524801    57App    3.567590    74Ap     3.567610
      58App    3.574488    75Ap     3.667199    59App    3.667207
      76Ap     3.679132    60App    3.694780    77Ap     3.694795
      78Ap     3.775578    61App    3.775603    79Ap     3.790722
      80Ap     3.911022    62App    3.911028    81Ap     4.035019
      82Ap     4.111512    63App    4.111516    83Ap     4.148369
      64App    4.148377    84Ap     4.172613    65App    4.201599
      85Ap     4.201602    86Ap     4.202167    66App    4.209995
      87Ap     4.315764    67App    4.315783    68App    4.358426
      88Ap     4.426145    69App    4.426146    70App    4.444412
      71App    4.515675    89Ap     4.515677    72App    4.576589
      90Ap     4.576601    91Ap     4.616625    92Ap     4.707871
      93Ap     4.773404    73App    4.773412    74App    4.836577
      94Ap     4.963660    75App    5.003949    95Ap     5.003961
      96Ap     5.228214    76App    5.247148    97Ap     5.247149
      98Ap     5.354759    77App    5.354772    78App    5.477875

    Beta Occupied:

       1Ap   -10.167774     1App  -10.167774     2Ap   -10.167749
       3Ap   -10.166567     4Ap    -0.780782     5Ap    -0.683950
       2App   -0.683950     6Ap    -0.511526     3App   -0.430791
       7Ap    -0.430790     8Ap    -0.422018     9Ap    -0.377001
       4App   -0.377000     5App   -0.362668     6App   -0.332920
      10Ap    -0.332920

    Beta Virtual:

      11Ap    -0.025406    12Ap     0.077054    13Ap     0.135130
       7App    0.135131    14Ap     0.144550     8App    0.144551
      15Ap     0.162937    16Ap     0.182644     9App    0.182645
      10App    0.214931    17Ap     0.218594    11App    0.282082
      18Ap     0.282084    19Ap     0.400164    12App    0.400169
      20Ap     0.419927    13App    0.427118    21Ap     0.427119
      22Ap     0.467932    23Ap     0.497660    14App    0.497661
      15App    0.514126    24Ap     0.556443    25Ap     0.584218
      16App    0.584226    17App    0.598154    26Ap     0.598154
      27Ap     0.610255    28Ap     0.628155    18App    0.631901
      19App    0.639373    29Ap     0.639377    30Ap     0.666559
      20App    0.666559    31Ap     0.686594    21App    0.686595
      32Ap     0.757677    22App    0.830622    33Ap     0.830625
      23App    0.854776    24App    0.922852    34Ap     0.922858
      25App    0.945688    35Ap     0.953931    26App    0.966952
      36Ap     0.966968    37Ap     1.008112    38Ap     1.131608
      27App    1.131620    39Ap     1.155963    40Ap     1.168409
      28App    1.168422    41Ap     1.231904    42Ap     1.279923
      29App    1.279927    43Ap     1.284688    30App    1.328804
      44Ap     1.328806    45Ap     1.365542    31App    1.370910
      46Ap     1.370914    32App    1.394159    47Ap     1.408466
      33App    1.408469    34App    1.422373    48Ap     1.422380
      35App    1.427834    36App    1.491415    49Ap     1.510423
      50Ap     1.546991    37App    1.546992    38App    1.582845
      51Ap     1.582846    52Ap     1.675396    53Ap     1.744800
      39App    1.744811    54Ap     1.779219    40App    1.835391
      55Ap     1.835392    41App    1.971884    56Ap     2.023759
      42App    2.023762    57Ap     2.040081    58Ap     2.058511
      43App    2.058511    44App    2.747086    59Ap     2.747087
      45App    2.811230    60Ap     2.815639    61Ap     2.902475
      46App    2.902481    62Ap     2.923973    63Ap     2.931627
      47App    2.931636    48App    2.960046    64Ap     2.968821
      49App    2.968835    65Ap     3.041258    50App    3.081682
      66Ap     3.081694    51App    3.086111    67Ap     3.184600
      52App    3.184604    68Ap     3.187513    53App    3.290824
      69Ap     3.290824    70Ap     3.329639    54App    3.329644
      71Ap     3.383808    55App    3.493210    72Ap     3.493230
      56App    3.511927    73Ap     3.527921    57App    3.574356
      58App    3.581053    74Ap     3.581075    75Ap     3.672246
      59App    3.672258    76Ap     3.692485    60App    3.726113
      77Ap     3.726128    78Ap     3.779979    61App    3.780005
      79Ap     3.819298    80Ap     3.920923    62App    3.920930
      81Ap     4.045931    82Ap     4.118145    63App    4.118147
      83Ap     4.155704    64App    4.155714    84Ap     4.186656
      65App    4.207573    85Ap     4.207577    86Ap     4.210052
      66App    4.214416    87Ap     4.323281    67App    4.323300
      68App    4.361744    88Ap     4.434290    69App    4.434292
      70App    4.447311    71App    4.523415    89Ap     4.523418
      72App    4.587151    90Ap     4.587163    91Ap     4.623873
      92Ap     4.718107    93Ap     4.780373    73App    4.780380
      74App    4.839493    94Ap     4.968435    75App    5.007950
      95Ap     5.007962    96Ap     5.233928    76App    5.248919
      97Ap     5.248919    98Ap     5.361209    77App    5.361223
      78App    5.480183

    Final Occupation by Irrep:
             Ap   App
    DOCC [    10,    6 ]
    SOCC [     1,    0 ]

  @DF-UKS Final Energy:  -157.81303820137776

   => Energetics <=

    Nuclear Repulsion Energy =            125.3550673584569353
    One-Electron Energy =                -458.6712442202400553
    Two-Electron Energy =                 195.8100524910757372
    DFT Exchange-Correlation Energy =     -20.3069138306703820
    Empirical Dispersion Energy =           0.0000000000000000
    VV10 Nonlocal Energy =                  0.0000000000000000
    Total Energy =                       -157.8130382013777648

  UHF NO Occupations:
  HONO-2 :    9 Ap 1.9996039
  HONO-1 :   10 Ap 1.9989762
  HONO-0 :   11 Ap 1.0000000
  LUNO+0 :   12 Ap 0.0010238
  LUNO+1 :   13 Ap 0.0003961
  LUNO+2 :    7App 0.0001986
  LUNO+3 :   14 Ap 0.0001986

Computation Completed

Properties will be evaluated at   0.000000,   0.000000,   0.000000 [a0]

Properties computed using the SCF density matrix

  Nuclear Dipole Moment: [e a0]
     X:     0.8311      Y:    -0.0000      Z:     0.0000

  Electronic Dipole Moment: [e a0]
     X:    -0.7526      Y:     0.0000      Z:     0.0000

  Dipole Moment: [e a0]
     X:     0.0785      Y:     0.0000      Z:     0.0000     Total:     0.0785

  Dipole Moment: [D]
     X:     0.1994      Y:     0.0000      Z:     0.0000     Total:     0.1994

*** tstop() called on n046 at Fri Nov  5 13:27:22 2021
Module time:
	user time   =     541.29 seconds =       9.02 minutes
	system time =      11.76 seconds =       0.20 minutes
	total time  =        139 seconds =       2.32 minutes
Total time:
	user time   =     541.29 seconds =       9.02 minutes
	system time =      11.76 seconds =       0.20 minutes
	total time  =        139 seconds =       2.32 minutes
Grab this energy -157.81303820137776
    Psi4 stopped on: Friday, 05 November 2021 01:27PM
    Psi4 wall time for execution: 0:02:19.05

*** Psi4 exiting successfully. Buy a developer a beer!
