                               Psi4 1.4a2.dev629

  ==> Input File <==

--------------------------------------------------------------------------
import os
memory 14 GB

molecule {
 C   -0.3233326734    0.0049890393    0.0024249041
 C    0.0621328405   -1.4046592930   -2.4208736631
 C    0.0604188614    2.8096657813    0.0012551156
 C    0.0607507247   -1.4024793390    2.4196143601
 H    2.0895522089   -1.6483550985   -2.8388654413
 H   -0.7634401323   -0.3988512648   -4.0235480178
 H   -0.7640234142   -3.2969631618   -2.3384942452
 H    2.0860164888    3.2972566577   -0.0033488798
 H   -0.7623409123    3.6910622216    1.6800351906
 H   -0.7710582171    3.6852788421   -1.6733420960
 H    2.0850913939   -1.6519517068    2.8384029120
 H   -0.7708284876   -3.2904572946    2.3331283044
 H   -0.7615465580   -0.3945596972    4.0236115564
units bohr
0 2
}

basis {

assign 6-31g_2dfp_

[ 6-31g_2dfp_ ]

spherical

!----------------------------------------------------------------------
! Basis Set Exchange
! Version v0.8.13
! https://www.basissetexchange.org
!----------------------------------------------------------------------
!   Basis set: 6-31G(2df,p)
! Description: 6-31G(2df,p)
!        Role: orbital
!     Version: 0  (Data from the original Basis Set Exchange)
!----------------------------------------------------------------------

****
H     0
S    3   1.00
     18.7311370              0.03349460
      2.8253937              0.23472695
      0.6401217              0.81375733
S    1   1.00
      0.1612778              1.00000000
P    1   1.00
      1.5000000              1.0000000
P    1   1.00
      0.3750000              1.0000000
****
B     0
S    6   1.00
   2068.8823000              0.0018663
    310.6495700              0.0142515
     70.6830330              0.0695516
     19.8610800              0.2325729
      6.2993048              0.4670787
      2.1270270              0.3634314
SP   3   1.00
      4.7279710             -0.1303938              0.0745976
      1.1903377             -0.1307889              0.3078467
      0.3594117              1.1309444              0.7434568
SP   1   1.00
      0.1267512              1.0000000              1.0000000
D    1   1.00
      0.8020000              1.0000000
D    1   1.00
      0.2005000              1.0000000
F    1   1.00
      0.5000000              1.0000000
****
C     0
S    6   1.00
   3047.5249000              0.0018347
    457.3695100              0.0140373
    103.9486900              0.0688426
     29.2101550              0.2321844
      9.2866630              0.4679413
      3.1639270              0.3623120
SP   3   1.00
      7.8682724             -0.1193324              0.0689991
      1.8812885             -0.1608542              0.3164240
      0.5442493              1.1434564              0.7443083
SP   1   1.00
      0.1687144              1.0000000              1.0000000
D    1   1.00
      1.2520000              1.0000000
D    1   1.00
      0.3130000              1.0000000
F    1   1.00
      0.8000000              1.0000000
****
N     0
S    6   1.00
   4173.5110000              0.0018348
    627.4579000              0.0139950
    142.9021000              0.0685870
     40.2343300              0.2322410
     12.8202100              0.4690700
      4.3904370              0.3604550
SP   3   1.00
     11.6263580             -0.1149610              0.0675800
      2.7162800             -0.1691180              0.3239070
      0.7722180              1.1458520              0.7408950
SP   1   1.00
      0.2120313              1.0000000              1.0000000
D    1   1.00
      1.8260000              1.0000000
D    1   1.00
      0.4565000              1.0000000
F    1   1.00
      1.0000000              1.0000000
****
O     0
S    6   1.00
   5484.6717000              0.0018311
    825.2349500              0.0139501
    188.0469600              0.0684451
     52.9645000              0.2327143
     16.8975700              0.4701930
      5.7996353              0.3585209
SP   3   1.00
     15.5396160             -0.1107775              0.0708743
      3.5999336             -0.1480263              0.3397528
      1.0137618              1.1307670              0.7271586
SP   1   1.00
      0.2700058              1.0000000              1.0000000
D    1   1.00
      2.5840000              1.0000000
D    1   1.00
      0.6460000              1.0000000
F    1   1.00
      1.4000000              1.0000000
****
F     0
S    6   1.00
   7001.7130900              0.0018196169
   1051.3660900              0.0139160796
    239.2856900              0.0684053245
     67.3974453              0.233185760
     21.5199573              0.471267439
      7.40310130             0.356618546
SP   3   1.00
     20.8479528             -0.108506975            0.0716287243
      4.80830834            -0.146451658            0.3459121030
      1.34406986             1.128688580            0.7224699570
SP   1   1.00
      0.358151393            1.0000000              1.0000000
D    1   1.00
      3.5000000              1.0000000
D    1   1.00
      0.8750000              1.0000000
F    1   1.00
      1.8500000              1.0000000
****
Al     0
S    6   1.00
  13983.1000000              0.00194267
   2098.7500000              0.0148599
    477.7050000              0.0728494
    134.3600000              0.2468300
     42.8709000              0.4872580
     14.5189000              0.3234960
SP   6   1.00
    239.6680000             -0.00292619             0.00460285
     57.4419000             -0.0374080              0.0331990
     18.2859000             -0.1144870              0.1362820
      6.5991400              0.1156350              0.3304760
      2.4904900              0.6125950              0.4491460
      0.9445400              0.3937990              0.2657040
SP   3   1.00
      1.2779000             -0.2276060             -0.0175130
      0.3975900              0.00144583             0.2445330
      0.1600950              1.0927900              0.8049340
SP   1   1.00
      0.0556577              1.0000000              1.0000000
D    1   1.00
      0.6500000              1.0000000
D    1   1.00
      0.1625000              1.0000000
F    1   1.00
      0.2500000              1.0000000
****
Si     0
S    6   1.00
  16115.9000000              0.00195948
   2425.5800000              0.01492880
    553.8670000              0.07284780
    156.3400000              0.24613000
     50.0683000              0.48591400
     17.0178000              0.32500200
SP   6   1.00
    292.7180000             -0.00278094             0.00443826
     69.8731000             -0.03571460             0.03266790
     22.3363000             -0.11498500             0.13472100
      8.1503900              0.09356340             0.32867800
      3.1345800              0.60301700             0.44964000
      1.2254300              0.41895900             0.26137200
SP   3   1.00
      1.7273800             -0.24463000            -0.01779510
      0.5729220              0.00431572             0.25353900
      0.2221920              1.09818000             0.80066900
SP   1   1.00
      0.0778369              1.00000000             1.00000000
D    1   1.00
      0.9000000              1.0000000
D    1   1.00
      0.2250000              1.0000000
F    1   1.00
      0.3200000              1.0000000
****
P     0
S    6   1.00
  19413.3000000              0.0018516
   2909.4200000              0.0142062
    661.3640000              0.0699995
    185.7590000              0.2400790
     59.1943000              0.4847620
     20.0310000              0.3352000
SP   6   1.00
    339.4780000             -0.00278217             0.00456462
     81.0101000             -0.0360499              0.03369360
     25.8780000             -0.1166310              0.13975500
      9.4522100              0.0968328              0.33936200
      3.6656600              0.6144180              0.45092100
      1.4674600              0.4037980              0.23858600
SP   3   1.00
      2.1562300             -0.2529230             -0.01776530
      0.7489970              0.0328517              0.27405800
      0.2831450              1.0812500              0.78542100
SP   1   1.00
      0.0998317              1.0000000              1.00000000
D    1   1.00
      1.1000000              1.0000000
D    1   1.00
      0.2750000              1.0000000
F    1   1.00
      0.4500000              1.0000000
****
S     0
S    6   1.00
  21917.1000000              0.0018690
   3301.4900000              0.0142300
    754.1460000              0.0696960
    212.7110000              0.2384870
     67.9896000              0.4833070
     23.0515000              0.3380740
SP   6   1.00
    423.7350000             -0.0023767              0.0040610
    100.7100000             -0.0316930              0.0306810
     32.1599000             -0.1133170              0.1304520
     11.8079000              0.0560900              0.3272050
      4.6311000              0.5922550              0.4528510
      1.8702500              0.4550060              0.2560420
SP   3   1.00
      2.6158400             -0.2503740             -0.0145110
      0.9221670              0.0669570              0.3102630
      0.3412870              1.0545100              0.7544830
SP   1   1.00
      0.1171670              1.0000000              1.0000000
D    1   1.00
      1.3000000              1.0000000
D    1   1.00
      0.3250000              1.0000000
F    1   1.00
      0.5500000              1.0000000
****
Cl     0
S    6   1.00
  25180.1000000              0.0018330
   3780.3500000              0.0140340
    860.4740000              0.0690970
    242.1450000              0.2374520
     77.3349000              0.4830340
     26.2470000              0.3398560
SP   6   1.00
    491.7650000             -0.0022974              0.0039894
    116.9840000             -0.0307140              0.0303180
     37.4153000             -0.1125280              0.1298800
     13.7834000              0.0450160              0.3279510
      5.4521500              0.5893530              0.4535270
      2.2258800              0.4652060              0.2521540
SP   3   1.00
      3.1864900             -0.2518300             -0.0142990
      1.1442700              0.0615890              0.3235720
      0.4203770              1.0601800              0.7435070
SP   1   1.00
      0.1426570              1.0000000              1.0000000
D    1   1.00
      1.5000000              1.0000000
D    1   1.00
      0.3750000              1.0000000
F    1   1.00
      0.7000000              1.0000000
****
}

set {
reference uhf
freeze_core true
e_convergence 10
d_convergence 10
dft_spherical_points 1202
dft_radial_points 99
}

e = energy('b3lyp')

print_out('Grab this energy {0}'.format(e))
--------------------------------------------------------------------------

    Molecular point group: c1

    Geometry (in Bohr), charge = 0, multiplicity = 2:

       Center              X                  Y                   Z               Mass
    ------------   -----------------  -----------------  -----------------  -----------------
         C           -0.323334549017     0.003541796603     0.001958656628    12.000000000000
         C            0.062130964883    -1.406106535697    -2.421339910572    12.000000000000
         C            0.060416985783     2.808218538603     0.000788868128    12.000000000000
         C            0.060748849083    -1.403926581697     2.419148112628    12.000000000000
         H            2.089550333283    -1.649802341197    -2.839331688772     1.007825032230
         H           -0.763442007917    -0.400298507497    -4.024014265272     1.007825032230
         H           -0.764025289817    -3.298410404497    -2.338960492672     1.007825032230
         H            2.086014613183     3.295809415003    -0.003815127272     1.007825032230
         H           -0.762342787917     3.689614978903     1.679568943128     1.007825032230
         H           -0.771060092717     3.683831599403    -1.673808343472     1.007825032230
         H            2.085089518283    -1.653398949497     2.837936664528     1.007825032230
         H           -0.770830363217    -3.291904537297     2.332662056928     1.007825032230
         H           -0.761548433617    -0.396006939897     4.023145308928     1.007825032230

  Charge       = 0
  Multiplicity = 2
  Basis Set: ANONYMOUS7F0B6DBE
    Blend: 6-31G_2DFP_
  Basis Set: (ANONYMOUS7F0B6DBE AUX)
    Blend: DEF2-UNIVERSAL-JKFIT

    Orbital Energies [Eh]
    ---------------------

    Alpha Occupied:

       1A    -10.180341     2A    -10.167329     3A    -10.167046
       4A    -10.166670     5A     -0.797771     6A     -0.686449
       7A     -0.685922     8A     -0.530776     9A     -0.441127
      10A     -0.434946    11A     -0.434397    12A     -0.382752
      13A     -0.382445    14A     -0.363610    15A     -0.338312
      16A     -0.337682    17A     -0.168961

    Alpha Virtual:

      18A      0.076072    19A      0.133907    20A      0.134404
      21A      0.142488    22A      0.142766    23A      0.154880
      24A      0.178554    25A      0.179002    26A      0.203544
      27A      0.214807    28A      0.275611    29A      0.276362
      30A      0.399022    31A      0.399361    32A      0.403423
      33A      0.423964    34A      0.424242    35A      0.456596
      36A      0.494980    37A      0.495789    38A      0.512172
      39A      0.513986    40A      0.578481    41A      0.579121
      42A      0.591410    43A      0.591869    44A      0.602577
      45A      0.624768    46A      0.631763    47A      0.636015
      48A      0.636493    49A      0.663117    50A      0.663711
      51A      0.683609    52A      0.684101    53A      0.734994
      54A      0.824579    55A      0.826222    56A      0.853915
      57A      0.914749    58A      0.915308    59A      0.944046
      60A      0.944519    61A      0.961127    62A      0.961668
      63A      1.003472    64A      1.126937    65A      1.129280
      66A      1.142202    67A      1.162766    68A      1.163795
      69A      1.223334    70A      1.273947    71A      1.275043
      72A      1.279360    73A      1.324200    74A      1.324507
      75A      1.355996    76A      1.365260    77A      1.366781
      78A      1.392430    79A      1.403205    80A      1.404965
      81A      1.416573    82A      1.417670    83A      1.427936
      84A      1.491436    85A      1.499067    86A      1.542432
      87A      1.543235    88A      1.572580    89A      1.576421
      90A      1.669826    91A      1.738296    92A      1.740507
      93A      1.768344    94A      1.830739    95A      1.832061
      96A      1.971726    97A      2.017575    98A      2.018247
      99A      2.020525   100A      2.049956   101A      2.055439
     102A      2.738212   103A      2.738752   104A      2.790926
     105A      2.811434   106A      2.889506   107A      2.890332
     108A      2.895005   109A      2.929244   110A      2.929746
     111A      2.958988   112A      2.963438   113A      2.965346
     114A      3.034011   115A      3.070258   116A      3.072281
     117A      3.084381   118A      3.168003   119A      3.169577
     120A      3.180590   121A      3.284601   122A      3.286014
     123A      3.326120   124A      3.328211   125A      3.375665
     126A      3.489611   127A      3.490637   128A      3.514022
     129A      3.525287   130A      3.567006   131A      3.569626
     132A      3.575398   133A      3.666124   134A      3.666617
     135A      3.679679   136A      3.693559   137A      3.694654
     138A      3.775255   139A      3.778203   140A      3.789358
     141A      3.910725   142A      3.913742   143A      4.034470
     144A      4.109671   145A      4.113088   146A      4.146352
     147A      4.149852   148A      4.173233   149A      4.201327
     150A      4.202627   151A      4.204760   152A      4.211014
     153A      4.315422   154A      4.316474   155A      4.359002
     156A      4.423917   157A      4.424864   158A      4.443552
     159A      4.515716   160A      4.517986   161A      4.577010
     162A      4.579502   163A      4.617533   164A      4.709438
     165A      4.773189   166A      4.776056   167A      4.836954
     168A      4.962847   169A      5.001801   170A      5.004134
     171A      5.228013   172A      5.246631   173A      5.247020
     174A      5.354313   175A      5.356702   176A      5.479332

    Beta Occupied:

       1A    -10.168085     2A    -10.167805     3A    -10.167436
       4A    -10.166517     5A     -0.781096     6A     -0.684249
       7A     -0.683727     8A     -0.511748     9A     -0.431328
      10A     -0.430757    11A     -0.421824    12A     -0.376844
      13A     -0.376524    14A     -0.362594    15A     -0.333438
      16A     -0.332801

    Beta Virtual:

      17A     -0.025743    18A      0.077081    19A      0.134786
      20A      0.135305    21A      0.144363    22A      0.144632
      23A      0.163339    24A      0.182215    25A      0.182684
      26A      0.215036    27A      0.218926    28A      0.281963
      29A      0.282705    30A      0.400271    31A      0.400515
      32A      0.419800    33A      0.426758    34A      0.427072
      35A      0.468507    36A      0.497241    37A      0.498053
      38A      0.513908    39A      0.556327    40A      0.584048
      41A      0.584658    42A      0.597605    43A      0.598029
      44A      0.609995    45A      0.628150    46A      0.631924
      47A      0.639274    48A      0.639803    49A      0.666666
      50A      0.667287    51A      0.686194    52A      0.686789
      53A      0.757516    54A      0.829739    55A      0.831399
      56A      0.855268    57A      0.922705    58A      0.923292
      59A      0.945906    60A      0.953433    61A      0.966357
      62A      0.967046    63A      1.008709    64A      1.130972
      65A      1.133306    66A      1.155568    67A      1.167824
      68A      1.168890    69A      1.232304    70A      1.279541
      71A      1.280640    72A      1.285118    73A      1.329190
      74A      1.329498    75A      1.365412    76A      1.370421
      77A      1.372099    78A      1.393493    79A      1.406693
      80A      1.408415    81A      1.421621    82A      1.422713
      83A      1.428212    84A      1.492487    85A      1.509510
      86A      1.546744    87A      1.547735    88A      1.580610
      89A      1.584137    90A      1.674672    91A      1.744060
      92A      1.746267    93A      1.779122    94A      1.834576
      95A      1.835934    96A      1.972588    97A      2.023930
      98A      2.026936    99A      2.039643   100A      2.056777
     101A      2.062061   102A      2.746498   103A      2.747139
     104A      2.811847   105A      2.816060   106A      2.902273
     107A      2.902992   108A      2.924638   109A      2.931798
     110A      2.932179   111A      2.960055   112A      2.968016
     113A      2.969853   114A      3.041946   115A      3.080073
     116A      3.082124   117A      3.086370   118A      3.183857
     119A      3.185128   120A      3.188352   121A      3.289465
     122A      3.290751   123A      3.329921   124A      3.332021
     125A      3.383482   126A      3.492339   127A      3.493362
     128A      3.512402   129A      3.528343   130A      3.574776
     131A      3.580467   132A      3.583312   133A      3.670961
     134A      3.671293   135A      3.692958   136A      3.725306
     137A      3.726160   138A      3.779808   139A      3.782820
     140A      3.817784   141A      3.920555   142A      3.923548
     143A      4.045358   144A      4.116493   145A      4.119896
     146A      4.153636   147A      4.156990   148A      4.187292
     149A      4.207250   150A      4.210255   151A      4.211004
     152A      4.215536   153A      4.322829   154A      4.323947
     155A      4.362365   156A      4.432154   157A      4.433004
     158A      4.446493   159A      4.523584   160A      4.525690
     161A      4.587542   162A      4.590169   163A      4.624731
     164A      4.719783   165A      4.780126   166A      4.783025
     167A      4.839874   168A      4.967640   169A      5.005831
     170A      5.008183   171A      5.233726   172A      5.248404
     173A      5.248818   174A      5.360766   175A      5.363211
     176A      5.481654

    Final Occupation by Irrep:
              A
    DOCC [    16 ]
    SOCC [     1 ]

  @DF-UKS Final Energy:  -157.81306005798501

   => Energetics <=

    Nuclear Repulsion Energy =            125.3948822973982118
    One-Electron Energy =                -458.7494068586090634
    Two-Electron Energy =                 195.8486117618024025
    DFT Exchange-Correlation Energy =     -20.3071472585765633
    Empirical Dispersion Energy =           0.0000000000000000
    VV10 Nonlocal Energy =                  0.0000000000000000
    Total Energy =                       -157.8130600579850125

  UHF NO Occupations:
  HONO-2 :   15  A 1.9996009
  HONO-1 :   16  A 1.9989804
  HONO-0 :   17  A 1.0000000
  LUNO+0 :   18  A 0.0010196
  LUNO+1 :   19  A 0.0003991
  LUNO+2 :   20  A 0.0001982
  LUNO+3 :   21  A 0.0001969

Computation Completed

Properties will be evaluated at   0.000000,   0.000000,   0.000000 [a0]

Properties computed using the SCF density matrix

  Nuclear Dipole Moment: [e a0]
     X:     0.8272      Y:    -0.0102      Z:    -0.0033

  Electronic Dipole Moment: [e a0]
     X:    -0.7493      Y:     0.0110      Z:     0.0033

  Dipole Moment: [e a0]
     X:     0.0779      Y:     0.0008      Z:    -0.0000     Total:     0.0779

  Dipole Moment: [D]
     X:     0.1980      Y:     0.0019      Z:    -0.0001     Total:     0.1980

*** tstop() called on n058 at Fri Nov  5 15:48:38 2021
Module time:
	user time   =     546.77 seconds =       9.11 minutes
	system time =      12.06 seconds =       0.20 minutes
	total time  =        141 seconds =       2.35 minutes
Total time:
	user time   =     546.77 seconds =       9.11 minutes
	system time =      12.06 seconds =       0.20 minutes
	total time  =        141 seconds =       2.35 minutes
Grab this energy -157.813060057985
    Psi4 stopped on: Friday, 05 November 2021 03:48PM
    Psi4 wall time for execution: 0:02:20.53

*** Psi4 exiting successfully. Buy a developer a beer!
