                               Psi4 1.4a2.dev629

  ==> Input File <==

--------------------------------------------------------------------------
import os
memory 14 GB

molecule {
 C   -0.3230382220   -0.0000013778    0.0004338933
 C    0.0607336507   -1.3988013305   -2.4213975947
 C    0.0608831921    2.7963151404    0.0013878127
 C    0.0612696272   -1.3975080337    2.4219333263
 H    2.0874347602   -1.6423096280   -2.8408485992
 H   -0.7671454755   -0.3854938960   -4.0207942070
 H   -0.7641036735   -3.2867793790   -2.3446942216
 H    2.0865072932    3.2815097114    0.0034939782
 H   -0.7622770512    3.6733457835    1.6737236288
 H   -0.7686876698    3.6751537839   -1.6785069306
 H    2.0858562986   -1.6392930405    2.8426123904
 H   -0.7667050108   -3.2905502114    2.3432678419
 H   -0.7633355958   -0.3856118361    4.0193886815
units bohr
0 2
}

basis {

assign 6-31g_2dfp_

[ 6-31g_2dfp_ ]

spherical

!----------------------------------------------------------------------
! Basis Set Exchange
! Version v0.8.13
! https://www.basissetexchange.org
!----------------------------------------------------------------------
!   Basis set: 6-31G(2df,p)
! Description: 6-31G(2df,p)
!        Role: orbital
!     Version: 0  (Data from the original Basis Set Exchange)
!----------------------------------------------------------------------

****
H     0
S    3   1.00
     18.7311370              0.03349460
      2.8253937              0.23472695
      0.6401217              0.81375733
S    1   1.00
      0.1612778              1.00000000
P    1   1.00
      1.5000000              1.0000000
P    1   1.00
      0.3750000              1.0000000
****
B     0
S    6   1.00
   2068.8823000              0.0018663
    310.6495700              0.0142515
     70.6830330              0.0695516
     19.8610800              0.2325729
      6.2993048              0.4670787
      2.1270270              0.3634314
SP   3   1.00
      4.7279710             -0.1303938              0.0745976
      1.1903377             -0.1307889              0.3078467
      0.3594117              1.1309444              0.7434568
SP   1   1.00
      0.1267512              1.0000000              1.0000000
D    1   1.00
      0.8020000              1.0000000
D    1   1.00
      0.2005000              1.0000000
F    1   1.00
      0.5000000              1.0000000
****
C     0
S    6   1.00
   3047.5249000              0.0018347
    457.3695100              0.0140373
    103.9486900              0.0688426
     29.2101550              0.2321844
      9.2866630              0.4679413
      3.1639270              0.3623120
SP   3   1.00
      7.8682724             -0.1193324              0.0689991
      1.8812885             -0.1608542              0.3164240
      0.5442493              1.1434564              0.7443083
SP   1   1.00
      0.1687144              1.0000000              1.0000000
D    1   1.00
      1.2520000              1.0000000
D    1   1.00
      0.3130000              1.0000000
F    1   1.00
      0.8000000              1.0000000
****
N     0
S    6   1.00
   4173.5110000              0.0018348
    627.4579000              0.0139950
    142.9021000              0.0685870
     40.2343300              0.2322410
     12.8202100              0.4690700
      4.3904370              0.3604550
SP   3   1.00
     11.6263580             -0.1149610              0.0675800
      2.7162800             -0.1691180              0.3239070
      0.7722180              1.1458520              0.7408950
SP   1   1.00
      0.2120313              1.0000000              1.0000000
D    1   1.00
      1.8260000              1.0000000
D    1   1.00
      0.4565000              1.0000000
F    1   1.00
      1.0000000              1.0000000
****
O     0
S    6   1.00
   5484.6717000              0.0018311
    825.2349500              0.0139501
    188.0469600              0.0684451
     52.9645000              0.2327143
     16.8975700              0.4701930
      5.7996353              0.3585209
SP   3   1.00
     15.5396160             -0.1107775              0.0708743
      3.5999336             -0.1480263              0.3397528
      1.0137618              1.1307670              0.7271586
SP   1   1.00
      0.2700058              1.0000000              1.0000000
D    1   1.00
      2.5840000              1.0000000
D    1   1.00
      0.6460000              1.0000000
F    1   1.00
      1.4000000              1.0000000
****
F     0
S    6   1.00
   7001.7130900              0.0018196169
   1051.3660900              0.0139160796
    239.2856900              0.0684053245
     67.3974453              0.233185760
     21.5199573              0.471267439
      7.40310130             0.356618546
SP   3   1.00
     20.8479528             -0.108506975            0.0716287243
      4.80830834            -0.146451658            0.3459121030
      1.34406986             1.128688580            0.7224699570
SP   1   1.00
      0.358151393            1.0000000              1.0000000
D    1   1.00
      3.5000000              1.0000000
D    1   1.00
      0.8750000              1.0000000
F    1   1.00
      1.8500000              1.0000000
****
Al     0
S    6   1.00
  13983.1000000              0.00194267
   2098.7500000              0.0148599
    477.7050000              0.0728494
    134.3600000              0.2468300
     42.8709000              0.4872580
     14.5189000              0.3234960
SP   6   1.00
    239.6680000             -0.00292619             0.00460285
     57.4419000             -0.0374080              0.0331990
     18.2859000             -0.1144870              0.1362820
      6.5991400              0.1156350              0.3304760
      2.4904900              0.6125950              0.4491460
      0.9445400              0.3937990              0.2657040
SP   3   1.00
      1.2779000             -0.2276060             -0.0175130
      0.3975900              0.00144583             0.2445330
      0.1600950              1.0927900              0.8049340
SP   1   1.00
      0.0556577              1.0000000              1.0000000
D    1   1.00
      0.6500000              1.0000000
D    1   1.00
      0.1625000              1.0000000
F    1   1.00
      0.2500000              1.0000000
****
Si     0
S    6   1.00
  16115.9000000              0.00195948
   2425.5800000              0.01492880
    553.8670000              0.07284780
    156.3400000              0.24613000
     50.0683000              0.48591400
     17.0178000              0.32500200
SP   6   1.00
    292.7180000             -0.00278094             0.00443826
     69.8731000             -0.03571460             0.03266790
     22.3363000             -0.11498500             0.13472100
      8.1503900              0.09356340             0.32867800
      3.1345800              0.60301700             0.44964000
      1.2254300              0.41895900             0.26137200
SP   3   1.00
      1.7273800             -0.24463000            -0.01779510
      0.5729220              0.00431572             0.25353900
      0.2221920              1.09818000             0.80066900
SP   1   1.00
      0.0778369              1.00000000             1.00000000
D    1   1.00
      0.9000000              1.0000000
D    1   1.00
      0.2250000              1.0000000
F    1   1.00
      0.3200000              1.0000000
****
P     0
S    6   1.00
  19413.3000000              0.0018516
   2909.4200000              0.0142062
    661.3640000              0.0699995
    185.7590000              0.2400790
     59.1943000              0.4847620
     20.0310000              0.3352000
SP   6   1.00
    339.4780000             -0.00278217             0.00456462
     81.0101000             -0.0360499              0.03369360
     25.8780000             -0.1166310              0.13975500
      9.4522100              0.0968328              0.33936200
      3.6656600              0.6144180              0.45092100
      1.4674600              0.4037980              0.23858600
SP   3   1.00
      2.1562300             -0.2529230             -0.01776530
      0.7489970              0.0328517              0.27405800
      0.2831450              1.0812500              0.78542100
SP   1   1.00
      0.0998317              1.0000000              1.00000000
D    1   1.00
      1.1000000              1.0000000
D    1   1.00
      0.2750000              1.0000000
F    1   1.00
      0.4500000              1.0000000
****
S     0
S    6   1.00
  21917.1000000              0.0018690
   3301.4900000              0.0142300
    754.1460000              0.0696960
    212.7110000              0.2384870
     67.9896000              0.4833070
     23.0515000              0.3380740
SP   6   1.00
    423.7350000             -0.0023767              0.0040610
    100.7100000             -0.0316930              0.0306810
     32.1599000             -0.1133170              0.1304520
     11.8079000              0.0560900              0.3272050
      4.6311000              0.5922550              0.4528510
      1.8702500              0.4550060              0.2560420
SP   3   1.00
      2.6158400             -0.2503740             -0.0145110
      0.9221670              0.0669570              0.3102630
      0.3412870              1.0545100              0.7544830
SP   1   1.00
      0.1171670              1.0000000              1.0000000
D    1   1.00
      1.3000000              1.0000000
D    1   1.00
      0.3250000              1.0000000
F    1   1.00
      0.5500000              1.0000000
****
Cl     0
S    6   1.00
  25180.1000000              0.0018330
   3780.3500000              0.0140340
    860.4740000              0.0690970
    242.1450000              0.2374520
     77.3349000              0.4830340
     26.2470000              0.3398560
SP   6   1.00
    491.7650000             -0.0022974              0.0039894
    116.9840000             -0.0307140              0.0303180
     37.4153000             -0.1125280              0.1298800
     13.7834000              0.0450160              0.3279510
      5.4521500              0.5893530              0.4535270
      2.2258800              0.4652060              0.2521540
SP   3   1.00
      3.1864900             -0.2518300             -0.0142990
      1.1442700              0.0615890              0.3235720
      0.4203770              1.0601800              0.7435070
SP   1   1.00
      0.1426570              1.0000000              1.0000000
D    1   1.00
      1.5000000              1.0000000
D    1   1.00
      0.3750000              1.0000000
F    1   1.00
      0.7000000              1.0000000
****
}

set {
reference uhf
freeze_core true
e_convergence 10
d_convergence 10
dft_spherical_points 1202
dft_radial_points 99
}

e = energy('b3lyp')

print_out('Grab this energy {0}'.format(e))
--------------------------------------------------------------------------

    Molecular point group: c1

    Geometry (in Bohr), charge = 0, multiplicity = 2:

       Center              X                  Y                   Z               Mass
    ------------   -----------------  -----------------  -----------------  -----------------
         C           -0.323016694843    -0.000001795598    -0.000020166162    12.000000000000
         C            0.060755177857    -1.398801748298    -2.421851654162    12.000000000000
         C            0.060904719257     2.796314722602     0.000933753238    12.000000000000
         C            0.061291154357    -1.397508451498     2.421479266838    12.000000000000
         H            2.087456287357    -1.642310045798    -2.841302658662     1.007825032230
         H           -0.767123948343    -0.385494313798    -4.021248266461     1.007825032230
         H           -0.764082146343    -3.286779796798    -2.345148281062     1.007825032230
         H            2.086528820357     3.281509293602     0.003039918738     1.007825032230
         H           -0.762255524043     3.673345365702     1.673269569338     1.007825032230
         H           -0.768666142643     3.675153366102    -1.678960990062     1.007825032230
         H            2.085877825757    -1.639293458298     2.842158330938     1.007825032230
         H           -0.766683483643    -3.290550629198     2.342813782438     1.007825032230
         H           -0.763314068643    -0.385612253898     4.018934622038     1.007825032230

  Charge       = 0
  Multiplicity = 2
  Basis Set: ANONYMOUSD3EA048D
    Blend: 6-31G_2DFP_
  Basis Set: (ANONYMOUSD3EA048D AUX)
    Blend: DEF2-UNIVERSAL-JKFIT

    Orbital Energies [Eh]
    ---------------------

    Alpha Occupied:

       1A    -10.179568     2A    -10.166672     3A    -10.166665
       4A    -10.166622     5A     -0.798816     6A     -0.686550
       7A     -0.686429     8A     -0.530776     9A     -0.441723
      10A     -0.435339    11A     -0.434963    12A     -0.382696
      13A     -0.382651    14A     -0.363493    15A     -0.338348
      16A     -0.338023    17A     -0.168636

    Alpha Virtual:

      18A      0.076041    19A      0.134077    20A      0.134308
      21A      0.142624    22A      0.143037    23A      0.154945
      24A      0.178860    25A      0.179047    26A      0.204641
      27A      0.215149    28A      0.276396    29A      0.276616
      30A      0.398957    31A      0.399446    32A      0.403136
      33A      0.423659    34A      0.423990    35A      0.457176
      36A      0.495566    37A      0.495671    38A      0.512498
      39A      0.514381    40A      0.579433    41A      0.579560
      42A      0.592035    43A      0.592320    44A      0.603034
      45A      0.625124    46A      0.632124    47A      0.636812
      48A      0.637371    49A      0.663680    50A      0.664092
      51A      0.684122    52A      0.684511    53A      0.734788
      54A      0.825001    55A      0.825502    56A      0.854917
      57A      0.915542    58A      0.915968    59A      0.944018
      60A      0.945465    61A      0.962168    62A      0.962345
      63A      1.004586    64A      1.128729    65A      1.129286
      66A      1.142571    67A      1.163974    68A      1.164096
      69A      1.224230    70A      1.275152    71A      1.275637
      72A      1.279870    73A      1.324473    74A      1.324899
      75A      1.356161    76A      1.367586    77A      1.368184
      78A      1.393955    79A      1.403730    80A      1.403785
      81A      1.416798    82A      1.418180    83A      1.429310
      84A      1.492720    85A      1.499652    86A      1.543549
      87A      1.543591    88A      1.575398    89A      1.575811
      90A      1.669771    91A      1.739329    92A      1.740751
      93A      1.769843    94A      1.831795    95A      1.833365
      96A      1.973143    97A      2.019251    98A      2.020309
      99A      2.021381   100A      2.056612   101A      2.057696
     102A      2.738895   103A      2.739263   104A      2.792077
     105A      2.814156   106A      2.890922   107A      2.891249
     108A      2.896453   109A      2.929668   110A      2.929700
     111A      2.959196   112A      2.964035   113A      2.964147
     114A      3.033968   115A      3.071671   116A      3.072766
     117A      3.086020   118A      3.169211   119A      3.170052
     120A      3.182488   121A      3.285657   122A      3.285958
     123A      3.327231   124A      3.327964   125A      3.374237
     126A      3.491677   127A      3.492207   128A      3.514790
     129A      3.527649   130A      3.567893   131A      3.568785
     132A      3.577259   133A      3.665881   134A      3.666841
     135A      3.681616   136A      3.695371   137A      3.695825
     138A      3.781159   139A      3.781393   140A      3.789810
     141A      3.913727   142A      3.914890   143A      4.036291
     144A      4.113576   145A      4.114744   146A      4.148499
     147A      4.149222   148A      4.174553   149A      4.204084
     150A      4.204598   151A      4.206173   152A      4.212562
     153A      4.316857   154A      4.318166   155A      4.361494
     156A      4.425992   157A      4.427068   158A      4.445886
     159A      4.518796   160A      4.520890   161A      4.581826
     162A      4.581850   163A      4.624905   164A      4.714218
     165A      4.780056   166A      4.782029   167A      4.840851
     168A      4.965931   169A      5.004205   170A      5.004946
     171A      5.228612   172A      5.248181   173A      5.248675
     174A      5.356892   175A      5.359391   176A      5.485177

    Beta Occupied:

       1A    -10.167428     2A    -10.167420     3A    -10.167393
       4A    -10.165773     5A     -0.782119     6A     -0.684335
       7A     -0.684210     8A     -0.511848     9A     -0.431692
      10A     -0.431315    11A     -0.422321    12A     -0.376740
      13A     -0.376703    14A     -0.362466    15A     -0.333472
      16A     -0.333155

    Beta Virtual:

      17A     -0.025712    18A      0.077061    19A      0.134938
      20A      0.135216    21A      0.144496    22A      0.144963
      23A      0.163448    24A      0.182558    25A      0.182744
      26A      0.215386    27A      0.219843    28A      0.282676
      29A      0.282894    30A      0.400155    31A      0.400653
      32A      0.419485    33A      0.426461    34A      0.426791
      35A      0.469439    36A      0.497835    37A      0.497950
      38A      0.514248    39A      0.556648    40A      0.584993
      41A      0.585115    42A      0.598128    43A      0.598461
      44A      0.610501    45A      0.628563    46A      0.632290
      47A      0.640190    48A      0.640708    49A      0.667217
      50A      0.667598    51A      0.686861    52A      0.687202
      53A      0.757132    54A      0.830199    55A      0.830676
      56A      0.856307    57A      0.923547    58A      0.923932
      59A      0.947304    60A      0.952853    61A      0.967482
      62A      0.967694    63A      1.009751    64A      1.132761
      65A      1.133310    66A      1.155963    67A      1.169053
      68A      1.169166    69A      1.233340    70A      1.280768
      71A      1.281288    72A      1.285559    73A      1.329463
      74A      1.329884    75A      1.365608    76A      1.372884
      77A      1.373352    78A      1.395023    79A      1.407148
      80A      1.407248    81A      1.421948    82A      1.423232
      83A      1.429612    84A      1.493768    85A      1.510160
      86A      1.547875    87A      1.547971    88A      1.583336
      89A      1.583747    90A      1.674625    91A      1.745082
      92A      1.746532    93A      1.780645    94A      1.835664
      95A      1.837242    96A      1.974007    97A      2.026007
      98A      2.027125    99A      2.042068   100A      2.063345
     101A      2.064452   102A      2.747123   103A      2.747515
     104A      2.814573   105A      2.817193   106A      2.903331
     107A      2.903748   108A      2.926225   109A      2.932306
     110A      2.932372   111A      2.960287   112A      2.968625
     113A      2.968750   114A      3.041990   115A      3.081615
     116A      3.082702   117A      3.087969   118A      3.184885
     119A      3.185657   120A      3.190119   121A      3.290620
     122A      3.290944   123A      3.330927   124A      3.331728
     125A      3.382040   126A      3.494412   127A      3.494920
     128A      3.513145   129A      3.530646   130A      3.577141
     131A      3.581160   132A      3.582201   133A      3.670650
     134A      3.671364   135A      3.694902   136A      3.726996
     137A      3.727098   138A      3.785695   139A      3.785995
     140A      3.818212   141A      3.923482   142A      3.924780
     143A      4.047114   144A      4.119901   145A      4.121491
     146A      4.155683   147A      4.156858   148A      4.188705
     149A      4.210547   150A      4.212035   151A      4.212159
     152A      4.217126   153A      4.324373   154A      4.325598
     155A      4.364835   156A      4.434333   157A      4.435367
     158A      4.448785   159A      4.526707   160A      4.528815
     161A      4.592424   162A      4.592491   163A      4.632078
     164A      4.724645   165A      4.787039   166A      4.788959
     167A      4.843766   168A      4.970748   169A      5.008286
     170A      5.009023   171A      5.234265   172A      5.249984
     173A      5.250570   174A      5.363435   175A      5.365913
     176A      5.487522

    Final Occupation by Irrep:
              A
    DOCC [    16 ]
    SOCC [     1 ]

  @DF-UKS Final Energy:  -157.81303054230435

   => Energetics <=

    Nuclear Repulsion Energy =            125.5761761632874425
    One-Electron Energy =                -459.1062877014030619
    Two-Electron Energy =                 196.0280354568263590
    DFT Exchange-Correlation Energy =     -20.3109544610150543
    Empirical Dispersion Energy =           0.0000000000000000
    VV10 Nonlocal Energy =                  0.0000000000000000
    Total Energy =                       -157.8130305423043467

  UHF NO Occupations:
  HONO-2 :   15  A 1.9995992
  HONO-1 :   16  A 1.9989874
  HONO-0 :   17  A 1.0000000
  LUNO+0 :   18  A 0.0010126
  LUNO+1 :   19  A 0.0004008
  LUNO+2 :   20  A 0.0001954
  LUNO+3 :   21  A 0.0001954

Computation Completed

Properties will be evaluated at   0.000000,   0.000000,   0.000000 [a0]

Properties computed using the SCF density matrix

  Nuclear Dipole Moment: [e a0]
     X:     0.8273      Y:    -0.0000      Z:    -0.0032

  Electronic Dipole Moment: [e a0]
     X:    -0.7503      Y:     0.0000      Z:     0.0049

  Dipole Moment: [e a0]
     X:     0.0770      Y:    -0.0000      Z:     0.0017     Total:     0.0771

  Dipole Moment: [D]
     X:     0.1958      Y:    -0.0000      Z:     0.0044     Total:     0.1959

*** tstop() called on n049 at Fri Nov  5 14:38:30 2021
Module time:
	user time   =     514.96 seconds =       8.58 minutes
	system time =      11.40 seconds =       0.19 minutes
	total time  =        133 seconds =       2.22 minutes
Total time:
	user time   =     514.96 seconds =       8.58 minutes
	system time =      11.40 seconds =       0.19 minutes
	total time  =        133 seconds =       2.22 minutes
Grab this energy -157.81303054230435
    Psi4 stopped on: Friday, 05 November 2021 02:38PM
    Psi4 wall time for execution: 0:02:12.54

*** Psi4 exiting successfully. Buy a developer a beer!
