                               Psi4 1.4a2.dev629

  ==> Input File <==

--------------------------------------------------------------------------
import os
memory 14 GB

molecule {
 C   -0.3233409616   -0.0019996340   -0.0004980249
 C    0.0598688336   -1.4014068645   -2.4256843498
 C    0.0611750201    2.8026059617   -0.0003828786
 C    0.0622545488   -1.4016581937    2.4253432444
 H    2.0906164130   -1.6457363647   -2.8433514679
 H   -0.7650183679   -0.3879657521   -4.0199237645
 H   -0.7687519404   -3.2914725986   -2.3553534056
 H    2.0865704696    3.2926904982   -0.0001816830
 H   -0.7673509439    3.6804947483    1.6775702138
 H   -0.7649544817    3.6795701395   -1.6769620369
 H    2.0834768453   -1.6463114631    2.8440053001
 H   -0.7642487928   -3.2956373530    2.3523233762
 H   -0.7629045188   -0.3831974377    4.0230954767
units bohr
0 2
}

basis {

assign 6-31g_2dfp_

[ 6-31g_2dfp_ ]

spherical

!----------------------------------------------------------------------
! Basis Set Exchange
! Version v0.8.13
! https://www.basissetexchange.org
!----------------------------------------------------------------------
!   Basis set: 6-31G(2df,p)
! Description: 6-31G(2df,p)
!        Role: orbital
!     Version: 0  (Data from the original Basis Set Exchange)
!----------------------------------------------------------------------

****
H     0
S    3   1.00
     18.7311370              0.03349460
      2.8253937              0.23472695
      0.6401217              0.81375733
S    1   1.00
      0.1612778              1.00000000
P    1   1.00
      1.5000000              1.0000000
P    1   1.00
      0.3750000              1.0000000
****
B     0
S    6   1.00
   2068.8823000              0.0018663
    310.6495700              0.0142515
     70.6830330              0.0695516
     19.8610800              0.2325729
      6.2993048              0.4670787
      2.1270270              0.3634314
SP   3   1.00
      4.7279710             -0.1303938              0.0745976
      1.1903377             -0.1307889              0.3078467
      0.3594117              1.1309444              0.7434568
SP   1   1.00
      0.1267512              1.0000000              1.0000000
D    1   1.00
      0.8020000              1.0000000
D    1   1.00
      0.2005000              1.0000000
F    1   1.00
      0.5000000              1.0000000
****
C     0
S    6   1.00
   3047.5249000              0.0018347
    457.3695100              0.0140373
    103.9486900              0.0688426
     29.2101550              0.2321844
      9.2866630              0.4679413
      3.1639270              0.3623120
SP   3   1.00
      7.8682724             -0.1193324              0.0689991
      1.8812885             -0.1608542              0.3164240
      0.5442493              1.1434564              0.7443083
SP   1   1.00
      0.1687144              1.0000000              1.0000000
D    1   1.00
      1.2520000              1.0000000
D    1   1.00
      0.3130000              1.0000000
F    1   1.00
      0.8000000              1.0000000
****
N     0
S    6   1.00
   4173.5110000              0.0018348
    627.4579000              0.0139950
    142.9021000              0.0685870
     40.2343300              0.2322410
     12.8202100              0.4690700
      4.3904370              0.3604550
SP   3   1.00
     11.6263580             -0.1149610              0.0675800
      2.7162800             -0.1691180              0.3239070
      0.7722180              1.1458520              0.7408950
SP   1   1.00
      0.2120313              1.0000000              1.0000000
D    1   1.00
      1.8260000              1.0000000
D    1   1.00
      0.4565000              1.0000000
F    1   1.00
      1.0000000              1.0000000
****
O     0
S    6   1.00
   5484.6717000              0.0018311
    825.2349500              0.0139501
    188.0469600              0.0684451
     52.9645000              0.2327143
     16.8975700              0.4701930
      5.7996353              0.3585209
SP   3   1.00
     15.5396160             -0.1107775              0.0708743
      3.5999336             -0.1480263              0.3397528
      1.0137618              1.1307670              0.7271586
SP   1   1.00
      0.2700058              1.0000000              1.0000000
D    1   1.00
      2.5840000              1.0000000
D    1   1.00
      0.6460000              1.0000000
F    1   1.00
      1.4000000              1.0000000
****
F     0
S    6   1.00
   7001.7130900              0.0018196169
   1051.3660900              0.0139160796
    239.2856900              0.0684053245
     67.3974453              0.233185760
     21.5199573              0.471267439
      7.40310130             0.356618546
SP   3   1.00
     20.8479528             -0.108506975            0.0716287243
      4.80830834            -0.146451658            0.3459121030
      1.34406986             1.128688580            0.7224699570
SP   1   1.00
      0.358151393            1.0000000              1.0000000
D    1   1.00
      3.5000000              1.0000000
D    1   1.00
      0.8750000              1.0000000
F    1   1.00
      1.8500000              1.0000000
****
Al     0
S    6   1.00
  13983.1000000              0.00194267
   2098.7500000              0.0148599
    477.7050000              0.0728494
    134.3600000              0.2468300
     42.8709000              0.4872580
     14.5189000              0.3234960
SP   6   1.00
    239.6680000             -0.00292619             0.00460285
     57.4419000             -0.0374080              0.0331990
     18.2859000             -0.1144870              0.1362820
      6.5991400              0.1156350              0.3304760
      2.4904900              0.6125950              0.4491460
      0.9445400              0.3937990              0.2657040
SP   3   1.00
      1.2779000             -0.2276060             -0.0175130
      0.3975900              0.00144583             0.2445330
      0.1600950              1.0927900              0.8049340
SP   1   1.00
      0.0556577              1.0000000              1.0000000
D    1   1.00
      0.6500000              1.0000000
D    1   1.00
      0.1625000              1.0000000
F    1   1.00
      0.2500000              1.0000000
****
Si     0
S    6   1.00
  16115.9000000              0.00195948
   2425.5800000              0.01492880
    553.8670000              0.07284780
    156.3400000              0.24613000
     50.0683000              0.48591400
     17.0178000              0.32500200
SP   6   1.00
    292.7180000             -0.00278094             0.00443826
     69.8731000             -0.03571460             0.03266790
     22.3363000             -0.11498500             0.13472100
      8.1503900              0.09356340             0.32867800
      3.1345800              0.60301700             0.44964000
      1.2254300              0.41895900             0.26137200
SP   3   1.00
      1.7273800             -0.24463000            -0.01779510
      0.5729220              0.00431572             0.25353900
      0.2221920              1.09818000             0.80066900
SP   1   1.00
      0.0778369              1.00000000             1.00000000
D    1   1.00
      0.9000000              1.0000000
D    1   1.00
      0.2250000              1.0000000
F    1   1.00
      0.3200000              1.0000000
****
P     0
S    6   1.00
  19413.3000000              0.0018516
   2909.4200000              0.0142062
    661.3640000              0.0699995
    185.7590000              0.2400790
     59.1943000              0.4847620
     20.0310000              0.3352000
SP   6   1.00
    339.4780000             -0.00278217             0.00456462
     81.0101000             -0.0360499              0.03369360
     25.8780000             -0.1166310              0.13975500
      9.4522100              0.0968328              0.33936200
      3.6656600              0.6144180              0.45092100
      1.4674600              0.4037980              0.23858600
SP   3   1.00
      2.1562300             -0.2529230             -0.01776530
      0.7489970              0.0328517              0.27405800
      0.2831450              1.0812500              0.78542100
SP   1   1.00
      0.0998317              1.0000000              1.00000000
D    1   1.00
      1.1000000              1.0000000
D    1   1.00
      0.2750000              1.0000000
F    1   1.00
      0.4500000              1.0000000
****
S     0
S    6   1.00
  21917.1000000              0.0018690
   3301.4900000              0.0142300
    754.1460000              0.0696960
    212.7110000              0.2384870
     67.9896000              0.4833070
     23.0515000              0.3380740
SP   6   1.00
    423.7350000             -0.0023767              0.0040610
    100.7100000             -0.0316930              0.0306810
     32.1599000             -0.1133170              0.1304520
     11.8079000              0.0560900              0.3272050
      4.6311000              0.5922550              0.4528510
      1.8702500              0.4550060              0.2560420
SP   3   1.00
      2.6158400             -0.2503740             -0.0145110
      0.9221670              0.0669570              0.3102630
      0.3412870              1.0545100              0.7544830
SP   1   1.00
      0.1171670              1.0000000              1.0000000
D    1   1.00
      1.3000000              1.0000000
D    1   1.00
      0.3250000              1.0000000
F    1   1.00
      0.5500000              1.0000000
****
Cl     0
S    6   1.00
  25180.1000000              0.0018330
   3780.3500000              0.0140340
    860.4740000              0.0690970
    242.1450000              0.2374520
     77.3349000              0.4830340
     26.2470000              0.3398560
SP   6   1.00
    491.7650000             -0.0022974              0.0039894
    116.9840000             -0.0307140              0.0303180
     37.4153000             -0.1125280              0.1298800
     13.7834000              0.0450160              0.3279510
      5.4521500              0.5893530              0.4535270
      2.2258800              0.4652060              0.2521540
SP   3   1.00
      3.1864900             -0.2518300             -0.0142990
      1.1442700              0.0615890              0.3235720
      0.4203770              1.0601800              0.7435070
SP   1   1.00
      0.1426570              1.0000000              1.0000000
D    1   1.00
      1.5000000              1.0000000
D    1   1.00
      0.3750000              1.0000000
F    1   1.00
      0.7000000              1.0000000
****
}

set {
reference uhf
freeze_core true
e_convergence 10
d_convergence 10
dft_spherical_points 1202
dft_radial_points 99
}

e = energy('b3lyp')

print_out('Grab this energy {0}'.format(e))
--------------------------------------------------------------------------

    Molecular point group: c1

    Geometry (in Bohr), charge = 0, multiplicity = 2:

       Center              X                  Y                   Z               Mass
    ------------   -----------------  -----------------  -----------------  -----------------
         C           -0.323340465780    -0.001525635433    -0.000262657184    12.000000000000
         C            0.059869329420    -1.400932865933    -2.425448982084    12.000000000000
         C            0.061175515920     2.803079960267    -0.000147510884    12.000000000000
         C            0.062255044620    -1.401184195133     2.425578612116    12.000000000000
         H            2.090616908820    -1.645262366133    -2.843116100184     1.007825032230
         H           -0.765017872080    -0.387491753533    -4.019688396784     1.007825032230
         H           -0.768751444580    -3.290998600033    -2.355118037884     1.007825032230
         H            2.086570965420     3.293164496767     0.000053684716     1.007825032230
         H           -0.767350448080     3.680968746867     1.677805581516     1.007825032230
         H           -0.764953985880     3.680044138067    -1.676726669184     1.007825032230
         H            2.083477341120    -1.645837464533     2.844240667816     1.007825032230
         H           -0.764248296980    -3.295163354433     2.352558743916     1.007825032230
         H           -0.762904022980    -0.382723439133     4.023330844416     1.007825032230

  Charge       = 0
  Multiplicity = 2
  Basis Set: ANONYMOUS6538E6F0
    Blend: 6-31G_2DFP_
  Basis Set: (ANONYMOUS6538E6F0 AUX)
    Blend: DEF2-UNIVERSAL-JKFIT

    Orbital Energies [Eh]
    ---------------------

    Alpha Occupied:

       1A    -10.180342     2A    -10.167199     3A    -10.166950
       4A    -10.166895     5A     -0.797767     6A     -0.686310
       7A     -0.686066     8A     -0.530778     9A     -0.441131
      10A     -0.434744    11A     -0.434593    12A     -0.382640
      13A     -0.382557    14A     -0.363612    15A     -0.338071
      16A     -0.337925    17A     -0.168961

    Alpha Virtual:

      18A      0.076071    19A      0.133984    20A      0.134324
      21A      0.142538    22A      0.142711    23A      0.154881
      24A      0.178684    25A      0.178874    26A      0.203549
      27A      0.214805    28A      0.275707    29A      0.276264
      30A      0.399169    31A      0.399280    32A      0.403352
      33A      0.423996    34A      0.424201    35A      0.456592
      36A      0.495232    37A      0.495544    38A      0.512160
      39A      0.513981    40A      0.578475    41A      0.579155
      42A      0.591307    43A      0.591947    44A      0.602586
      45A      0.624758    46A      0.631757    47A      0.636146
      48A      0.636376    49A      0.663044    50A      0.663791
      51A      0.683677    52A      0.684032    53A      0.734995
      54A      0.825187    55A      0.825617    56A      0.853921
      57A      0.914760    58A      0.915277    59A      0.944123
      60A      0.944609    61A      0.960594    62A      0.962005
      63A      1.003462    64A      1.127886    65A      1.128316
      66A      1.142213    67A      1.163124    68A      1.163438
      69A      1.223327    70A      1.274269    71A      1.274692
      72A      1.279366    73A      1.324314    74A      1.324400
      75A      1.355962    76A      1.365889    77A      1.366208
      78A      1.392452    79A      1.403503    80A      1.404618
      81A      1.416460    82A      1.417776    83A      1.427911
      84A      1.491490    85A      1.499075    86A      1.542305
      87A      1.543372    88A      1.574286    89A      1.574602
      90A      1.669826    91A      1.739010    92A      1.739790
      93A      1.768349    94A      1.830463    95A      1.832338
      96A      1.971714    97A      2.017990    98A      2.018613
      99A      2.019797   100A      2.051405   101A      2.053905
     102A      2.737992   103A      2.738975   104A      2.790930
     105A      2.811414   106A      2.889643   107A      2.890205
     108A      2.895014   109A      2.929473   110A      2.929524
     111A      2.958997   112A      2.964016   113A      2.964734
     114A      3.034017   115A      3.071141   116A      3.071415
     117A      3.084365   118A      3.168484   119A      3.169083
     120A      3.180599   121A      3.284989   122A      3.285642
     123A      3.326765   124A      3.327548   125A      3.375628
     126A      3.489927   127A      3.490362   128A      3.514024
     129A      3.525304   130A      3.568067   131A      3.568640
     132A      3.575255   133A      3.665641   134A      3.667086
     135A      3.679623   136A      3.693700   137A      3.694609
     138A      3.775567   139A      3.778044   140A      3.789160
     141A      3.911944   142A      3.912526   143A      4.034433
     144A      4.110021   145A      4.112671   146A      4.147017
     147A      4.149143   148A      4.173269   149A      4.201958
     150A      4.202708   151A      4.204084   152A      4.210936
     153A      4.314823   154A      4.317113   155A      4.359035
     156A      4.424052   157A      4.424883   158A      4.443445
     159A      4.516031   160A      4.517646   161A      4.577912
     162A      4.578588   163A      4.617553   164A      4.709455
     165A      4.773413   166A      4.775777   167A      4.836947
     168A      4.962864   169A      5.002131   170A      5.003767
     171A      5.228004   172A      5.244688   173A      5.248924
     174A      5.354097   175A      5.356971   176A      5.479384

    Beta Occupied:

       1A    -10.167958     2A    -10.167709     3A    -10.167657
       4A    -10.166519     5A     -0.781092     6A     -0.684105
       7A     -0.683876     8A     -0.511749     9A     -0.431107
      10A     -0.430985    11A     -0.421816    12A     -0.376737
      13A     -0.376629    14A     -0.362595    15A     -0.333187
      16A     -0.333055

    Beta Virtual:

      17A     -0.025743    18A      0.077080    19A      0.134886
      20A      0.135203    21A      0.144424    22A      0.144567
      23A      0.163338    24A      0.182344    25A      0.182557
      26A      0.215034    27A      0.218931    28A      0.282064
      29A      0.282603    30A      0.400347    31A      0.400448
      32A      0.419788    33A      0.426806    34A      0.427015
      35A      0.468499    36A      0.497487    37A      0.497812
      38A      0.513895    39A      0.556325    40A      0.584032
      41A      0.584698    42A      0.597488    43A      0.598130
      44A      0.610005    45A      0.628136    46A      0.631921
      47A      0.639421    48A      0.639662    49A      0.666641
      50A      0.667324    51A      0.686325    52A      0.686655
      53A      0.757518    54A      0.830334    55A      0.830806
      56A      0.855275    57A      0.922760    58A      0.923218
      59A      0.945961    60A      0.953533    61A      0.965949
      62A      0.967267    63A      1.008703    64A      1.131846
      65A      1.132414    66A      1.155589    67A      1.168195
      68A      1.168516    69A      1.232299    70A      1.279857
      71A      1.280295    72A      1.285122    73A      1.329303
      74A      1.329389    75A      1.365373    76A      1.371160
      77A      1.371424    78A      1.393513    79A      1.406916
      80A      1.408134    81A      1.421500    82A      1.422838
      83A      1.428180    84A      1.492539    85A      1.509519
      86A      1.546724    87A      1.547766    88A      1.582173
      89A      1.582461    90A      1.674672    91A      1.744766
      92A      1.745565    93A      1.779121    94A      1.834314
      95A      1.836199    96A      1.972575    97A      2.024975
      98A      2.025905    99A      2.039690   100A      2.058138
     101A      2.060608   102A      2.746344   103A      2.747296
     104A      2.811827   105A      2.816063   106A      2.902420
     107A      2.902859   108A      2.924664   109A      2.931938
     110A      2.932020   111A      2.960059   112A      2.968558
     113A      2.969287   114A      3.041950   115A      3.081010
     116A      3.081344   117A      3.086203   118A      3.184126
     119A      3.184932   120A      3.188291   121A      3.289773
     122A      3.290454   123A      3.330571   124A      3.331352
     125A      3.383445   126A      3.492697   127A      3.493050
     128A      3.512393   129A      3.528357   130A      3.574905
     131A      3.581396   132A      3.582185   133A      3.670367
     134A      3.671900   135A      3.692919   136A      3.725569
     137A      3.725961   138A      3.780141   139A      3.782527
     140A      3.817703   141A      3.921767   142A      3.922336
     143A      4.045319   144A      4.116949   145A      4.119375
     146A      4.154232   147A      4.156358   148A      4.187311
     149A      4.208126   150A      4.209474   151A      4.210999
     152A      4.215416   153A      4.322243   154A      4.324563
     155A      4.362403   156A      4.432294   157A      4.433070
     158A      4.446330   159A      4.523824   160A      4.525432
     161A      4.588510   162A      4.589188   163A      4.624751
     164A      4.719800   165A      4.780405   166A      4.782691
     167A      4.839866   168A      4.967659   169A      5.006184
     170A      5.007793   171A      5.233718   172A      5.246482
     173A      5.250700   174A      5.360557   175A      5.363471
     176A      5.481705

    Final Occupation by Irrep:
              A
    DOCC [    16 ]
    SOCC [     1 ]

  @DF-UKS Final Energy:  -157.81305842025475

   => Energetics <=

    Nuclear Repulsion Energy =            125.3946579610397407
    One-Electron Energy =                -458.7489471040682361
    Two-Electron Energy =                 195.8483769691397924
    DFT Exchange-Correlation Energy =     -20.3071462463660488
    Empirical Dispersion Energy =           0.0000000000000000
    VV10 Nonlocal Energy =                  0.0000000000000000
    Total Energy =                       -157.8130584202547482

  UHF NO Occupations:
  HONO-2 :   15  A 1.9996008
  HONO-1 :   16  A 1.9989804
  HONO-0 :   17  A 1.0000000
  LUNO+0 :   18  A 0.0010196
  LUNO+1 :   19  A 0.0003992
  LUNO+2 :   20  A 0.0001979
  LUNO+3 :   21  A 0.0001972

Computation Completed

Properties will be evaluated at   0.000000,   0.000000,   0.000000 [a0]

Properties computed using the SCF density matrix

  Nuclear Dipole Moment: [e a0]
     X:     0.8272      Y:     0.0033      Z:     0.0017

  Electronic Dipole Moment: [e a0]
     X:    -0.7493      Y:    -0.0033      Z:    -0.0023

  Dipole Moment: [e a0]
     X:     0.0779      Y:    -0.0000      Z:    -0.0006     Total:     0.0779

  Dipole Moment: [D]
     X:     0.1980      Y:    -0.0000      Z:    -0.0017     Total:     0.1980

*** tstop() called on n054 at Fri Nov  5 14:08:39 2021
Module time:
	user time   =     548.06 seconds =       9.13 minutes
	system time =      12.11 seconds =       0.20 minutes
	total time  =        141 seconds =       2.35 minutes
Total time:
	user time   =     548.06 seconds =       9.13 minutes
	system time =      12.11 seconds =       0.20 minutes
	total time  =        141 seconds =       2.35 minutes
Grab this energy -157.81305842025475
    Psi4 stopped on: Friday, 05 November 2021 02:08PM
    Psi4 wall time for execution: 0:02:20.96

*** Psi4 exiting successfully. Buy a developer a beer!
