                               Psi4 1.4a2.dev629

  ==> Input File <==

--------------------------------------------------------------------------
import os
memory 14 GB

molecule {
 C   -0.3230385869   -0.0002484568    0.0000000000
 C    0.0604467074   -1.3980757636   -2.4217827944
 C    0.0619923668    2.7961907501   -0.0000000000
 C    0.0604467074   -1.3980757636    2.4217827944
 H    2.0850199176   -1.6378897188   -2.8398961413
 H   -0.7668918586   -0.3873828598   -4.0223768593
 H   -0.7653886386   -3.2893644045   -2.3440851163
 H    2.0897444432    3.2876085510   -0.0000000000
 H   -0.7638391778    3.6709251678    1.6759991980
 H   -0.7638391778    3.6709251678   -1.6759991980
 H    2.0850199176   -1.6378897188    2.8398961413
 H   -0.7653886386   -3.2893644045    2.3440851163
 H   -0.7668918586   -0.3873828598    4.0223768593
units bohr
0 2
}

basis {

assign 6-31g_2dfp_

[ 6-31g_2dfp_ ]

spherical

!----------------------------------------------------------------------
! Basis Set Exchange
! Version v0.8.13
! https://www.basissetexchange.org
!----------------------------------------------------------------------
!   Basis set: 6-31G(2df,p)
! Description: 6-31G(2df,p)
!        Role: orbital
!     Version: 0  (Data from the original Basis Set Exchange)
!----------------------------------------------------------------------

****
H     0
S    3   1.00
     18.7311370              0.03349460
      2.8253937              0.23472695
      0.6401217              0.81375733
S    1   1.00
      0.1612778              1.00000000
P    1   1.00
      1.5000000              1.0000000
P    1   1.00
      0.3750000              1.0000000
****
B     0
S    6   1.00
   2068.8823000              0.0018663
    310.6495700              0.0142515
     70.6830330              0.0695516
     19.8610800              0.2325729
      6.2993048              0.4670787
      2.1270270              0.3634314
SP   3   1.00
      4.7279710             -0.1303938              0.0745976
      1.1903377             -0.1307889              0.3078467
      0.3594117              1.1309444              0.7434568
SP   1   1.00
      0.1267512              1.0000000              1.0000000
D    1   1.00
      0.8020000              1.0000000
D    1   1.00
      0.2005000              1.0000000
F    1   1.00
      0.5000000              1.0000000
****
C     0
S    6   1.00
   3047.5249000              0.0018347
    457.3695100              0.0140373
    103.9486900              0.0688426
     29.2101550              0.2321844
      9.2866630              0.4679413
      3.1639270              0.3623120
SP   3   1.00
      7.8682724             -0.1193324              0.0689991
      1.8812885             -0.1608542              0.3164240
      0.5442493              1.1434564              0.7443083
SP   1   1.00
      0.1687144              1.0000000              1.0000000
D    1   1.00
      1.2520000              1.0000000
D    1   1.00
      0.3130000              1.0000000
F    1   1.00
      0.8000000              1.0000000
****
N     0
S    6   1.00
   4173.5110000              0.0018348
    627.4579000              0.0139950
    142.9021000              0.0685870
     40.2343300              0.2322410
     12.8202100              0.4690700
      4.3904370              0.3604550
SP   3   1.00
     11.6263580             -0.1149610              0.0675800
      2.7162800             -0.1691180              0.3239070
      0.7722180              1.1458520              0.7408950
SP   1   1.00
      0.2120313              1.0000000              1.0000000
D    1   1.00
      1.8260000              1.0000000
D    1   1.00
      0.4565000              1.0000000
F    1   1.00
      1.0000000              1.0000000
****
O     0
S    6   1.00
   5484.6717000              0.0018311
    825.2349500              0.0139501
    188.0469600              0.0684451
     52.9645000              0.2327143
     16.8975700              0.4701930
      5.7996353              0.3585209
SP   3   1.00
     15.5396160             -0.1107775              0.0708743
      3.5999336             -0.1480263              0.3397528
      1.0137618              1.1307670              0.7271586
SP   1   1.00
      0.2700058              1.0000000              1.0000000
D    1   1.00
      2.5840000              1.0000000
D    1   1.00
      0.6460000              1.0000000
F    1   1.00
      1.4000000              1.0000000
****
F     0
S    6   1.00
   7001.7130900              0.0018196169
   1051.3660900              0.0139160796
    239.2856900              0.0684053245
     67.3974453              0.233185760
     21.5199573              0.471267439
      7.40310130             0.356618546
SP   3   1.00
     20.8479528             -0.108506975            0.0716287243
      4.80830834            -0.146451658            0.3459121030
      1.34406986             1.128688580            0.7224699570
SP   1   1.00
      0.358151393            1.0000000              1.0000000
D    1   1.00
      3.5000000              1.0000000
D    1   1.00
      0.8750000              1.0000000
F    1   1.00
      1.8500000              1.0000000
****
Al     0
S    6   1.00
  13983.1000000              0.00194267
   2098.7500000              0.0148599
    477.7050000              0.0728494
    134.3600000              0.2468300
     42.8709000              0.4872580
     14.5189000              0.3234960
SP   6   1.00
    239.6680000             -0.00292619             0.00460285
     57.4419000             -0.0374080              0.0331990
     18.2859000             -0.1144870              0.1362820
      6.5991400              0.1156350              0.3304760
      2.4904900              0.6125950              0.4491460
      0.9445400              0.3937990              0.2657040
SP   3   1.00
      1.2779000             -0.2276060             -0.0175130
      0.3975900              0.00144583             0.2445330
      0.1600950              1.0927900              0.8049340
SP   1   1.00
      0.0556577              1.0000000              1.0000000
D    1   1.00
      0.6500000              1.0000000
D    1   1.00
      0.1625000              1.0000000
F    1   1.00
      0.2500000              1.0000000
****
Si     0
S    6   1.00
  16115.9000000              0.00195948
   2425.5800000              0.01492880
    553.8670000              0.07284780
    156.3400000              0.24613000
     50.0683000              0.48591400
     17.0178000              0.32500200
SP   6   1.00
    292.7180000             -0.00278094             0.00443826
     69.8731000             -0.03571460             0.03266790
     22.3363000             -0.11498500             0.13472100
      8.1503900              0.09356340             0.32867800
      3.1345800              0.60301700             0.44964000
      1.2254300              0.41895900             0.26137200
SP   3   1.00
      1.7273800             -0.24463000            -0.01779510
      0.5729220              0.00431572             0.25353900
      0.2221920              1.09818000             0.80066900
SP   1   1.00
      0.0778369              1.00000000             1.00000000
D    1   1.00
      0.9000000              1.0000000
D    1   1.00
      0.2250000              1.0000000
F    1   1.00
      0.3200000              1.0000000
****
P     0
S    6   1.00
  19413.3000000              0.0018516
   2909.4200000              0.0142062
    661.3640000              0.0699995
    185.7590000              0.2400790
     59.1943000              0.4847620
     20.0310000              0.3352000
SP   6   1.00
    339.4780000             -0.00278217             0.00456462
     81.0101000             -0.0360499              0.03369360
     25.8780000             -0.1166310              0.13975500
      9.4522100              0.0968328              0.33936200
      3.6656600              0.6144180              0.45092100
      1.4674600              0.4037980              0.23858600
SP   3   1.00
      2.1562300             -0.2529230             -0.01776530
      0.7489970              0.0328517              0.27405800
      0.2831450              1.0812500              0.78542100
SP   1   1.00
      0.0998317              1.0000000              1.00000000
D    1   1.00
      1.1000000              1.0000000
D    1   1.00
      0.2750000              1.0000000
F    1   1.00
      0.4500000              1.0000000
****
S     0
S    6   1.00
  21917.1000000              0.0018690
   3301.4900000              0.0142300
    754.1460000              0.0696960
    212.7110000              0.2384870
     67.9896000              0.4833070
     23.0515000              0.3380740
SP   6   1.00
    423.7350000             -0.0023767              0.0040610
    100.7100000             -0.0316930              0.0306810
     32.1599000             -0.1133170              0.1304520
     11.8079000              0.0560900              0.3272050
      4.6311000              0.5922550              0.4528510
      1.8702500              0.4550060              0.2560420
SP   3   1.00
      2.6158400             -0.2503740             -0.0145110
      0.9221670              0.0669570              0.3102630
      0.3412870              1.0545100              0.7544830
SP   1   1.00
      0.1171670              1.0000000              1.0000000
D    1   1.00
      1.3000000              1.0000000
D    1   1.00
      0.3250000              1.0000000
F    1   1.00
      0.5500000              1.0000000
****
Cl     0
S    6   1.00
  25180.1000000              0.0018330
   3780.3500000              0.0140340
    860.4740000              0.0690970
    242.1450000              0.2374520
     77.3349000              0.4830340
     26.2470000              0.3398560
SP   6   1.00
    491.7650000             -0.0022974              0.0039894
    116.9840000             -0.0307140              0.0303180
     37.4153000             -0.1125280              0.1298800
     13.7834000              0.0450160              0.3279510
      5.4521500              0.5893530              0.4535270
      2.2258800              0.4652060              0.2521540
SP   3   1.00
      3.1864900             -0.2518300             -0.0142990
      1.1442700              0.0615890              0.3235720
      0.4203770              1.0601800              0.7435070
SP   1   1.00
      0.1426570              1.0000000              1.0000000
D    1   1.00
      1.5000000              1.0000000
D    1   1.00
      0.3750000              1.0000000
F    1   1.00
      0.7000000              1.0000000
****
}

set {
reference uhf
freeze_core true
e_convergence 10
d_convergence 10
dft_spherical_points 1202
dft_radial_points 99
}

e = energy('b3lyp')

print_out('Grab this energy {0}'.format(e))
--------------------------------------------------------------------------

    Molecular point group: cs

    Geometry (in Bohr), charge = 0, multiplicity = 2:

       Center              X                  Y                   Z               Mass
    ------------   -----------------  -----------------  -----------------  -----------------
         C           -0.323016856864    -0.000207727484     0.000000000000    12.000000000000
         C            0.060468437436    -1.398035034284    -2.421782794400    12.000000000000
         C            0.062014096836     2.796231479416     0.000000000000    12.000000000000
         C            0.060468437436    -1.398035034284     2.421782794400    12.000000000000
         H            2.085041647636    -1.637848989484    -2.839896141300     1.007825032230
         H           -0.766870128564    -0.387342130484    -4.022376859300     1.007825032230
         H           -0.765366908564    -3.289323675184    -2.344085116300     1.007825032230
         H            2.089766173236     3.287649280316     0.000000000000     1.007825032230
         H           -0.763817447764     3.670965897116     1.675999198000     1.007825032230
         H           -0.763817447764     3.670965897116    -1.675999198000     1.007825032230
         H            2.085041647636    -1.637848989484     2.839896141300     1.007825032230
         H           -0.765366908564    -3.289323675184     2.344085116300     1.007825032230
         H           -0.766870128564    -0.387342130484     4.022376859300     1.007825032230

  Charge       = 0
  Multiplicity = 2
  Basis Set: ANONYMOUS6043DAC9
    Blend: 6-31G_2DFP_
  Basis Set: (ANONYMOUS6043DAC9 AUX)
    Blend: DEF2-UNIVERSAL-JKFIT

    Orbital Energies [Eh]
    ---------------------

    Alpha Occupied:

       1Ap   -10.179568     1App  -10.166685     2Ap   -10.166665
       3Ap   -10.166609     4Ap    -0.798817     2App   -0.686518
       5Ap    -0.686460     6Ap    -0.530774     7Ap    -0.441722
       3App   -0.435239     8Ap    -0.435065     4App   -0.382898
       9Ap    -0.382448     5App   -0.363492     6App   -0.338340
      10Ap    -0.338033    11Ap    -0.168636

    Alpha Virtual:

      12Ap     0.076043    13Ap     0.134143     7App    0.134244
      14Ap     0.142626     8App    0.143037    15Ap     0.154943
      16Ap     0.178815     9App    0.179089    17Ap     0.204644
      10App    0.215148    18Ap     0.276486    11App    0.276525
      12App    0.399077    19Ap     0.399328    20Ap     0.403135
      13App    0.423727    21Ap     0.423924    22Ap     0.457177
      14App    0.495608    23Ap     0.495626    15App    0.512498
      24Ap     0.514383    16App    0.579380    25Ap     0.579601
      26Ap     0.591909    17App    0.592434    27Ap     0.603064
      28Ap     0.625169    18App    0.632107    29Ap     0.636852
      19App    0.637305    20App    0.663845    30Ap     0.663929
      21App    0.684194    31Ap     0.684421    32Ap     0.734787
      33Ap     0.825192    22App    0.825310    23App    0.854917
      34Ap     0.915436    24App    0.916071    35Ap     0.944024
      25App    0.945450    36Ap     0.962186    26App    0.962346
      37Ap     1.004582    27App    1.128607    38Ap     1.129401
      39Ap     1.142555    28App    1.163885    40Ap     1.164199
      41Ap     1.224232    29App    1.275296    42Ap     1.275481
      43Ap     1.279885    44Ap     1.324624    30App    1.324753
      45Ap     1.356149    31App    1.367885    46Ap     1.367898
      32App    1.393959    47Ap     1.403289    33App    1.404221
      48Ap     1.417139    34App    1.417821    35App    1.429333
      36App    1.492723    49Ap     1.499641    37App    1.543544
      50Ap     1.543596    51Ap     1.575108    38App    1.576110
      52Ap     1.669769    53Ap     1.739926    39App    1.740148
      54Ap     1.769850    40App    1.832157    55Ap     1.833027
      41App    1.973110    56Ap     2.020084    42App    2.020260
      57Ap     2.020614    58Ap     2.056692    43App    2.057600
      59Ap     2.739076    44App    2.739088    60Ap     2.792080
      45App    2.814158    46App    2.890926    61Ap     2.891217
      62Ap     2.896487    63Ap     2.929374    47App    2.929989
      48App    2.959227    49App    2.963905    64Ap     2.964243
      65Ap     3.033961    66Ap     3.071609    50App    3.072890
      51App    3.085939    52App    3.169413    67Ap     3.169857
      68Ap     3.182479    53App    3.285699    69Ap     3.285924
      54App    3.326736    70Ap     3.328466    71Ap     3.374227
      72Ap     3.490887    55App    3.492986    56App    3.514780
      73Ap     3.527656    57App    3.568136    74Ap     3.568431
      58App    3.577395    75Ap     3.665871    59App    3.666795
      76Ap     3.681634    77Ap     3.694929    60App    3.696229
      61App    3.781224    78Ap     3.781334    79Ap     3.789856
      62App    3.914192    80Ap     3.914438    81Ap     4.036296
      82Ap     4.114071    63App    4.114311    83Ap     4.148828
      64App    4.148950    84Ap     4.174461    85Ap     4.203913
      65App    4.205073    86Ap     4.205974    66App    4.212412
      87Ap     4.317300    67App    4.317713    68App    4.361494
      88Ap     4.426436    69App    4.426644    70App    4.445847
      89Ap     4.519190    71App    4.520468    72App    4.581841
      90Ap     4.581852    91Ap     4.624938    92Ap     4.714188
      93Ap     4.780469    73App    4.781605    74App    4.840855
      94Ap     4.965932    95Ap     5.004024    75App    5.005117
      96Ap     5.229086    97Ap     5.247677    76App    5.248780
      77App    5.358080    98Ap     5.358182    78App    5.485111

    Beta Occupied:

       1App  -10.167438     1Ap   -10.167424     2Ap   -10.167379
       3Ap   -10.165773     4Ap    -0.782119     2App   -0.684296
       5Ap    -0.684247     6Ap    -0.511845     3App   -0.431603
       7Ap    -0.431406     8Ap    -0.422324     4App   -0.376952
       9Ap    -0.376489     5App   -0.362464     6App   -0.333456
      10Ap    -0.333172

    Beta Virtual:

      11Ap    -0.025712    12Ap     0.077064    13Ap     0.135035
       7App    0.135121    14Ap     0.144548     8App    0.144913
      15Ap     0.163447    16Ap     0.182509     9App    0.182792
      10App    0.215385    17Ap     0.219845    18Ap     0.282760
      11App    0.282808    12App    0.400282    19Ap     0.400525
      20Ap     0.419486    13App    0.426527    21Ap     0.426727
      22Ap     0.469440    14App    0.497881    23Ap     0.497903
      15App    0.514249    24Ap     0.556649    16App    0.584931
      25Ap     0.585168    26Ap     0.598022    17App    0.598558
      27Ap     0.610525    28Ap     0.628606    18App    0.632280
      29Ap     0.640216    19App    0.640652    20App    0.667358
      30Ap     0.667459    21App    0.686926    31Ap     0.687120
      32Ap     0.757131    33Ap     0.830381    22App    0.830493
      23App    0.856307    34Ap     0.923448    24App    0.924029
      25App    0.947291    35Ap     0.952858    36Ap     0.967531
      26App    0.967662    37Ap     1.009747    27App    1.132679
      38Ap     1.133383    39Ap     1.155940    28App    1.168925
      40Ap     1.169314    41Ap     1.233343    29App    1.280945
      42Ap     1.281104    43Ap     1.285572    44Ap     1.329606
      30App    1.329747    45Ap     1.365585    31App    1.373100
      46Ap     1.373161    32App    1.395026    47Ap     1.406719
      33App    1.407670    48Ap     1.422248    34App    1.422903
      35App    1.429647    36App    1.493770    49Ap     1.510147
      37App    1.547802    50Ap     1.548050    51Ap     1.582959
      38App    1.584131    52Ap     1.674622    53Ap     1.745697
      39App    1.745910    54Ap     1.780653    40App    1.836034
      55Ap     1.836896    41App    1.973974    56Ap     2.026522
      42App    2.026655    57Ap     2.042050    58Ap     2.063421
      43App    2.064351    59Ap     2.747304    44App    2.747339
      45App    2.814575    60Ap     2.817196    46App    2.903359
      61Ap     2.903718    62Ap     2.926227    63Ap     2.932051
      47App    2.932629    48App    2.960307    49App    2.968503
      64Ap     2.968848    65Ap     3.041983    66Ap     3.081561
      50App    3.082931    51App    3.087773    52App    3.185054
      67Ap     3.185503    68Ap     3.190100    53App    3.290637
      69Ap     3.290936    54App    3.330474    70Ap     3.332187
      71Ap     3.382031    72Ap     3.493632    55App    3.495690
      56App    3.513136    73Ap     3.530652    57App    3.576995
      74Ap     3.581562    58App    3.581967    75Ap     3.670542
      59App    3.671422    76Ap     3.694903    77Ap     3.726628
      60App    3.727450    61App    3.785814    78Ap     3.785885
      79Ap     3.818246    62App    3.924008    80Ap     3.924266
      81Ap     4.047119    82Ap     4.120636    63App    4.120814
      83Ap     4.156149    64App    4.156436    84Ap     4.188635
      65App    4.211011    85Ap     4.211313    86Ap     4.212536
      66App    4.216958    87Ap     4.324802    67App    4.325156
      68App    4.364834    88Ap     4.434746    69App    4.434977
      70App    4.448743    89Ap     4.527117    71App    4.528378
      72App    4.592445    90Ap     4.592488    91Ap     4.632111
      92Ap     4.724615    93Ap     4.787396    73App    4.788590
      74App    4.843770    94Ap     4.970749    95Ap     5.008118
      75App    5.009180    96Ap     5.234841    97Ap     5.249474
      76App    5.250574    77App    5.364622    98Ap     5.364710
      78App    5.487454

    Final Occupation by Irrep:
             Ap   App
    DOCC [    10,    6 ]
    SOCC [     1,    0 ]

  @DF-UKS Final Energy:  -157.81303703537606

   => Energetics <=

    Nuclear Repulsion Energy =            125.5761478965936249
    One-Electron Energy =                -459.1062498592521024
    Two-Electron Energy =                 196.0280165400409373
    DFT Exchange-Correlation Energy =     -20.3109516127585010
    Empirical Dispersion Energy =           0.0000000000000000
    VV10 Nonlocal Energy =                  0.0000000000000000
    Total Energy =                       -157.8130370353760554

  UHF NO Occupations:
  HONO-2 :    9 Ap 1.9995992
  HONO-1 :   10 Ap 1.9989874
  HONO-0 :   11 Ap 1.0000000
  LUNO+0 :   12 Ap 0.0010126
  LUNO+1 :   13 Ap 0.0004008
  LUNO+2 :   14 Ap 0.0001955
  LUNO+3 :    7App 0.0001952

Computation Completed

Properties will be evaluated at   0.000000,   0.000000,   0.000000 [a0]

Properties computed using the SCF density matrix

  Nuclear Dipole Moment: [e a0]
     X:     0.8273      Y:     0.0003      Z:     0.0000

  Electronic Dipole Moment: [e a0]
     X:    -0.7503      Y:    -0.0010      Z:     0.0000

  Dipole Moment: [e a0]
     X:     0.0770      Y:    -0.0008      Z:     0.0000     Total:     0.0770

  Dipole Moment: [D]
     X:     0.1958      Y:    -0.0020      Z:     0.0000     Total:     0.1958

*** tstop() called on n082 at Fri Nov  5 15:24:23 2021
Module time:
	user time   =     493.96 seconds =       8.23 minutes
	system time =       4.47 seconds =       0.07 minutes
	total time  =        126 seconds =       2.10 minutes
Total time:
	user time   =     493.96 seconds =       8.23 minutes
	system time =       4.47 seconds =       0.07 minutes
	total time  =        126 seconds =       2.10 minutes
Grab this energy -157.81303703537606
    Psi4 stopped on: Friday, 05 November 2021 03:24PM
    Psi4 wall time for execution: 0:02:05.41

*** Psi4 exiting successfully. Buy a developer a beer!
