                               Psi4 1.4a2.dev629

  ==> Input File <==

--------------------------------------------------------------------------
import os
memory 14 GB

molecule {
 C   -0.3215609943   -0.0002273768   -0.0000000000
 C    0.0616167609   -1.4005443164   -2.4249665410
 C    0.0617419047    2.8037711216   -0.0000000000
 C    0.0616167609   -1.4005443164    2.4249665410
 H    2.0865588888   -1.6471449836   -2.8530414252
 H   -0.7656970738   -0.3862820323   -4.0232466694
 H   -0.7659646529   -3.2909062418   -2.3462851204
 H    2.0865465923    3.2934550324    0.0000000000
 H   -0.7661816126    3.6763660285    1.6772093999
 H   -0.7661816126    3.6763660285   -1.6772093999
 H    2.0865588888   -1.6471449836    2.8530414252
 H   -0.7659646529   -3.2909062418    2.3462851204
 H   -0.7656970738   -0.3862820323    4.0232466694
units bohr
0 2
}

basis {

assign 6-31g_2dfp_

[ 6-31g_2dfp_ ]

spherical

!----------------------------------------------------------------------
! Basis Set Exchange
! Version v0.8.13
! https://www.basissetexchange.org
!----------------------------------------------------------------------
!   Basis set: 6-31G(2df,p)
! Description: 6-31G(2df,p)
!        Role: orbital
!     Version: 0  (Data from the original Basis Set Exchange)
!----------------------------------------------------------------------

****
H     0
S    3   1.00
     18.7311370              0.03349460
      2.8253937              0.23472695
      0.6401217              0.81375733
S    1   1.00
      0.1612778              1.00000000
P    1   1.00
      1.5000000              1.0000000
P    1   1.00
      0.3750000              1.0000000
****
B     0
S    6   1.00
   2068.8823000              0.0018663
    310.6495700              0.0142515
     70.6830330              0.0695516
     19.8610800              0.2325729
      6.2993048              0.4670787
      2.1270270              0.3634314
SP   3   1.00
      4.7279710             -0.1303938              0.0745976
      1.1903377             -0.1307889              0.3078467
      0.3594117              1.1309444              0.7434568
SP   1   1.00
      0.1267512              1.0000000              1.0000000
D    1   1.00
      0.8020000              1.0000000
D    1   1.00
      0.2005000              1.0000000
F    1   1.00
      0.5000000              1.0000000
****
C     0
S    6   1.00
   3047.5249000              0.0018347
    457.3695100              0.0140373
    103.9486900              0.0688426
     29.2101550              0.2321844
      9.2866630              0.4679413
      3.1639270              0.3623120
SP   3   1.00
      7.8682724             -0.1193324              0.0689991
      1.8812885             -0.1608542              0.3164240
      0.5442493              1.1434564              0.7443083
SP   1   1.00
      0.1687144              1.0000000              1.0000000
D    1   1.00
      1.2520000              1.0000000
D    1   1.00
      0.3130000              1.0000000
F    1   1.00
      0.8000000              1.0000000
****
N     0
S    6   1.00
   4173.5110000              0.0018348
    627.4579000              0.0139950
    142.9021000              0.0685870
     40.2343300              0.2322410
     12.8202100              0.4690700
      4.3904370              0.3604550
SP   3   1.00
     11.6263580             -0.1149610              0.0675800
      2.7162800             -0.1691180              0.3239070
      0.7722180              1.1458520              0.7408950
SP   1   1.00
      0.2120313              1.0000000              1.0000000
D    1   1.00
      1.8260000              1.0000000
D    1   1.00
      0.4565000              1.0000000
F    1   1.00
      1.0000000              1.0000000
****
O     0
S    6   1.00
   5484.6717000              0.0018311
    825.2349500              0.0139501
    188.0469600              0.0684451
     52.9645000              0.2327143
     16.8975700              0.4701930
      5.7996353              0.3585209
SP   3   1.00
     15.5396160             -0.1107775              0.0708743
      3.5999336             -0.1480263              0.3397528
      1.0137618              1.1307670              0.7271586
SP   1   1.00
      0.2700058              1.0000000              1.0000000
D    1   1.00
      2.5840000              1.0000000
D    1   1.00
      0.6460000              1.0000000
F    1   1.00
      1.4000000              1.0000000
****
F     0
S    6   1.00
   7001.7130900              0.0018196169
   1051.3660900              0.0139160796
    239.2856900              0.0684053245
     67.3974453              0.233185760
     21.5199573              0.471267439
      7.40310130             0.356618546
SP   3   1.00
     20.8479528             -0.108506975            0.0716287243
      4.80830834            -0.146451658            0.3459121030
      1.34406986             1.128688580            0.7224699570
SP   1   1.00
      0.358151393            1.0000000              1.0000000
D    1   1.00
      3.5000000              1.0000000
D    1   1.00
      0.8750000              1.0000000
F    1   1.00
      1.8500000              1.0000000
****
Al     0
S    6   1.00
  13983.1000000              0.00194267
   2098.7500000              0.0148599
    477.7050000              0.0728494
    134.3600000              0.2468300
     42.8709000              0.4872580
     14.5189000              0.3234960
SP   6   1.00
    239.6680000             -0.00292619             0.00460285
     57.4419000             -0.0374080              0.0331990
     18.2859000             -0.1144870              0.1362820
      6.5991400              0.1156350              0.3304760
      2.4904900              0.6125950              0.4491460
      0.9445400              0.3937990              0.2657040
SP   3   1.00
      1.2779000             -0.2276060             -0.0175130
      0.3975900              0.00144583             0.2445330
      0.1600950              1.0927900              0.8049340
SP   1   1.00
      0.0556577              1.0000000              1.0000000
D    1   1.00
      0.6500000              1.0000000
D    1   1.00
      0.1625000              1.0000000
F    1   1.00
      0.2500000              1.0000000
****
Si     0
S    6   1.00
  16115.9000000              0.00195948
   2425.5800000              0.01492880
    553.8670000              0.07284780
    156.3400000              0.24613000
     50.0683000              0.48591400
     17.0178000              0.32500200
SP   6   1.00
    292.7180000             -0.00278094             0.00443826
     69.8731000             -0.03571460             0.03266790
     22.3363000             -0.11498500             0.13472100
      8.1503900              0.09356340             0.32867800
      3.1345800              0.60301700             0.44964000
      1.2254300              0.41895900             0.26137200
SP   3   1.00
      1.7273800             -0.24463000            -0.01779510
      0.5729220              0.00431572             0.25353900
      0.2221920              1.09818000             0.80066900
SP   1   1.00
      0.0778369              1.00000000             1.00000000
D    1   1.00
      0.9000000              1.0000000
D    1   1.00
      0.2250000              1.0000000
F    1   1.00
      0.3200000              1.0000000
****
P     0
S    6   1.00
  19413.3000000              0.0018516
   2909.4200000              0.0142062
    661.3640000              0.0699995
    185.7590000              0.2400790
     59.1943000              0.4847620
     20.0310000              0.3352000
SP   6   1.00
    339.4780000             -0.00278217             0.00456462
     81.0101000             -0.0360499              0.03369360
     25.8780000             -0.1166310              0.13975500
      9.4522100              0.0968328              0.33936200
      3.6656600              0.6144180              0.45092100
      1.4674600              0.4037980              0.23858600
SP   3   1.00
      2.1562300             -0.2529230             -0.01776530
      0.7489970              0.0328517              0.27405800
      0.2831450              1.0812500              0.78542100
SP   1   1.00
      0.0998317              1.0000000              1.00000000
D    1   1.00
      1.1000000              1.0000000
D    1   1.00
      0.2750000              1.0000000
F    1   1.00
      0.4500000              1.0000000
****
S     0
S    6   1.00
  21917.1000000              0.0018690
   3301.4900000              0.0142300
    754.1460000              0.0696960
    212.7110000              0.2384870
     67.9896000              0.4833070
     23.0515000              0.3380740
SP   6   1.00
    423.7350000             -0.0023767              0.0040610
    100.7100000             -0.0316930              0.0306810
     32.1599000             -0.1133170              0.1304520
     11.8079000              0.0560900              0.3272050
      4.6311000              0.5922550              0.4528510
      1.8702500              0.4550060              0.2560420
SP   3   1.00
      2.6158400             -0.2503740             -0.0145110
      0.9221670              0.0669570              0.3102630
      0.3412870              1.0545100              0.7544830
SP   1   1.00
      0.1171670              1.0000000              1.0000000
D    1   1.00
      1.3000000              1.0000000
D    1   1.00
      0.3250000              1.0000000
F    1   1.00
      0.5500000              1.0000000
****
Cl     0
S    6   1.00
  25180.1000000              0.0018330
   3780.3500000              0.0140340
    860.4740000              0.0690970
    242.1450000              0.2374520
     77.3349000              0.4830340
     26.2470000              0.3398560
SP   6   1.00
    491.7650000             -0.0022974              0.0039894
    116.9840000             -0.0307140              0.0303180
     37.4153000             -0.1125280              0.1298800
     13.7834000              0.0450160              0.3279510
      5.4521500              0.5893530              0.4535270
      2.2258800              0.4652060              0.2521540
SP   3   1.00
      3.1864900             -0.2518300             -0.0142990
      1.1442700              0.0615890              0.3235720
      0.4203770              1.0601800              0.7435070
SP   1   1.00
      0.1426570              1.0000000              1.0000000
D    1   1.00
      1.5000000              1.0000000
D    1   1.00
      0.3750000              1.0000000
F    1   1.00
      0.7000000              1.0000000
****
}

set {
reference uhf
freeze_core true
e_convergence 10
d_convergence 10
dft_spherical_points 1202
dft_radial_points 99
}

e = energy('b3lyp')

print_out('Grab this energy {0}'.format(e))
--------------------------------------------------------------------------

    Molecular point group: cs

    Geometry (in Bohr), charge = 0, multiplicity = 2:

       Center              X                  Y                   Z               Mass
    ------------   -----------------  -----------------  -----------------  -----------------
         C           -0.322226339907    -0.000699819686     0.000000000000    12.000000000000
         C            0.060951415293    -1.401016759286    -2.424966541000    12.000000000000
         C            0.061076559093     2.803298678714     0.000000000000    12.000000000000
         C            0.060951415293    -1.401016759286     2.424966541000    12.000000000000
         H            2.085893543193    -1.647617426486    -2.853041425200     1.007825032230
         H           -0.766362419407    -0.386754475186    -4.023246669400     1.007825032230
         H           -0.766629998507    -3.291378684686    -2.346285120400     1.007825032230
         H            2.085881246693     3.292982589514     0.000000000000     1.007825032230
         H           -0.766846958207     3.675893585614     1.677209399900     1.007825032230
         H           -0.766846958207     3.675893585614    -1.677209399900     1.007825032230
         H            2.085893543193    -1.647617426486     2.853041425200     1.007825032230
         H           -0.766629998507    -3.291378684686     2.346285120400     1.007825032230
         H           -0.766362419407    -0.386754475186     4.023246669400     1.007825032230

  Charge       = 0
  Multiplicity = 2
  Basis Set: ANONYMOUS97558720
    Blend: 6-31G_2DFP_
  Basis Set: (ANONYMOUS97558720 AUX)
    Blend: DEF2-UNIVERSAL-JKFIT

    Orbital Energies [Eh]
    ---------------------

    Alpha Occupied:

       1Ap   -10.180329     1App  -10.167005     2Ap   -10.166982
       3Ap   -10.166918     4Ap    -0.797831     5Ap    -0.686248
       2App   -0.686201     6Ap    -0.530788     7Ap    -0.440954
       3App   -0.434965     8Ap    -0.434800     9Ap    -0.382537
       4App   -0.382357     5App   -0.363750     6App   -0.338227
      10Ap    -0.337813    11Ap    -0.169050

    Alpha Virtual:

      12Ap     0.076108     7App    0.134088    13Ap     0.134124
      14Ap     0.142631     8App    0.142761    15Ap     0.155085
       9App    0.178661    16Ap     0.178824    17Ap     0.203677
      10App    0.215024    18Ap     0.275801    11App    0.276249
      19Ap     0.399440    12App    0.399468    20Ap     0.403271
      21Ap     0.423900    13App    0.423990    22Ap     0.456829
      23Ap     0.495343    14App    0.495387    15App    0.511972
      24Ap     0.514038    25Ap     0.578924    16App    0.578998
      17App    0.591398    26Ap     0.591508    27Ap     0.602342
      28Ap     0.624825    18App    0.632024    29Ap     0.636175
      19App    0.636505    30Ap     0.663627    20App    0.663751
      21App    0.683747    31Ap     0.683788    32Ap     0.735077
      22App    0.825251    33Ap     0.825362    23App    0.854261
      34Ap     0.915161    24App    0.915187    35Ap     0.943814
      25App    0.944350    26App    0.960969    36Ap     0.961050
      37Ap     1.004177    38Ap     1.128478    27App    1.128650
      39Ap     1.141623    40Ap     1.163526    28App    1.164109
      41Ap     1.223255    42Ap     1.274148    29App    1.274768
      43Ap     1.279600    44Ap     1.324566    30App    1.324689
      45Ap     1.355576    46Ap     1.366234    31App    1.366539
      32App    1.392255    33App    1.403575    47Ap     1.403948
      48Ap     1.416807    34App    1.417129    35App    1.428537
      36App    1.492090    49Ap     1.498763    50Ap     1.542825
      37App    1.542959    51Ap     1.573636    38App    1.574027
      52Ap     1.669890    39App    1.739156    53Ap     1.739417
      54Ap     1.768171    40App    1.831169    55Ap     1.832185
      41App    1.971833    56Ap     2.018044    57Ap     2.019396
      42App    2.020439    58Ap     2.052438    43App    2.053792
      44App    2.737950    59Ap     2.738194    60Ap     2.791151
      45App    2.811942    61Ap     2.890025    46App    2.890197
      62Ap     2.895197    63Ap     2.929886    47App    2.930014
      48App    2.959056    64Ap     2.964344    49App    2.964518
      65Ap     3.034476    50App    3.070661    66Ap     3.070947
      51App    3.084002    67Ap     3.168500    52App    3.168910
      68Ap     3.180768    69Ap     3.284905    53App    3.284924
      70Ap     3.328070    54App    3.328455    71Ap     3.375321
      72Ap     3.489355    55App    3.489979    56App    3.514231
      73Ap     3.525494    74Ap     3.568853    57App    3.569005
      58App    3.576011    59App    3.665666    75Ap     3.666985
      76Ap     3.680749    60App    3.693476    77Ap     3.693739
      78Ap     3.777768    61App    3.778150    79Ap     3.787809
      80Ap     3.911582    62App    3.913093    81Ap     4.033346
      82Ap     4.111338    63App    4.111630    83Ap     4.147585
      64App    4.148209    84Ap     4.173179    85Ap     4.202163
      86Ap     4.203592    65App    4.204240    66App    4.211356
      87Ap     4.315562    67App    4.316996    68App    4.360122
      88Ap     4.423019    69App    4.424793    70App    4.444539
      89Ap     4.516998    71App    4.518319    90Ap     4.579229
      72App    4.579281    91Ap     4.618012    92Ap     4.709772
      73App    4.774602    93Ap     4.775264    74App    4.835913
      94Ap     4.963348    75App    5.002128    95Ap     5.003594
      96Ap     5.228406    97Ap     5.246550    76App    5.246945
      98Ap     5.356009    77App    5.356149    78App    5.479605

    Beta Occupied:

       1App  -10.167760     1Ap   -10.167746     2Ap   -10.167682
       3Ap   -10.166512     4Ap    -0.781159     5Ap    -0.684054
       2App   -0.683996     6Ap    -0.511756     3App   -0.431328
       7Ap    -0.431162     8Ap    -0.421658     9Ap    -0.376632
       4App   -0.376412     5App   -0.362728     6App   -0.333355
      10Ap    -0.332939

    Beta Virtual:

      11Ap    -0.025909    12Ap     0.077114    13Ap     0.135008
       7App    0.135014    14Ap     0.144529     8App    0.144625
      15Ap     0.163594     9App    0.182338    16Ap     0.182477
      10App    0.215255    17Ap     0.219021    18Ap     0.282147
      11App    0.282577    19Ap     0.400619    12App    0.400639
      20Ap     0.419738    21Ap     0.426705    13App    0.426796
      22Ap     0.468816    23Ap     0.497612    14App    0.497669
      15App    0.513712    24Ap     0.556297    25Ap     0.584491
      16App    0.584577    17App    0.597549    26Ap     0.597660
      27Ap     0.609785    28Ap     0.628204    18App    0.632186
      29Ap     0.639460    19App    0.639778    30Ap     0.667208
      20App    0.667343    21App    0.686376    31Ap     0.686391
      32Ap     0.757564    22App    0.830430    33Ap     0.830551
      23App    0.855617    34Ap     0.923177    24App    0.923206
      25App    0.946186    35Ap     0.952824    26App    0.966252
      36Ap     0.966326    37Ap     1.009446    38Ap     1.132519
      27App    1.132675    39Ap     1.154780    40Ap     1.168575
      28App    1.169192    41Ap     1.232326    42Ap     1.279760
      29App    1.280387    43Ap     1.285422    44Ap     1.329608
      30App    1.329705    45Ap     1.364933    46Ap     1.371497
      31App    1.371747    32App    1.393328    33App    1.407106
      47Ap     1.407378    48Ap     1.421823    34App    1.422103
      35App    1.428814    36App    1.493127    49Ap     1.509184
      50Ap     1.547216    37App    1.547370    51Ap     1.581515
      38App    1.581913    52Ap     1.674740    39App    1.744915
      53Ap     1.745184    54Ap     1.778967    40App    1.835031
      55Ap     1.836028    41App    1.972700    56Ap     2.025784
      42App    2.026880    57Ap     2.039465    58Ap     2.059143
      43App    2.060493    44App    2.746319    59Ap     2.746518
      45App    2.812359    60Ap     2.816291    61Ap     2.902673
      46App    2.902795    62Ap     2.924886    63Ap     2.932400
      47App    2.932493    48App    2.960121    64Ap     2.968912
      49App    2.969113    65Ap     3.042403    50App    3.080561
      66Ap     3.080838    51App    3.085823    67Ap     3.184187
      52App    3.184667    68Ap     3.188506    53App    3.289673
      69Ap     3.289707    70Ap     3.331859    54App    3.332226
      71Ap     3.383114    72Ap     3.492130    55App    3.492797
      56App    3.512605    73Ap     3.528503    57App    3.575853
      74Ap     3.582115    58App    3.582305    59App    3.670297
      75Ap     3.671679    76Ap     3.693987    60App    3.725258
      77Ap     3.725533    78Ap     3.782314    61App    3.782784
      79Ap     3.816380    80Ap     3.921402    62App    3.922812
      81Ap     4.044287    82Ap     4.118143    63App    4.118638
      83Ap     4.154811    64App    4.155242    84Ap     4.187204
      85Ap     4.209206    65App    4.210146    86Ap     4.210457
      66App    4.215863    87Ap     4.322991    67App    4.324480
      68App    4.363506    88Ap     4.431273    69App    4.432954
      70App    4.447427    89Ap     4.524782    71App    4.526090
      90Ap     4.589835    72App    4.589922    91Ap     4.625130
      92Ap     4.720222    73App    4.781560    93Ap     4.782185
      74App    4.838834    94Ap     4.968141    75App    5.006198
      95Ap     5.007634    96Ap     5.234107    97Ap     5.248346
      76App    5.248726    98Ap     5.362470    77App    5.362652
      78App    5.481932

    Final Occupation by Irrep:
             Ap   App
    DOCC [    10,    6 ]
    SOCC [     1,    0 ]

  @DF-UKS Final Energy:  -157.81307660742550

   => Energetics <=

    Nuclear Repulsion Energy =            125.4062031657365992
    One-Electron Energy =                -458.7715222333523570
    Two-Electron Energy =                 195.8597288137713406
    DFT Exchange-Correlation Energy =     -20.3074863535810692
    Empirical Dispersion Energy =           0.0000000000000000
    VV10 Nonlocal Energy =                  0.0000000000000000
    Total Energy =                       -157.8130766074255007

  UHF NO Occupations:
  HONO-2 :    9 Ap 1.9995995
  HONO-1 :   10 Ap 1.9989824
  HONO-0 :   11 Ap 1.0000000
  LUNO+0 :   12 Ap 0.0010176
  LUNO+1 :   13 Ap 0.0004005
  LUNO+2 :   14 Ap 0.0001976
  LUNO+3 :    7App 0.0001969

Computation Completed

Properties will be evaluated at   0.000000,   0.000000,   0.000000 [a0]

Properties computed using the SCF density matrix

  Nuclear Dipole Moment: [e a0]
     X:     0.8225      Y:    -0.0033      Z:    -0.0000

  Electronic Dipole Moment: [e a0]
     X:    -0.7450      Y:     0.0034      Z:     0.0000

  Dipole Moment: [e a0]
     X:     0.0775      Y:     0.0001      Z:    -0.0000     Total:     0.0775

  Dipole Moment: [D]
     X:     0.1970      Y:     0.0002      Z:    -0.0000     Total:     0.1970

*** tstop() called on n070 at Fri Nov  5 13:03:34 2021
Module time:
	user time   =     574.57 seconds =       9.58 minutes
	system time =      13.10 seconds =       0.22 minutes
	total time  =        148 seconds =       2.47 minutes
Total time:
	user time   =     574.57 seconds =       9.58 minutes
	system time =      13.10 seconds =       0.22 minutes
	total time  =        148 seconds =       2.47 minutes
Grab this energy -157.8130766074255
    Psi4 stopped on: Friday, 05 November 2021 01:03PM
    Psi4 wall time for execution: 0:02:28.06

*** Psi4 exiting successfully. Buy a developer a beer!
