                               Psi4 1.4a2.dev629

  ==> Input File <==

--------------------------------------------------------------------------
import os
memory 14 GB

molecule {
 C   -0.3218882244    0.0053440913   -0.0000000000
 C    0.0603566187   -1.4000817654   -2.4269125678
 C    0.0600190691    2.8019125359   -0.0000000000
 C    0.0603566187   -1.4000817654    2.4269125678
 H    2.0868666694   -1.6449738978   -2.8472289240
 H   -0.7660015722   -0.3887311636   -4.0248068191
 H   -0.7647071815   -3.2930106020   -2.3497358901
 H    2.0870888627    3.2874597595    0.0000000000
 H   -0.7654283265    3.6794270786    1.6769464161
 H   -0.7654283265    3.6794270786   -1.6769464161
 H    2.0868666694   -1.6449738978    2.8472289240
 H   -0.7647071815   -3.2930106020    2.3497358901
 H   -0.7660015722   -0.3887311636    4.0248068191
units bohr
0 2
}

basis {

assign 6-31g_2dfp_

[ 6-31g_2dfp_ ]

spherical

!----------------------------------------------------------------------
! Basis Set Exchange
! Version v0.8.13
! https://www.basissetexchange.org
!----------------------------------------------------------------------
!   Basis set: 6-31G(2df,p)
! Description: 6-31G(2df,p)
!        Role: orbital
!     Version: 0  (Data from the original Basis Set Exchange)
!----------------------------------------------------------------------

****
H     0
S    3   1.00
     18.7311370              0.03349460
      2.8253937              0.23472695
      0.6401217              0.81375733
S    1   1.00
      0.1612778              1.00000000
P    1   1.00
      1.5000000              1.0000000
P    1   1.00
      0.3750000              1.0000000
****
B     0
S    6   1.00
   2068.8823000              0.0018663
    310.6495700              0.0142515
     70.6830330              0.0695516
     19.8610800              0.2325729
      6.2993048              0.4670787
      2.1270270              0.3634314
SP   3   1.00
      4.7279710             -0.1303938              0.0745976
      1.1903377             -0.1307889              0.3078467
      0.3594117              1.1309444              0.7434568
SP   1   1.00
      0.1267512              1.0000000              1.0000000
D    1   1.00
      0.8020000              1.0000000
D    1   1.00
      0.2005000              1.0000000
F    1   1.00
      0.5000000              1.0000000
****
C     0
S    6   1.00
   3047.5249000              0.0018347
    457.3695100              0.0140373
    103.9486900              0.0688426
     29.2101550              0.2321844
      9.2866630              0.4679413
      3.1639270              0.3623120
SP   3   1.00
      7.8682724             -0.1193324              0.0689991
      1.8812885             -0.1608542              0.3164240
      0.5442493              1.1434564              0.7443083
SP   1   1.00
      0.1687144              1.0000000              1.0000000
D    1   1.00
      1.2520000              1.0000000
D    1   1.00
      0.3130000              1.0000000
F    1   1.00
      0.8000000              1.0000000
****
N     0
S    6   1.00
   4173.5110000              0.0018348
    627.4579000              0.0139950
    142.9021000              0.0685870
     40.2343300              0.2322410
     12.8202100              0.4690700
      4.3904370              0.3604550
SP   3   1.00
     11.6263580             -0.1149610              0.0675800
      2.7162800             -0.1691180              0.3239070
      0.7722180              1.1458520              0.7408950
SP   1   1.00
      0.2120313              1.0000000              1.0000000
D    1   1.00
      1.8260000              1.0000000
D    1   1.00
      0.4565000              1.0000000
F    1   1.00
      1.0000000              1.0000000
****
O     0
S    6   1.00
   5484.6717000              0.0018311
    825.2349500              0.0139501
    188.0469600              0.0684451
     52.9645000              0.2327143
     16.8975700              0.4701930
      5.7996353              0.3585209
SP   3   1.00
     15.5396160             -0.1107775              0.0708743
      3.5999336             -0.1480263              0.3397528
      1.0137618              1.1307670              0.7271586
SP   1   1.00
      0.2700058              1.0000000              1.0000000
D    1   1.00
      2.5840000              1.0000000
D    1   1.00
      0.6460000              1.0000000
F    1   1.00
      1.4000000              1.0000000
****
F     0
S    6   1.00
   7001.7130900              0.0018196169
   1051.3660900              0.0139160796
    239.2856900              0.0684053245
     67.3974453              0.233185760
     21.5199573              0.471267439
      7.40310130             0.356618546
SP   3   1.00
     20.8479528             -0.108506975            0.0716287243
      4.80830834            -0.146451658            0.3459121030
      1.34406986             1.128688580            0.7224699570
SP   1   1.00
      0.358151393            1.0000000              1.0000000
D    1   1.00
      3.5000000              1.0000000
D    1   1.00
      0.8750000              1.0000000
F    1   1.00
      1.8500000              1.0000000
****
Al     0
S    6   1.00
  13983.1000000              0.00194267
   2098.7500000              0.0148599
    477.7050000              0.0728494
    134.3600000              0.2468300
     42.8709000              0.4872580
     14.5189000              0.3234960
SP   6   1.00
    239.6680000             -0.00292619             0.00460285
     57.4419000             -0.0374080              0.0331990
     18.2859000             -0.1144870              0.1362820
      6.5991400              0.1156350              0.3304760
      2.4904900              0.6125950              0.4491460
      0.9445400              0.3937990              0.2657040
SP   3   1.00
      1.2779000             -0.2276060             -0.0175130
      0.3975900              0.00144583             0.2445330
      0.1600950              1.0927900              0.8049340
SP   1   1.00
      0.0556577              1.0000000              1.0000000
D    1   1.00
      0.6500000              1.0000000
D    1   1.00
      0.1625000              1.0000000
F    1   1.00
      0.2500000              1.0000000
****
Si     0
S    6   1.00
  16115.9000000              0.00195948
   2425.5800000              0.01492880
    553.8670000              0.07284780
    156.3400000              0.24613000
     50.0683000              0.48591400
     17.0178000              0.32500200
SP   6   1.00
    292.7180000             -0.00278094             0.00443826
     69.8731000             -0.03571460             0.03266790
     22.3363000             -0.11498500             0.13472100
      8.1503900              0.09356340             0.32867800
      3.1345800              0.60301700             0.44964000
      1.2254300              0.41895900             0.26137200
SP   3   1.00
      1.7273800             -0.24463000            -0.01779510
      0.5729220              0.00431572             0.25353900
      0.2221920              1.09818000             0.80066900
SP   1   1.00
      0.0778369              1.00000000             1.00000000
D    1   1.00
      0.9000000              1.0000000
D    1   1.00
      0.2250000              1.0000000
F    1   1.00
      0.3200000              1.0000000
****
P     0
S    6   1.00
  19413.3000000              0.0018516
   2909.4200000              0.0142062
    661.3640000              0.0699995
    185.7590000              0.2400790
     59.1943000              0.4847620
     20.0310000              0.3352000
SP   6   1.00
    339.4780000             -0.00278217             0.00456462
     81.0101000             -0.0360499              0.03369360
     25.8780000             -0.1166310              0.13975500
      9.4522100              0.0968328              0.33936200
      3.6656600              0.6144180              0.45092100
      1.4674600              0.4037980              0.23858600
SP   3   1.00
      2.1562300             -0.2529230             -0.01776530
      0.7489970              0.0328517              0.27405800
      0.2831450              1.0812500              0.78542100
SP   1   1.00
      0.0998317              1.0000000              1.00000000
D    1   1.00
      1.1000000              1.0000000
D    1   1.00
      0.2750000              1.0000000
F    1   1.00
      0.4500000              1.0000000
****
S     0
S    6   1.00
  21917.1000000              0.0018690
   3301.4900000              0.0142300
    754.1460000              0.0696960
    212.7110000              0.2384870
     67.9896000              0.4833070
     23.0515000              0.3380740
SP   6   1.00
    423.7350000             -0.0023767              0.0040610
    100.7100000             -0.0316930              0.0306810
     32.1599000             -0.1133170              0.1304520
     11.8079000              0.0560900              0.3272050
      4.6311000              0.5922550              0.4528510
      1.8702500              0.4550060              0.2560420
SP   3   1.00
      2.6158400             -0.2503740             -0.0145110
      0.9221670              0.0669570              0.3102630
      0.3412870              1.0545100              0.7544830
SP   1   1.00
      0.1171670              1.0000000              1.0000000
D    1   1.00
      1.3000000              1.0000000
D    1   1.00
      0.3250000              1.0000000
F    1   1.00
      0.5500000              1.0000000
****
Cl     0
S    6   1.00
  25180.1000000              0.0018330
   3780.3500000              0.0140340
    860.4740000              0.0690970
    242.1450000              0.2374520
     77.3349000              0.4830340
     26.2470000              0.3398560
SP   6   1.00
    491.7650000             -0.0022974              0.0039894
    116.9840000             -0.0307140              0.0303180
     37.4153000             -0.1125280              0.1298800
     13.7834000              0.0450160              0.3279510
      5.4521500              0.5893530              0.4535270
      2.2258800              0.4652060              0.2521540
SP   3   1.00
      3.1864900             -0.2518300             -0.0142990
      1.1442700              0.0615890              0.3235720
      0.4203770              1.0601800              0.7435070
SP   1   1.00
      0.1426570              1.0000000              1.0000000
D    1   1.00
      1.5000000              1.0000000
D    1   1.00
      0.3750000              1.0000000
F    1   1.00
      0.7000000              1.0000000
****
}

set {
reference uhf
freeze_core true
e_convergence 10
d_convergence 10
dft_spherical_points 1202
dft_radial_points 99
}

e = energy('b3lyp')

print_out('Grab this energy {0}'.format(e))
--------------------------------------------------------------------------

    Molecular point group: cs

    Geometry (in Bohr), charge = 0, multiplicity = 2:

       Center              X                  Y                   Z               Mass
    ------------   -----------------  -----------------  -----------------  -----------------
         C           -0.321673287654     0.003978339208     0.000000000000    12.000000000000
         C            0.060571555446    -1.401447517492    -2.426912567800    12.000000000000
         C            0.060234005846     2.800546783808     0.000000000000    12.000000000000
         C            0.060571555446    -1.401447517492     2.426912567800    12.000000000000
         H            2.087081606146    -1.646339649892    -2.847228924000     1.007825032230
         H           -0.765786635454    -0.390096915692    -4.024806819100     1.007825032230
         H           -0.764492244754    -3.294376354092    -2.349735890100     1.007825032230
         H            2.087303799446     3.286094007408     0.000000000000     1.007825032230
         H           -0.765213389754     3.678061326508     1.676946416100     1.007825032230
         H           -0.765213389754     3.678061326508    -1.676946416100     1.007825032230
         H            2.087081606146    -1.646339649892     2.847228924000     1.007825032230
         H           -0.764492244754    -3.294376354092     2.349735890100     1.007825032230
         H           -0.765786635454    -0.390096915692     4.024806819100     1.007825032230

  Charge       = 0
  Multiplicity = 2
  Basis Set: ANONYMOUS1864E1E4
    Blend: 6-31G_2DFP_
  Basis Set: (ANONYMOUS1864E1E4 AUX)
    Blend: DEF2-UNIVERSAL-JKFIT

    Orbital Energies [Eh]
    ---------------------

    Alpha Occupied:

       1Ap   -10.180276     1App  -10.167055     2Ap   -10.167035
       3Ap   -10.166979     4Ap    -0.797784     5Ap    -0.686392
       2App   -0.686015     6Ap    -0.530770     7Ap    -0.441073
       3App   -0.434949     8Ap    -0.434515     9Ap    -0.382608
       4App   -0.382378     5App   -0.363735    10Ap    -0.338610
       6App   -0.337569    11Ap    -0.168777

    Alpha Virtual:

      12Ap     0.076069    13Ap     0.134144     7App    0.134174
       8App    0.142475    14Ap     0.142826    15Ap     0.154800
       9App    0.178702    16Ap     0.178717    17Ap     0.203517
      10App    0.214851    11App    0.275869    18Ap     0.276446
      12App    0.399127    19Ap     0.399372    20Ap     0.403424
      13App    0.424124    21Ap     0.424126    22Ap     0.456499
      14App    0.495368    23Ap     0.495461    15App    0.512115
      24Ap     0.514076    16App    0.578498    25Ap     0.578874
      17App    0.591614    26Ap     0.591617    27Ap     0.602355
      28Ap     0.624833    18App    0.631835    19App    0.636252
      29Ap     0.636572    30Ap     0.663187    20App    0.663320
      31Ap     0.683911    21App    0.684013    32Ap     0.735190
      22App    0.825353    33Ap     0.825571    23App    0.853914
      34Ap     0.914972    24App    0.915201    25App    0.944079
      35Ap     0.944571    26App    0.961092    36Ap     0.961460
      37Ap     1.003453    27App    1.127777    38Ap     1.128212
      39Ap     1.142248    28App    1.162456    40Ap     1.163217
      41Ap     1.223491    42Ap     1.274086    29App    1.275027
      43Ap     1.279109    30App    1.324513    44Ap     1.324702
      45Ap     1.355757    31App    1.366156    46Ap     1.366708
      32App    1.392436    33App    1.403944    47Ap     1.404057
      48Ap     1.416557    34App    1.417192    35App    1.427873
      36App    1.491674    49Ap     1.498686    50Ap     1.542784
      37App    1.542785    51Ap     1.574705    38App    1.574754
      52Ap     1.670091    39App    1.739461    53Ap     1.739864
      54Ap     1.768256    40App    1.831513    55Ap     1.832046
      41App    1.971993    56Ap     2.018166    57Ap     2.019318
      42App    2.019324    43App    2.051720    58Ap     2.052790
      44App    2.738440    59Ap     2.738921    60Ap     2.790726
      45App    2.811455    46App    2.889644    61Ap     2.890757
      62Ap     2.894626    47App    2.929087    63Ap     2.929865
      48App    2.959059    64Ap     2.964325    49App    2.964652
      65Ap     3.033647    50App    3.071617    66Ap     3.072649
      51App    3.084422    67Ap     3.168536    52App    3.168737
      68Ap     3.180689    53App    3.284212    69Ap     3.284814
      70Ap     3.326412    54App    3.327193    71Ap     3.375436
      55App    3.489835    72Ap     3.490919    56App    3.514205
      73Ap     3.524874    74Ap     3.568447    57App    3.568910
      58App    3.574528    75Ap     3.666647    59App    3.667266
      76Ap     3.679880    77Ap     3.694018    60App    3.694075
      61App    3.776372    78Ap     3.777776    79Ap     3.790435
      62App    3.911782    80Ap     3.912716    81Ap     4.034746
      63App    4.111286    82Ap     4.111925    64App    4.147166
      83Ap     4.149133    84Ap     4.173298    65App    4.202351
      85Ap     4.202520    86Ap     4.203734    66App    4.210818
      67App    4.315214    87Ap     4.316324    68App    4.358499
      69App    4.424532    88Ap     4.424675    70App    4.443698
      71App    4.516416    89Ap     4.516670    90Ap     4.577729
      72App    4.578297    91Ap     4.618324    92Ap     4.709138
      73App    4.774191    93Ap     4.775325    74App    4.838085
      94Ap     4.962726    95Ap     5.002586    75App    5.003072
      96Ap     5.228151    76App    5.246891    97Ap     5.246958
      77App    5.355224    98Ap     5.356338    78App    5.479714

    Beta Occupied:

       1App  -10.167809     1Ap   -10.167795     2Ap   -10.167751
       3Ap   -10.166458     4Ap    -0.781105     5Ap    -0.684185
       2App   -0.683832     6Ap    -0.511750     3App   -0.431327
       7Ap    -0.430909     8Ap    -0.421730     9Ap    -0.376642
       4App   -0.376495     5App   -0.362719    10Ap    -0.333739
       6App   -0.332679

    Beta Virtual:

      11Ap    -0.025642    12Ap     0.077082     7App    0.135057
      13Ap     0.135061     8App    0.144353    14Ap     0.144684
      15Ap     0.163270     9App    0.182361    16Ap     0.182399
      10App    0.215080    17Ap     0.218922    11App    0.282239
      18Ap     0.282747    12App    0.400300    19Ap     0.400539
      20Ap     0.419898    13App    0.426922    21Ap     0.426946
      22Ap     0.468393    14App    0.497621    23Ap     0.497720
      15App    0.513855    24Ap     0.556420    16App    0.584039
      25Ap     0.584464    17App    0.597777    26Ap     0.597798
      27Ap     0.609805    28Ap     0.628184    18App    0.631989
      19App    0.639519    29Ap     0.639868    30Ap     0.666755
      20App    0.666875    31Ap     0.686550    21App    0.686655
      32Ap     0.757692    22App    0.830522    33Ap     0.830731
      23App    0.855271    34Ap     0.922906    24App    0.923188
      25App    0.945919    35Ap     0.953505    26App    0.966423
      36Ap     0.966807    37Ap     1.008675    27App    1.131822
      38Ap     1.132228    39Ap     1.155640    28App    1.167537
      40Ap     1.168286    41Ap     1.232467    42Ap     1.279721
      29App    1.280556    43Ap     1.284854    30App    1.329506
      44Ap     1.329671    45Ap     1.365197    31App    1.371453
      46Ap     1.371907    32App    1.393501    33App    1.407354
      47Ap     1.407578    48Ap     1.421637    34App    1.422253
      35App    1.428140    36App    1.492724    49Ap     1.509123
      37App    1.547189    50Ap     1.547198    38App    1.582597
      51Ap     1.582605    52Ap     1.674922    39App    1.745220
      53Ap     1.745632    54Ap     1.779057    40App    1.835362
      55Ap     1.835924    41App    1.972854    56Ap     2.024593
      42App    2.025719    57Ap     2.040674    43App    2.058427
      58Ap     2.059477    44App    2.746744    59Ap     2.747289
      45App    2.811859    60Ap     2.815881    46App    2.902375
      61Ap     2.903311    62Ap     2.924350    47App    2.931525
      63Ap     2.932415    48App    2.960123    64Ap     2.968862
      49App    2.969182    65Ap     3.041623    50App    3.081566
      66Ap     3.082439    51App    3.086242    67Ap     3.184360
      52App    3.184500    68Ap     3.188437    53App    3.289090
      69Ap     3.289611    70Ap     3.330207    54App    3.330991
      71Ap     3.383246    55App    3.492535    72Ap     3.493639
      56App    3.512569    73Ap     3.527911    57App    3.574377
      74Ap     3.581793    58App    3.582171    75Ap     3.671486
      59App    3.671952    76Ap     3.693180    77Ap     3.725516
      60App    3.725830    61App    3.780865    78Ap     3.782280
      79Ap     3.818957    62App    3.921637    80Ap     3.922574
      81Ap     4.045605    63App    4.118162    82Ap     4.118713
      64App    4.154386    83Ap     4.156303    84Ap     4.187398
      65App    4.208294    85Ap     4.208971    86Ap     4.211167
      66App    4.215318    67App    4.322569    87Ap     4.323808
      68App    4.361861    69App    4.432788    88Ap     4.432928
      70App    4.446583    71App    4.524178    89Ap     4.524525
      90Ap     4.588277    72App    4.588862    91Ap     4.625546
      92Ap     4.719460    73App    4.781093    93Ap     4.782301
      74App    4.840990    94Ap     4.967521    95Ap     5.006657
      75App    5.007110    96Ap     5.233865    76App    5.248680
      97Ap     5.248737    77App    5.361671    98Ap     5.362836
      78App    5.482028

    Final Occupation by Irrep:
             Ap   App
    DOCC [    10,    6 ]
    SOCC [     1,    0 ]

  @DF-UKS Final Energy:  -157.81307275640069

   => Energetics <=

    Nuclear Repulsion Energy =            125.3971048380208941
    One-Electron Energy =                -458.7536935090528232
    Two-Electron Energy =                 195.8507299378150606
    DFT Exchange-Correlation Energy =     -20.3072140231837963
    Empirical Dispersion Energy =           0.0000000000000000
    VV10 Nonlocal Energy =                  0.0000000000000000
    Total Energy =                       -157.8130727564006861

  UHF NO Occupations:
  HONO-2 :    9 Ap 1.9995994
  HONO-1 :   10 Ap 1.9989790
  HONO-0 :   11 Ap 1.0000000
  LUNO+0 :   12 Ap 0.0010210
  LUNO+1 :   13 Ap 0.0004006
  LUNO+2 :    7App 0.0001985
  LUNO+3 :   14 Ap 0.0001964

Computation Completed

Properties will be evaluated at   0.000000,   0.000000,   0.000000 [a0]

Properties computed using the SCF density matrix

  Nuclear Dipole Moment: [e a0]
     X:     0.8287      Y:    -0.0096      Z:     0.0000

  Electronic Dipole Moment: [e a0]
     X:    -0.7516      Y:     0.0109      Z:     0.0000

  Dipole Moment: [e a0]
     X:     0.0771      Y:     0.0012      Z:     0.0000     Total:     0.0771

  Dipole Moment: [D]
     X:     0.1961      Y:     0.0031      Z:     0.0000     Total:     0.1961

*** tstop() called on n059 at Fri Nov  5 11:32:21 2021
Module time:
	user time   =     540.87 seconds =       9.01 minutes
	system time =      12.14 seconds =       0.20 minutes
	total time  =        139 seconds =       2.32 minutes
Total time:
	user time   =     540.87 seconds =       9.01 minutes
	system time =      12.14 seconds =       0.20 minutes
	total time  =        139 seconds =       2.32 minutes
Grab this energy -157.8130727564007
    Psi4 stopped on: Friday, 05 November 2021 11:32AM
    Psi4 wall time for execution: 0:02:19.07

*** Psi4 exiting successfully. Buy a developer a beer!
