                               Psi4 1.4a2.dev629

  ==> Input File <==

--------------------------------------------------------------------------
import os
memory 14 GB

molecule {
 C   -0.3233415478   -0.0004998987   -0.0024269864
 C    0.0597619317   -1.4001041975   -2.4256287005
 C    0.0623951343    2.8016615666   -0.0012494385
 C    0.0611407394   -1.4022749936    2.4268851171
 H    2.0867714148   -1.6459152144   -2.8469291900
 H   -0.7664507983   -0.3874115730   -4.0252291450
 H   -0.7688816354   -3.2869925586   -2.3468899892
 H    2.0826690668    3.2885855254    0.0033430506
 H   -0.7681012403    3.6773059860    1.6762826073
 H   -0.7593653349    3.6831003161   -1.6829580180
 H    2.0912234185   -1.6423019711    2.8473682233
 H   -0.7620852743   -3.2934623186    2.3522600188
 H   -0.7683437513   -0.3917149823    4.0251724503
units bohr
0 2
}

basis {

assign 6-31g_2dfp_

[ 6-31g_2dfp_ ]

spherical

!----------------------------------------------------------------------
! Basis Set Exchange
! Version v0.8.13
! https://www.basissetexchange.org
!----------------------------------------------------------------------
!   Basis set: 6-31G(2df,p)
! Description: 6-31G(2df,p)
!        Role: orbital
!     Version: 0  (Data from the original Basis Set Exchange)
!----------------------------------------------------------------------

****
H     0
S    3   1.00
     18.7311370              0.03349460
      2.8253937              0.23472695
      0.6401217              0.81375733
S    1   1.00
      0.1612778              1.00000000
P    1   1.00
      1.5000000              1.0000000
P    1   1.00
      0.3750000              1.0000000
****
B     0
S    6   1.00
   2068.8823000              0.0018663
    310.6495700              0.0142515
     70.6830330              0.0695516
     19.8610800              0.2325729
      6.2993048              0.4670787
      2.1270270              0.3634314
SP   3   1.00
      4.7279710             -0.1303938              0.0745976
      1.1903377             -0.1307889              0.3078467
      0.3594117              1.1309444              0.7434568
SP   1   1.00
      0.1267512              1.0000000              1.0000000
D    1   1.00
      0.8020000              1.0000000
D    1   1.00
      0.2005000              1.0000000
F    1   1.00
      0.5000000              1.0000000
****
C     0
S    6   1.00
   3047.5249000              0.0018347
    457.3695100              0.0140373
    103.9486900              0.0688426
     29.2101550              0.2321844
      9.2866630              0.4679413
      3.1639270              0.3623120
SP   3   1.00
      7.8682724             -0.1193324              0.0689991
      1.8812885             -0.1608542              0.3164240
      0.5442493              1.1434564              0.7443083
SP   1   1.00
      0.1687144              1.0000000              1.0000000
D    1   1.00
      1.2520000              1.0000000
D    1   1.00
      0.3130000              1.0000000
F    1   1.00
      0.8000000              1.0000000
****
N     0
S    6   1.00
   4173.5110000              0.0018348
    627.4579000              0.0139950
    142.9021000              0.0685870
     40.2343300              0.2322410
     12.8202100              0.4690700
      4.3904370              0.3604550
SP   3   1.00
     11.6263580             -0.1149610              0.0675800
      2.7162800             -0.1691180              0.3239070
      0.7722180              1.1458520              0.7408950
SP   1   1.00
      0.2120313              1.0000000              1.0000000
D    1   1.00
      1.8260000              1.0000000
D    1   1.00
      0.4565000              1.0000000
F    1   1.00
      1.0000000              1.0000000
****
O     0
S    6   1.00
   5484.6717000              0.0018311
    825.2349500              0.0139501
    188.0469600              0.0684451
     52.9645000              0.2327143
     16.8975700              0.4701930
      5.7996353              0.3585209
SP   3   1.00
     15.5396160             -0.1107775              0.0708743
      3.5999336             -0.1480263              0.3397528
      1.0137618              1.1307670              0.7271586
SP   1   1.00
      0.2700058              1.0000000              1.0000000
D    1   1.00
      2.5840000              1.0000000
D    1   1.00
      0.6460000              1.0000000
F    1   1.00
      1.4000000              1.0000000
****
F     0
S    6   1.00
   7001.7130900              0.0018196169
   1051.3660900              0.0139160796
    239.2856900              0.0684053245
     67.3974453              0.233185760
     21.5199573              0.471267439
      7.40310130             0.356618546
SP   3   1.00
     20.8479528             -0.108506975            0.0716287243
      4.80830834            -0.146451658            0.3459121030
      1.34406986             1.128688580            0.7224699570
SP   1   1.00
      0.358151393            1.0000000              1.0000000
D    1   1.00
      3.5000000              1.0000000
D    1   1.00
      0.8750000              1.0000000
F    1   1.00
      1.8500000              1.0000000
****
Al     0
S    6   1.00
  13983.1000000              0.00194267
   2098.7500000              0.0148599
    477.7050000              0.0728494
    134.3600000              0.2468300
     42.8709000              0.4872580
     14.5189000              0.3234960
SP   6   1.00
    239.6680000             -0.00292619             0.00460285
     57.4419000             -0.0374080              0.0331990
     18.2859000             -0.1144870              0.1362820
      6.5991400              0.1156350              0.3304760
      2.4904900              0.6125950              0.4491460
      0.9445400              0.3937990              0.2657040
SP   3   1.00
      1.2779000             -0.2276060             -0.0175130
      0.3975900              0.00144583             0.2445330
      0.1600950              1.0927900              0.8049340
SP   1   1.00
      0.0556577              1.0000000              1.0000000
D    1   1.00
      0.6500000              1.0000000
D    1   1.00
      0.1625000              1.0000000
F    1   1.00
      0.2500000              1.0000000
****
Si     0
S    6   1.00
  16115.9000000              0.00195948
   2425.5800000              0.01492880
    553.8670000              0.07284780
    156.3400000              0.24613000
     50.0683000              0.48591400
     17.0178000              0.32500200
SP   6   1.00
    292.7180000             -0.00278094             0.00443826
     69.8731000             -0.03571460             0.03266790
     22.3363000             -0.11498500             0.13472100
      8.1503900              0.09356340             0.32867800
      3.1345800              0.60301700             0.44964000
      1.2254300              0.41895900             0.26137200
SP   3   1.00
      1.7273800             -0.24463000            -0.01779510
      0.5729220              0.00431572             0.25353900
      0.2221920              1.09818000             0.80066900
SP   1   1.00
      0.0778369              1.00000000             1.00000000
D    1   1.00
      0.9000000              1.0000000
D    1   1.00
      0.2250000              1.0000000
F    1   1.00
      0.3200000              1.0000000
****
P     0
S    6   1.00
  19413.3000000              0.0018516
   2909.4200000              0.0142062
    661.3640000              0.0699995
    185.7590000              0.2400790
     59.1943000              0.4847620
     20.0310000              0.3352000
SP   6   1.00
    339.4780000             -0.00278217             0.00456462
     81.0101000             -0.0360499              0.03369360
     25.8780000             -0.1166310              0.13975500
      9.4522100              0.0968328              0.33936200
      3.6656600              0.6144180              0.45092100
      1.4674600              0.4037980              0.23858600
SP   3   1.00
      2.1562300             -0.2529230             -0.01776530
      0.7489970              0.0328517              0.27405800
      0.2831450              1.0812500              0.78542100
SP   1   1.00
      0.0998317              1.0000000              1.00000000
D    1   1.00
      1.1000000              1.0000000
D    1   1.00
      0.2750000              1.0000000
F    1   1.00
      0.4500000              1.0000000
****
S     0
S    6   1.00
  21917.1000000              0.0018690
   3301.4900000              0.0142300
    754.1460000              0.0696960
    212.7110000              0.2384870
     67.9896000              0.4833070
     23.0515000              0.3380740
SP   6   1.00
    423.7350000             -0.0023767              0.0040610
    100.7100000             -0.0316930              0.0306810
     32.1599000             -0.1133170              0.1304520
     11.8079000              0.0560900              0.3272050
      4.6311000              0.5922550              0.4528510
      1.8702500              0.4550060              0.2560420
SP   3   1.00
      2.6158400             -0.2503740             -0.0145110
      0.9221670              0.0669570              0.3102630
      0.3412870              1.0545100              0.7544830
SP   1   1.00
      0.1171670              1.0000000              1.0000000
D    1   1.00
      1.3000000              1.0000000
D    1   1.00
      0.3250000              1.0000000
F    1   1.00
      0.5500000              1.0000000
****
Cl     0
S    6   1.00
  25180.1000000              0.0018330
   3780.3500000              0.0140340
    860.4740000              0.0690970
    242.1450000              0.2374520
     77.3349000              0.4830340
     26.2470000              0.3398560
SP   6   1.00
    491.7650000             -0.0022974              0.0039894
    116.9840000             -0.0307140              0.0303180
     37.4153000             -0.1125280              0.1298800
     13.7834000              0.0450160              0.3279510
      5.4521500              0.5893530              0.4535270
      2.2258800              0.4652060              0.2521540
SP   3   1.00
      3.1864900             -0.2518300             -0.0142990
      1.1442700              0.0615890              0.3235720
      0.4203770              1.0601800              0.7435070
SP   1   1.00
      0.1426570              1.0000000              1.0000000
D    1   1.00
      1.5000000              1.0000000
D    1   1.00
      0.3750000              1.0000000
F    1   1.00
      0.7000000              1.0000000
****
}

set {
reference uhf
freeze_core true
e_convergence 10
d_convergence 10
dft_spherical_points 1202
dft_radial_points 99
}

e = energy('b3lyp')

print_out('Grab this energy {0}'.format(e))
--------------------------------------------------------------------------

    Molecular point group: c1

    Geometry (in Bohr), charge = 0, multiplicity = 2:

       Center              X                  Y                   Z               Mass
    ------------   -----------------  -----------------  -----------------  -----------------
         C           -0.323340824066    -0.000264965599    -0.001960875367    12.000000000000
         C            0.059762655434    -1.399869264399    -2.425162589467    12.000000000000
         C            0.062395858034     2.801896499701    -0.000783327467    12.000000000000
         C            0.061141463134    -1.402040060499     2.427351228133    12.000000000000
         H            2.086772138534    -1.645680281299    -2.846463078967     1.007825032230
         H           -0.766450074566    -0.387176639899    -4.024763033967     1.007825032230
         H           -0.768880911666    -3.286757625499    -2.346423878167     1.007825032230
         H            2.082669790534     3.288820458501     0.003809161633     1.007825032230
         H           -0.768100516566     3.677540919101     1.676748718333     1.007825032230
         H           -0.759364611166     3.683335249201    -1.682491906967     1.007825032230
         H            2.091224142234    -1.642067037999     2.847834334333     1.007825032230
         H           -0.762084550566    -3.293227385499     2.352726129833     1.007825032230
         H           -0.768343027566    -0.391480049199     4.025638561333     1.007825032230

  Charge       = 0
  Multiplicity = 2
  Basis Set: ANONYMOUS7D072351
    Blend: 6-31G_2DFP_
  Basis Set: (ANONYMOUS7D072351 AUX)
    Blend: DEF2-UNIVERSAL-JKFIT

    Orbital Energies [Eh]
    ---------------------

    Alpha Occupied:

       1A    -10.180342     2A    -10.167217     3A    -10.166990
       4A    -10.166838     5A     -0.797767     6A     -0.686330
       7A     -0.686045     8A     -0.530778     9A     -0.441127
      10A     -0.434746    11A     -0.434595    12A     -0.382650
      13A     -0.382547    14A     -0.363610    15A     -0.338151
      16A     -0.337846    17A     -0.168961

    Alpha Virtual:

      18A      0.076071    19A      0.133977    20A      0.134332
      21A      0.142563    22A      0.142688    23A      0.154880
      24A      0.178692    25A      0.178864    26A      0.203548
      27A      0.214802    28A      0.275642    29A      0.276330
      30A      0.399192    31A      0.399253    32A      0.403355
      33A      0.424007    34A      0.424189    35A      0.456593
      36A      0.495233    37A      0.495543    38A      0.512161
      39A      0.513981    40A      0.578562    41A      0.579063
      42A      0.591357    43A      0.591906    44A      0.602584
      45A      0.624762    46A      0.631750    47A      0.636135
      48A      0.636386    49A      0.662991    50A      0.663846
      51A      0.683681    52A      0.684028    53A      0.734996
      54A      0.825367    55A      0.825439    56A      0.853921
      57A      0.914770    58A      0.915282    59A      0.944122
      60A      0.944611    61A      0.961152    62A      0.961442
      63A      1.003454    64A      1.128034    65A      1.128161
      66A      1.142200    67A      1.163108    68A      1.163466
      69A      1.223328    70A      1.274245    71A      1.274716
      72A      1.279376    73A      1.324227    74A      1.324486
      75A      1.355964    76A      1.365749    77A      1.366343
      78A      1.392444    79A      1.403490    80A      1.404628
      81A      1.416537    82A      1.417697    83A      1.427919
      84A      1.491489    85A      1.499080    86A      1.542349
      87A      1.543329    88A      1.574168    89A      1.574721
      90A      1.669825    91A      1.739096    92A      1.739701
      93A      1.768350    94A      1.830494    95A      1.832296
      96A      1.971715    97A      2.018022    98A      2.018761
      99A      2.019601   100A      2.051301   101A      2.054025
     102A      2.738068   103A      2.738898   104A      2.790929
     105A      2.811420   106A      2.889538   107A      2.890280
     108A      2.895032   109A      2.929328   110A      2.929669
     111A      2.958996   112A      2.963963   113A      2.964791
     114A      3.034016   115A      3.070986   116A      3.071573
     117A      3.084362   118A      3.168540   119A      3.168996
     120A      3.180629   121A      3.284986   122A      3.285645
     123A      3.326667   124A      3.327649   125A      3.375626
     126A      3.489878   127A      3.490435   128A      3.514003
     129A      3.525312   130A      3.567562   131A      3.569231
     132A      3.575160   133A      3.665622   134A      3.667116
     135A      3.679666   136A      3.693774   137A      3.694488
     138A      3.775441   139A      3.778129   140A      3.789171
     141A      3.911732   142A      3.912733   143A      4.034434
     144A      4.110232   145A      4.112480   146A      4.147296
     147A      4.148893   148A      4.173231   149A      4.201576
     150A      4.203281   151A      4.203888   152A      4.210950
     153A      4.315014   154A      4.316965   155A      4.358983
     156A      4.423861   157A      4.425065   158A      4.443435
     159A      4.515807   160A      4.517881   161A      4.577610
     162A      4.578893   163A      4.617556   164A      4.709451
     165A      4.773876   166A      4.775359   167A      4.836910
     168A      4.962853   169A      5.001986   170A      5.003923
     171A      5.227994   172A      5.244729   173A      5.248886
     174A      5.354001   175A      5.357085   176A      5.479378

    Beta Occupied:

       1A    -10.167974     2A    -10.167746     3A    -10.167603
       4A    -10.166519     5A     -0.781093     6A     -0.684122
       7A     -0.683859     8A     -0.511749     9A     -0.431125
      10A     -0.430963    11A     -0.421820    12A     -0.376741
      13A     -0.376626    14A     -0.362594    15A     -0.333273
      16A     -0.332970

    Beta Virtual:

      17A     -0.025743    18A      0.077080    19A      0.134876
      20A      0.135215    21A      0.144454    22A      0.144539
      23A      0.163337    24A      0.182346    25A      0.182554
      26A      0.215032    27A      0.218930    28A      0.282000
      29A      0.282667    30A      0.400364    31A      0.400429
      32A      0.419792    33A      0.426814    34A      0.427006
      35A      0.468502    36A      0.497490    37A      0.497808
      38A      0.513896    39A      0.556324    40A      0.584114
      41A      0.584613    42A      0.597542    43A      0.598082
      44A      0.610003    45A      0.628138    46A      0.631918
      47A      0.639394    48A      0.639687    49A      0.666589
      50A      0.667377    51A      0.686335    52A      0.686645
      53A      0.757518    54A      0.830553    55A      0.830589
      56A      0.855275    57A      0.922751    58A      0.923243
      59A      0.945960    60A      0.953539    61A      0.966421
      62A      0.966785    63A      1.008693    64A      1.132031
      65A      1.132223    66A      1.155570    67A      1.168192
      68A      1.168535    69A      1.232300    70A      1.279825
      71A      1.280324    72A      1.285136    73A      1.329229
      74A      1.329463    75A      1.365374    76A      1.371031
      77A      1.371549    78A      1.393503    79A      1.406903
      80A      1.408145    81A      1.421573    82A      1.422761
      83A      1.428190    84A      1.492538    85A      1.509523
      86A      1.546778    87A      1.547712    88A      1.582085
      89A      1.582550    90A      1.674672    91A      1.744848
      92A      1.745480    93A      1.779123    94A      1.834340
      95A      1.836161    96A      1.972576    97A      2.024961
      98A      2.025914    99A      2.039674   100A      2.058072
     101A      2.060696   102A      2.746409   103A      2.747228
     104A      2.811832   105A      2.816064   106A      2.902280
     107A      2.902990   108A      2.924639   109A      2.931825
     110A      2.932153   111A      2.960058   112A      2.968507
     113A      2.969342   114A      3.041949   115A      3.080899
     116A      3.081459   117A      3.086201   118A      3.184139
     119A      3.184824   120A      3.188384   121A      3.289773
     122A      3.290454   123A      3.330469   124A      3.331457
     125A      3.383444   126A      3.492610   127A      3.493165
     128A      3.512373   129A      3.528360   130A      3.574984
     131A      3.580924   132A      3.582575   133A      3.670358
     134A      3.671899   135A      3.692946   136A      3.725527
     137A      3.725988   138A      3.780033   139A      3.782615
     140A      3.817691   141A      3.921586   142A      3.922513
     143A      4.045320   144A      4.117057   145A      4.119284
     146A      4.154596   147A      4.156019   148A      4.187279
     149A      4.207864   150A      4.209829   151A      4.210900
     152A      4.215430   153A      4.322437   154A      4.324419
     155A      4.362346   156A      4.432087   157A      4.433263
     158A      4.446323   159A      4.523603   160A      4.525663
     161A      4.588206   162A      4.589495   163A      4.624755
     164A      4.719796   165A      4.780862   166A      4.782281
     167A      4.839827   168A      4.967648   169A      5.006027
     170A      5.007961   171A      5.233708   172A      5.246524
     173A      5.250661   174A      5.360461   175A      5.363585
     176A      5.481700

    Final Occupation by Irrep:
              A
    DOCC [    16 ]
    SOCC [     1 ]

  @DF-UKS Final Energy:  -157.81305831068460

   => Energetics <=

    Nuclear Repulsion Energy =            125.3946633710484093
    One-Electron Energy =                -458.7489591366417017
    Two-Electron Energy =                 195.8483846913203763
    DFT Exchange-Correlation Energy =     -20.3071472364116801
    Empirical Dispersion Energy =           0.0000000000000000
    VV10 Nonlocal Energy =                  0.0000000000000000
    Total Energy =                       -157.8130583106845961

  UHF NO Occupations:
  HONO-2 :   15  A 1.9996008
  HONO-1 :   16  A 1.9989804
  HONO-0 :   17  A 1.0000000
  LUNO+0 :   18  A 0.0010196
  LUNO+1 :   19  A 0.0003992
  LUNO+2 :   20  A 0.0001981
  LUNO+3 :   21  A 0.0001970

Computation Completed

Properties will be evaluated at   0.000000,   0.000000,   0.000000 [a0]

Properties computed using the SCF density matrix

  Nuclear Dipole Moment: [e a0]
     X:     0.8272      Y:     0.0016      Z:     0.0033

  Electronic Dipole Moment: [e a0]
     X:    -0.7493      Y:    -0.0023      Z:    -0.0032

  Dipole Moment: [e a0]
     X:     0.0779      Y:    -0.0006      Z:     0.0000     Total:     0.0779

  Dipole Moment: [D]
     X:     0.1980      Y:    -0.0017      Z:     0.0001     Total:     0.1980

*** tstop() called on n049 at Fri Nov  5 14:20:39 2021
Module time:
	user time   =     549.98 seconds =       9.17 minutes
	system time =      12.22 seconds =       0.20 minutes
	total time  =        141 seconds =       2.35 minutes
Total time:
	user time   =     549.98 seconds =       9.17 minutes
	system time =      12.22 seconds =       0.20 minutes
	total time  =        141 seconds =       2.35 minutes
Grab this energy -157.8130583106846
    Psi4 stopped on: Friday, 05 November 2021 02:20PM
    Psi4 wall time for execution: 0:02:21.50

*** Psi4 exiting successfully. Buy a developer a beer!
