                               Psi4 1.4a2.dev629

  ==> Input File <==

--------------------------------------------------------------------------
import os
memory 14 GB

molecule {
 C   -0.3233397770   -0.0002498054   -0.0000000000
 C    0.0617446969   -1.4012026725   -2.4266168363
 C    0.0598132200    2.8010254503    0.0000000000
 C    0.0617446969   -1.4012026725    2.4266168363
 H    2.0864669669   -1.6471138875   -2.8495050424
 H   -0.7625853204   -0.3879853558   -4.0224738128
 H   -0.7645725671   -3.2889624591   -2.3494427532
 H    2.0877299400    3.2815055265    0.0000000000
 H   -0.7694594062    3.6841116324    1.6806514045
 H   -0.7694594062    3.6841116324   -1.6806514045
 H    2.0864669669   -1.6471138875    2.8495050424
 H   -0.7645725671   -3.2889624591    2.3494427532
 H   -0.7625853204   -0.3879853558    4.0224738128
units bohr
0 2
}

basis {

assign 6-31g_2dfp_

[ 6-31g_2dfp_ ]

spherical

!----------------------------------------------------------------------
! Basis Set Exchange
! Version v0.8.13
! https://www.basissetexchange.org
!----------------------------------------------------------------------
!   Basis set: 6-31G(2df,p)
! Description: 6-31G(2df,p)
!        Role: orbital
!     Version: 0  (Data from the original Basis Set Exchange)
!----------------------------------------------------------------------

****
H     0
S    3   1.00
     18.7311370              0.03349460
      2.8253937              0.23472695
      0.6401217              0.81375733
S    1   1.00
      0.1612778              1.00000000
P    1   1.00
      1.5000000              1.0000000
P    1   1.00
      0.3750000              1.0000000
****
B     0
S    6   1.00
   2068.8823000              0.0018663
    310.6495700              0.0142515
     70.6830330              0.0695516
     19.8610800              0.2325729
      6.2993048              0.4670787
      2.1270270              0.3634314
SP   3   1.00
      4.7279710             -0.1303938              0.0745976
      1.1903377             -0.1307889              0.3078467
      0.3594117              1.1309444              0.7434568
SP   1   1.00
      0.1267512              1.0000000              1.0000000
D    1   1.00
      0.8020000              1.0000000
D    1   1.00
      0.2005000              1.0000000
F    1   1.00
      0.5000000              1.0000000
****
C     0
S    6   1.00
   3047.5249000              0.0018347
    457.3695100              0.0140373
    103.9486900              0.0688426
     29.2101550              0.2321844
      9.2866630              0.4679413
      3.1639270              0.3623120
SP   3   1.00
      7.8682724             -0.1193324              0.0689991
      1.8812885             -0.1608542              0.3164240
      0.5442493              1.1434564              0.7443083
SP   1   1.00
      0.1687144              1.0000000              1.0000000
D    1   1.00
      1.2520000              1.0000000
D    1   1.00
      0.3130000              1.0000000
F    1   1.00
      0.8000000              1.0000000
****
N     0
S    6   1.00
   4173.5110000              0.0018348
    627.4579000              0.0139950
    142.9021000              0.0685870
     40.2343300              0.2322410
     12.8202100              0.4690700
      4.3904370              0.3604550
SP   3   1.00
     11.6263580             -0.1149610              0.0675800
      2.7162800             -0.1691180              0.3239070
      0.7722180              1.1458520              0.7408950
SP   1   1.00
      0.2120313              1.0000000              1.0000000
D    1   1.00
      1.8260000              1.0000000
D    1   1.00
      0.4565000              1.0000000
F    1   1.00
      1.0000000              1.0000000
****
O     0
S    6   1.00
   5484.6717000              0.0018311
    825.2349500              0.0139501
    188.0469600              0.0684451
     52.9645000              0.2327143
     16.8975700              0.4701930
      5.7996353              0.3585209
SP   3   1.00
     15.5396160             -0.1107775              0.0708743
      3.5999336             -0.1480263              0.3397528
      1.0137618              1.1307670              0.7271586
SP   1   1.00
      0.2700058              1.0000000              1.0000000
D    1   1.00
      2.5840000              1.0000000
D    1   1.00
      0.6460000              1.0000000
F    1   1.00
      1.4000000              1.0000000
****
F     0
S    6   1.00
   7001.7130900              0.0018196169
   1051.3660900              0.0139160796
    239.2856900              0.0684053245
     67.3974453              0.233185760
     21.5199573              0.471267439
      7.40310130             0.356618546
SP   3   1.00
     20.8479528             -0.108506975            0.0716287243
      4.80830834            -0.146451658            0.3459121030
      1.34406986             1.128688580            0.7224699570
SP   1   1.00
      0.358151393            1.0000000              1.0000000
D    1   1.00
      3.5000000              1.0000000
D    1   1.00
      0.8750000              1.0000000
F    1   1.00
      1.8500000              1.0000000
****
Al     0
S    6   1.00
  13983.1000000              0.00194267
   2098.7500000              0.0148599
    477.7050000              0.0728494
    134.3600000              0.2468300
     42.8709000              0.4872580
     14.5189000              0.3234960
SP   6   1.00
    239.6680000             -0.00292619             0.00460285
     57.4419000             -0.0374080              0.0331990
     18.2859000             -0.1144870              0.1362820
      6.5991400              0.1156350              0.3304760
      2.4904900              0.6125950              0.4491460
      0.9445400              0.3937990              0.2657040
SP   3   1.00
      1.2779000             -0.2276060             -0.0175130
      0.3975900              0.00144583             0.2445330
      0.1600950              1.0927900              0.8049340
SP   1   1.00
      0.0556577              1.0000000              1.0000000
D    1   1.00
      0.6500000              1.0000000
D    1   1.00
      0.1625000              1.0000000
F    1   1.00
      0.2500000              1.0000000
****
Si     0
S    6   1.00
  16115.9000000              0.00195948
   2425.5800000              0.01492880
    553.8670000              0.07284780
    156.3400000              0.24613000
     50.0683000              0.48591400
     17.0178000              0.32500200
SP   6   1.00
    292.7180000             -0.00278094             0.00443826
     69.8731000             -0.03571460             0.03266790
     22.3363000             -0.11498500             0.13472100
      8.1503900              0.09356340             0.32867800
      3.1345800              0.60301700             0.44964000
      1.2254300              0.41895900             0.26137200
SP   3   1.00
      1.7273800             -0.24463000            -0.01779510
      0.5729220              0.00431572             0.25353900
      0.2221920              1.09818000             0.80066900
SP   1   1.00
      0.0778369              1.00000000             1.00000000
D    1   1.00
      0.9000000              1.0000000
D    1   1.00
      0.2250000              1.0000000
F    1   1.00
      0.3200000              1.0000000
****
P     0
S    6   1.00
  19413.3000000              0.0018516
   2909.4200000              0.0142062
    661.3640000              0.0699995
    185.7590000              0.2400790
     59.1943000              0.4847620
     20.0310000              0.3352000
SP   6   1.00
    339.4780000             -0.00278217             0.00456462
     81.0101000             -0.0360499              0.03369360
     25.8780000             -0.1166310              0.13975500
      9.4522100              0.0968328              0.33936200
      3.6656600              0.6144180              0.45092100
      1.4674600              0.4037980              0.23858600
SP   3   1.00
      2.1562300             -0.2529230             -0.01776530
      0.7489970              0.0328517              0.27405800
      0.2831450              1.0812500              0.78542100
SP   1   1.00
      0.0998317              1.0000000              1.00000000
D    1   1.00
      1.1000000              1.0000000
D    1   1.00
      0.2750000              1.0000000
F    1   1.00
      0.4500000              1.0000000
****
S     0
S    6   1.00
  21917.1000000              0.0018690
   3301.4900000              0.0142300
    754.1460000              0.0696960
    212.7110000              0.2384870
     67.9896000              0.4833070
     23.0515000              0.3380740
SP   6   1.00
    423.7350000             -0.0023767              0.0040610
    100.7100000             -0.0316930              0.0306810
     32.1599000             -0.1133170              0.1304520
     11.8079000              0.0560900              0.3272050
      4.6311000              0.5922550              0.4528510
      1.8702500              0.4550060              0.2560420
SP   3   1.00
      2.6158400             -0.2503740             -0.0145110
      0.9221670              0.0669570              0.3102630
      0.3412870              1.0545100              0.7544830
SP   1   1.00
      0.1171670              1.0000000              1.0000000
D    1   1.00
      1.3000000              1.0000000
D    1   1.00
      0.3250000              1.0000000
F    1   1.00
      0.5500000              1.0000000
****
Cl     0
S    6   1.00
  25180.1000000              0.0018330
   3780.3500000              0.0140340
    860.4740000              0.0690970
    242.1450000              0.2374520
     77.3349000              0.4830340
     26.2470000              0.3398560
SP   6   1.00
    491.7650000             -0.0022974              0.0039894
    116.9840000             -0.0307140              0.0303180
     37.4153000             -0.1125280              0.1298800
     13.7834000              0.0450160              0.3279510
      5.4521500              0.5893530              0.4535270
      2.2258800              0.4652060              0.2521540
SP   3   1.00
      3.1864900             -0.2518300             -0.0142990
      1.1442700              0.0615890              0.3235720
      0.4203770              1.0601800              0.7435070
SP   1   1.00
      0.1426570              1.0000000              1.0000000
D    1   1.00
      1.5000000              1.0000000
D    1   1.00
      0.3750000              1.0000000
F    1   1.00
      0.7000000              1.0000000
****
}

set {
reference uhf
freeze_core true
e_convergence 10
d_convergence 10
dft_spherical_points 1202
dft_radial_points 99
}

e = energy('b3lyp')

print_out('Grab this energy {0}'.format(e))
--------------------------------------------------------------------------

    Molecular point group: cs

    Geometry (in Bohr), charge = 0, multiplicity = 2:

       Center              X                  Y                   Z               Mass
    ------------   -----------------  -----------------  -----------------  -----------------
         C           -0.323340320467     0.000064515939     0.000000000000    12.000000000000
         C            0.061744153433    -1.400888351161    -2.426616836300    12.000000000000
         C            0.059812676533     2.801339771639     0.000000000000    12.000000000000
         C            0.061744153433    -1.400888351161     2.426616836300    12.000000000000
         H            2.086466423433    -1.646799566161    -2.849505042400     1.007825032230
         H           -0.762585863867    -0.387671034461    -4.022473812800     1.007825032230
         H           -0.764573110567    -3.288648137761    -2.349442753200     1.007825032230
         H            2.087729396533     3.281819847839     0.000000000000     1.007825032230
         H           -0.769459949667     3.684425953739     1.680651404500     1.007825032230
         H           -0.769459949667     3.684425953739    -1.680651404500     1.007825032230
         H            2.086466423433    -1.646799566161     2.849505042400     1.007825032230
         H           -0.764573110567    -3.288648137761     2.349442753200     1.007825032230
         H           -0.762585863867    -0.387671034461     4.022473812800     1.007825032230

  Charge       = 0
  Multiplicity = 2
  Basis Set: ANONYMOUSAB3F29E4
    Blend: 6-31G_2DFP_
  Basis Set: (ANONYMOUSAB3F29E4 AUX)
    Blend: DEF2-UNIVERSAL-JKFIT

    Orbital Energies [Eh]
    ---------------------

    Alpha Occupied:

       1Ap   -10.180342     2Ap   -10.167719     1App  -10.166678
       3Ap   -10.166647     4Ap    -0.797767     2App   -0.686479
       5Ap    -0.685897     6Ap    -0.530775     7Ap    -0.441123
       8Ap    -0.434845     3App   -0.434503     9Ap    -0.382601
       4App   -0.382596     5App   -0.363611    10Ap    -0.338184
       6App   -0.337811    11Ap    -0.168961

    Alpha Virtual:

      12Ap     0.076070     7App    0.134094    13Ap     0.134196
       8App    0.142324    14Ap     0.142945    15Ap     0.154876
      16Ap     0.178589     9App    0.178966    17Ap     0.203550
      10App    0.214807    11App    0.275918    18Ap     0.276052
      19Ap     0.399017    12App    0.399436    20Ap     0.403346
      21Ap     0.424090    13App    0.424105    22Ap     0.456593
      23Ap     0.495309    14App    0.495471    15App    0.512162
      24Ap     0.513980    25Ap     0.578555    16App    0.579070
      26Ap     0.591589    17App    0.591679    27Ap     0.602569
      28Ap     0.624767    18App    0.631551    19App    0.635874
      29Ap     0.636852    30Ap     0.663189    20App    0.663635
      31Ap     0.683441    21App    0.684285    32Ap     0.734992
      22App    0.824942    33Ap     0.825864    23App    0.853912
      24App    0.914698    34Ap     0.915357    25App    0.944097
      35Ap     0.944616    26App    0.960996    36Ap     0.961628
      37Ap     1.003451    38Ap     1.127370    27App    1.128853
      39Ap     1.142197    40Ap     1.163213    28App    1.163343
      41Ap     1.223330    42Ap     1.274179    29App    1.274770
      43Ap     1.279371    30App    1.323911    44Ap     1.324787
      45Ap     1.355991    46Ap     1.365793    31App    1.366316
      32App    1.392448    33App    1.403945    47Ap     1.404146
      34App    1.417045    48Ap     1.417124    35App    1.427933
      36App    1.491502    49Ap     1.499062    37App    1.542780
      50Ap     1.542905    38App    1.573692    51Ap     1.575223
      52Ap     1.669785    39App    1.739244    53Ap     1.739582
      54Ap     1.768310    55Ap     1.829454    40App    1.833438
      41App    1.971671    56Ap     2.018128    42App    2.018899
      57Ap     2.019400    43App    2.052138    58Ap     2.053168
      44App    2.738022    59Ap     2.738942    60Ap     2.790926
      45App    2.811437    61Ap     2.889511    46App    2.890397
      62Ap     2.894940    47App    2.929073    63Ap     2.929908
      48App    2.959020    64Ap     2.963662    49App    2.965100
      65Ap     3.034012    50App    3.070853    66Ap     3.071717
      51App    3.084365    67Ap     3.168672    52App    3.168895
      68Ap     3.180588    69Ap     3.285271    53App    3.285372
      70Ap     3.326337    54App    3.328005    71Ap     3.375606
      55App    3.488256    72Ap     3.492062    56App    3.514017
      73Ap     3.525353    74Ap     3.568278    57App    3.568479
      58App    3.575179    75Ap     3.665897    59App    3.666694
      76Ap     3.679761    60App    3.693917    77Ap     3.694308
      78Ap     3.776167    61App    3.777469    79Ap     3.789152
      80Ap     3.911654    62App    3.912798    81Ap     4.034442
      82Ap     4.110726    63App    4.111921    64App    4.145959
      83Ap     4.150123    84Ap     4.173275    85Ap     4.199837
      65App    4.203989    86Ap     4.205019    66App    4.211104
      87Ap     4.315468    67App    4.316449    68App    4.358980
      69App    4.424023    88Ap     4.424763    70App    4.443498
      71App    4.516478    89Ap     4.517130    72App    4.577923
      90Ap     4.578727    91Ap     4.617578    92Ap     4.709449
      73App    4.774117    93Ap     4.775089    74App    4.836852
      94Ap     4.962890    75App    5.002978    95Ap     5.002981
      96Ap     5.227889    76App    5.242520    97Ap     5.251065
      98Ap     5.352591    77App    5.358581    78App    5.479443

    Beta Occupied:

       1Ap   -10.168477     1App  -10.167431     2Ap   -10.167418
       3Ap   -10.166517     4Ap    -0.781092     2App   -0.684287
       5Ap    -0.683695     6Ap    -0.511746     7Ap    -0.431238
       3App   -0.430851     8Ap    -0.421821     4App   -0.376684
       9Ap    -0.376684     5App   -0.362595    10Ap    -0.333288
       6App   -0.332954

    Beta Virtual:

      11Ap    -0.025742    12Ap     0.077079     7App    0.134933
      13Ap     0.135135     8App    0.144266    14Ap     0.144746
      15Ap     0.163335    16Ap     0.182276     9App    0.182624
      10App    0.215036    17Ap     0.218932    11App    0.282259
      18Ap     0.282408    19Ap     0.400188    12App    0.400605
      20Ap     0.419792    21Ap     0.426903    13App    0.426914
      22Ap     0.468500    23Ap     0.497570    14App    0.497732
      15App    0.513897    24Ap     0.556324    25Ap     0.584092
      16App    0.584633    26Ap     0.597796    17App    0.597831
      27Ap     0.609994    28Ap     0.628143    18App    0.631809
      19App    0.639083    29Ap     0.640112    30Ap     0.666732
      20App    0.667220    31Ap     0.686127    21App    0.686870
      32Ap     0.757516    22App    0.830087    33Ap     0.831055
      23App    0.855267    24App    0.922696    34Ap     0.923301
      25App    0.945938    35Ap     0.953545    26App    0.966339
      36Ap     0.966892    37Ap     1.008692    38Ap     1.131429
      27App    1.132850    39Ap     1.155559    40Ap     1.168283
      28App    1.168435    41Ap     1.232301    42Ap     1.279791
      29App    1.280356    43Ap     1.285122    30App    1.328848
      44Ap     1.329828    45Ap     1.365406    46Ap     1.371034
      31App    1.371564    32App    1.393506    33App    1.407423
      47Ap     1.407598    48Ap     1.422125    34App    1.422126
      35App    1.428221    36App    1.492552    49Ap     1.509502
      37App    1.547244    50Ap     1.547262    38App    1.581479
      51Ap     1.583175    52Ap     1.674629    39App    1.745024
      53Ap     1.745325    54Ap     1.779091    55Ap     1.833345
      40App    1.837260    41App    1.972539    42App    2.025379
      56Ap     2.025524    57Ap     2.039697    43App    2.058778
      58Ap     2.059955    44App    2.746331    59Ap     2.747305
      45App    2.811849    60Ap     2.816061    61Ap     2.902255
      46App    2.903023    62Ap     2.924649    47App    2.931619
      63Ap     2.932330    48App    2.960083    64Ap     2.968168
      49App    2.969681    65Ap     3.041948    50App    3.080755
      66Ap     3.081614    51App    3.086205    67Ap     3.184434
      52App    3.184610    68Ap     3.188291    69Ap     3.290058
      53App    3.290181    70Ap     3.330133    54App    3.331818
      71Ap     3.383425    55App    3.491040    72Ap     3.494738
      56App    3.512384    73Ap     3.528398    57App    3.575001
      58App    3.581610    74Ap     3.581859    75Ap     3.670621
      59App    3.671507    76Ap     3.693022    77Ap     3.725687
      60App    3.725796    78Ap     3.780765    61App    3.781937
      79Ap     3.817685    80Ap     3.921477    62App    3.922608
      81Ap     4.045324    82Ap     4.117736    63App    4.118522
      64App    4.153311    83Ap     4.157216    84Ap     4.187333
      85Ap     4.206474    65App    4.209976    86Ap     4.212230
      66App    4.215590    87Ap     4.323004    67App    4.323792
      68App    4.362342    69App    4.432231    88Ap     4.432934
      70App    4.446439    71App    4.524213    89Ap     4.524978
      72App    4.588582    90Ap     4.589265    91Ap     4.624769
      92Ap     4.719793    73App    4.781072    93Ap     4.782041
      74App    4.839769    94Ap     4.967685    75App    5.007016
      95Ap     5.007021    96Ap     5.233604    76App    5.244309
      97Ap     5.252852    98Ap     5.359088    77App    5.365039
      78App    5.481764

    Final Occupation by Irrep:
             Ap   App
    DOCC [    10,    6 ]
    SOCC [     1,    0 ]

  @DF-UKS Final Energy:  -157.81305126976207

   => Energetics <=

    Nuclear Repulsion Energy =            125.3946634645476195
    One-Electron Energy =                -458.7489406115790302
    Two-Electron Energy =                 195.8483741040474513
    DFT Exchange-Correlation Energy =     -20.3071482267780752
    Empirical Dispersion Energy =           0.0000000000000000
    VV10 Nonlocal Energy =                  0.0000000000000000
    Total Energy =                       -157.8130512697620702

  UHF NO Occupations:
  HONO-2 :    9 Ap 1.9996009
  HONO-1 :   10 Ap 1.9989805
  HONO-0 :   11 Ap 1.0000000
  LUNO+0 :   12 Ap 0.0010195
  LUNO+1 :   13 Ap 0.0003991
  LUNO+2 :    7App 0.0001976
  LUNO+3 :   14 Ap 0.0001974

Computation Completed

Properties will be evaluated at   0.000000,   0.000000,   0.000000 [a0]

Properties computed using the SCF density matrix

  Nuclear Dipole Moment: [e a0]
     X:     0.8272      Y:     0.0022      Z:     0.0000

  Electronic Dipole Moment: [e a0]
     X:    -0.7493      Y:    -0.0039      Z:     0.0000

  Dipole Moment: [e a0]
     X:     0.0779      Y:    -0.0017      Z:     0.0000     Total:     0.0779

  Dipole Moment: [D]
     X:     0.1980      Y:    -0.0043      Z:     0.0000     Total:     0.1981

*** tstop() called on n032 at Fri Nov  5 15:10:16 2021
Module time:
	user time   =     635.51 seconds =      10.59 minutes
	system time =      11.85 seconds =       0.20 minutes
	total time  =        163 seconds =       2.72 minutes
Total time:
	user time   =     635.51 seconds =      10.59 minutes
	system time =      11.85 seconds =       0.20 minutes
	total time  =        163 seconds =       2.72 minutes
Grab this energy -157.81305126976207
    Psi4 stopped on: Friday, 05 November 2021 03:10PM
    Psi4 wall time for execution: 0:02:42.81

*** Psi4 exiting successfully. Buy a developer a beer!
