                               Psi4 1.4a2.dev629

  ==> Input File <==

--------------------------------------------------------------------------
import os
memory 14 GB

molecule {
 C   -0.3233393195   -0.0004356913    0.0000010414
 C    0.0612991541   -1.4018529996   -2.4257578174
 C    0.0607109228    2.8018654397    0.0000479743
 C    0.0612934444   -1.4019335113    2.4257087618
 H    2.0864852000   -1.6426912550   -2.8482589287
 H   -0.7720225372   -0.3882362821   -4.0265530754
 H   -0.7586085206   -3.2917803268   -2.3478643860
 H    2.0877051513    3.2880933350    0.0046572324
 H   -0.7700002366    3.6806294650    1.6735869424
 H   -0.7619863440    3.6801720325   -1.6775719426
 H    2.0864682410   -1.6507524092    2.8436065114
 H   -0.7666241159   -3.2885611361    2.3502404258
 H   -0.7639889166   -0.3845409744    4.0281572606
units bohr
0 2
}

basis {

assign 6-31g_2dfp_

[ 6-31g_2dfp_ ]

spherical

!----------------------------------------------------------------------
! Basis Set Exchange
! Version v0.8.13
! https://www.basissetexchange.org
!----------------------------------------------------------------------
!   Basis set: 6-31G(2df,p)
! Description: 6-31G(2df,p)
!        Role: orbital
!     Version: 0  (Data from the original Basis Set Exchange)
!----------------------------------------------------------------------

****
H     0
S    3   1.00
     18.7311370              0.03349460
      2.8253937              0.23472695
      0.6401217              0.81375733
S    1   1.00
      0.1612778              1.00000000
P    1   1.00
      1.5000000              1.0000000
P    1   1.00
      0.3750000              1.0000000
****
B     0
S    6   1.00
   2068.8823000              0.0018663
    310.6495700              0.0142515
     70.6830330              0.0695516
     19.8610800              0.2325729
      6.2993048              0.4670787
      2.1270270              0.3634314
SP   3   1.00
      4.7279710             -0.1303938              0.0745976
      1.1903377             -0.1307889              0.3078467
      0.3594117              1.1309444              0.7434568
SP   1   1.00
      0.1267512              1.0000000              1.0000000
D    1   1.00
      0.8020000              1.0000000
D    1   1.00
      0.2005000              1.0000000
F    1   1.00
      0.5000000              1.0000000
****
C     0
S    6   1.00
   3047.5249000              0.0018347
    457.3695100              0.0140373
    103.9486900              0.0688426
     29.2101550              0.2321844
      9.2866630              0.4679413
      3.1639270              0.3623120
SP   3   1.00
      7.8682724             -0.1193324              0.0689991
      1.8812885             -0.1608542              0.3164240
      0.5442493              1.1434564              0.7443083
SP   1   1.00
      0.1687144              1.0000000              1.0000000
D    1   1.00
      1.2520000              1.0000000
D    1   1.00
      0.3130000              1.0000000
F    1   1.00
      0.8000000              1.0000000
****
N     0
S    6   1.00
   4173.5110000              0.0018348
    627.4579000              0.0139950
    142.9021000              0.0685870
     40.2343300              0.2322410
     12.8202100              0.4690700
      4.3904370              0.3604550
SP   3   1.00
     11.6263580             -0.1149610              0.0675800
      2.7162800             -0.1691180              0.3239070
      0.7722180              1.1458520              0.7408950
SP   1   1.00
      0.2120313              1.0000000              1.0000000
D    1   1.00
      1.8260000              1.0000000
D    1   1.00
      0.4565000              1.0000000
F    1   1.00
      1.0000000              1.0000000
****
O     0
S    6   1.00
   5484.6717000              0.0018311
    825.2349500              0.0139501
    188.0469600              0.0684451
     52.9645000              0.2327143
     16.8975700              0.4701930
      5.7996353              0.3585209
SP   3   1.00
     15.5396160             -0.1107775              0.0708743
      3.5999336             -0.1480263              0.3397528
      1.0137618              1.1307670              0.7271586
SP   1   1.00
      0.2700058              1.0000000              1.0000000
D    1   1.00
      2.5840000              1.0000000
D    1   1.00
      0.6460000              1.0000000
F    1   1.00
      1.4000000              1.0000000
****
F     0
S    6   1.00
   7001.7130900              0.0018196169
   1051.3660900              0.0139160796
    239.2856900              0.0684053245
     67.3974453              0.233185760
     21.5199573              0.471267439
      7.40310130             0.356618546
SP   3   1.00
     20.8479528             -0.108506975            0.0716287243
      4.80830834            -0.146451658            0.3459121030
      1.34406986             1.128688580            0.7224699570
SP   1   1.00
      0.358151393            1.0000000              1.0000000
D    1   1.00
      3.5000000              1.0000000
D    1   1.00
      0.8750000              1.0000000
F    1   1.00
      1.8500000              1.0000000
****
Al     0
S    6   1.00
  13983.1000000              0.00194267
   2098.7500000              0.0148599
    477.7050000              0.0728494
    134.3600000              0.2468300
     42.8709000              0.4872580
     14.5189000              0.3234960
SP   6   1.00
    239.6680000             -0.00292619             0.00460285
     57.4419000             -0.0374080              0.0331990
     18.2859000             -0.1144870              0.1362820
      6.5991400              0.1156350              0.3304760
      2.4904900              0.6125950              0.4491460
      0.9445400              0.3937990              0.2657040
SP   3   1.00
      1.2779000             -0.2276060             -0.0175130
      0.3975900              0.00144583             0.2445330
      0.1600950              1.0927900              0.8049340
SP   1   1.00
      0.0556577              1.0000000              1.0000000
D    1   1.00
      0.6500000              1.0000000
D    1   1.00
      0.1625000              1.0000000
F    1   1.00
      0.2500000              1.0000000
****
Si     0
S    6   1.00
  16115.9000000              0.00195948
   2425.5800000              0.01492880
    553.8670000              0.07284780
    156.3400000              0.24613000
     50.0683000              0.48591400
     17.0178000              0.32500200
SP   6   1.00
    292.7180000             -0.00278094             0.00443826
     69.8731000             -0.03571460             0.03266790
     22.3363000             -0.11498500             0.13472100
      8.1503900              0.09356340             0.32867800
      3.1345800              0.60301700             0.44964000
      1.2254300              0.41895900             0.26137200
SP   3   1.00
      1.7273800             -0.24463000            -0.01779510
      0.5729220              0.00431572             0.25353900
      0.2221920              1.09818000             0.80066900
SP   1   1.00
      0.0778369              1.00000000             1.00000000
D    1   1.00
      0.9000000              1.0000000
D    1   1.00
      0.2250000              1.0000000
F    1   1.00
      0.3200000              1.0000000
****
P     0
S    6   1.00
  19413.3000000              0.0018516
   2909.4200000              0.0142062
    661.3640000              0.0699995
    185.7590000              0.2400790
     59.1943000              0.4847620
     20.0310000              0.3352000
SP   6   1.00
    339.4780000             -0.00278217             0.00456462
     81.0101000             -0.0360499              0.03369360
     25.8780000             -0.1166310              0.13975500
      9.4522100              0.0968328              0.33936200
      3.6656600              0.6144180              0.45092100
      1.4674600              0.4037980              0.23858600
SP   3   1.00
      2.1562300             -0.2529230             -0.01776530
      0.7489970              0.0328517              0.27405800
      0.2831450              1.0812500              0.78542100
SP   1   1.00
      0.0998317              1.0000000              1.00000000
D    1   1.00
      1.1000000              1.0000000
D    1   1.00
      0.2750000              1.0000000
F    1   1.00
      0.4500000              1.0000000
****
S     0
S    6   1.00
  21917.1000000              0.0018690
   3301.4900000              0.0142300
    754.1460000              0.0696960
    212.7110000              0.2384870
     67.9896000              0.4833070
     23.0515000              0.3380740
SP   6   1.00
    423.7350000             -0.0023767              0.0040610
    100.7100000             -0.0316930              0.0306810
     32.1599000             -0.1133170              0.1304520
     11.8079000              0.0560900              0.3272050
      4.6311000              0.5922550              0.4528510
      1.8702500              0.4550060              0.2560420
SP   3   1.00
      2.6158400             -0.2503740             -0.0145110
      0.9221670              0.0669570              0.3102630
      0.3412870              1.0545100              0.7544830
SP   1   1.00
      0.1171670              1.0000000              1.0000000
D    1   1.00
      1.3000000              1.0000000
D    1   1.00
      0.3250000              1.0000000
F    1   1.00
      0.5500000              1.0000000
****
Cl     0
S    6   1.00
  25180.1000000              0.0018330
   3780.3500000              0.0140340
    860.4740000              0.0690970
    242.1450000              0.2374520
     77.3349000              0.4830340
     26.2470000              0.3398560
SP   6   1.00
    491.7650000             -0.0022974              0.0039894
    116.9840000             -0.0307140              0.0303180
     37.4153000             -0.1125280              0.1298800
     13.7834000              0.0450160              0.3279510
      5.4521500              0.5893530              0.4535270
      2.2258800              0.4652060              0.2521540
SP   3   1.00
      3.1864900             -0.2518300             -0.0142990
      1.1442700              0.0615890              0.3235720
      0.4203770              1.0601800              0.7435070
SP   1   1.00
      0.1426570              1.0000000              1.0000000
D    1   1.00
      1.5000000              1.0000000
D    1   1.00
      0.3750000              1.0000000
F    1   1.00
      0.7000000              1.0000000
****
}

set {
reference uhf
freeze_core true
e_convergence 10
d_convergence 10
dft_spherical_points 1202
dft_radial_points 99
}

e = energy('b3lyp')

print_out('Grab this energy {0}'.format(e))
--------------------------------------------------------------------------

    Molecular point group: c1

    Geometry (in Bohr), charge = 0, multiplicity = 2:

       Center              X                  Y                   Z               Mass
    ------------   -----------------  -----------------  -----------------  -----------------
         C           -0.323340125876     0.000018667494     0.000001049085    12.000000000000
         C            0.061298347724    -1.401398640806    -2.425757809715    12.000000000000
         C            0.060710116424     2.802319798494     0.000047981985    12.000000000000
         C            0.061292638024    -1.401479152506     2.425708769485    12.000000000000
         H            2.086484393624    -1.642236896206    -2.848258921015     1.007825032230
         H           -0.772023343576    -0.387781923306    -4.026553067715     1.007825032230
         H           -0.758609326976    -3.291325968006    -2.347864378315     1.007825032230
         H            2.087704344924     3.288547693794     0.004657240085     1.007825032230
         H           -0.770001042976     3.681083823794     1.673586950085     1.007825032230
         H           -0.761987150376     3.680626391294    -1.677571934915     1.007825032230
         H            2.086467434624    -1.650298050406     2.843606519085     1.007825032230
         H           -0.766624922276    -3.288106777306     2.350240433485     1.007825032230
         H           -0.763989722976    -0.384086615606     4.028157268285     1.007825032230

  Charge       = 0
  Multiplicity = 2
  Basis Set: ANONYMOUSE5612EDE
    Blend: 6-31G_2DFP_
  Basis Set: (ANONYMOUSE5612EDE AUX)
    Blend: DEF2-UNIVERSAL-JKFIT

    Orbital Energies [Eh]
    ---------------------

    Alpha Occupied:

       1A    -10.180342     2A    -10.167033     3A    -10.167027
       4A    -10.166984     5A     -0.797766     6A     -0.686247
       7A     -0.686128     8A     -0.530778     9A     -0.441125
      10A     -0.434859    11A     -0.434480    12A     -0.382622
      13A     -0.382577    14A     -0.363612    15A     -0.338161
      16A     -0.337835    17A     -0.168961

    Alpha Virtual:

      18A      0.076070    19A      0.134041    20A      0.134267
      21A      0.142422    22A      0.142834    23A      0.154883
      24A      0.178685    25A      0.178869    26A      0.203546
      27A      0.214803    28A      0.275877    29A      0.276096
      30A      0.398985    31A      0.399470    32A      0.403346
      33A      0.423935    34A      0.424259    35A      0.456593
      36A      0.495339    37A      0.495441    38A      0.512147
      39A      0.513993    40A      0.578755    41A      0.578879
      42A      0.591490    43A      0.591776    44A      0.602569
      45A      0.624715    46A      0.631772    47A      0.636016
      48A      0.636529    49A      0.663201    50A      0.663623
      51A      0.683665    52A      0.684055    53A      0.734994
      54A      0.825158    55A      0.825657    56A      0.853914
      57A      0.914807    58A      0.915240    59A      0.944010
      60A      0.944713    61A      0.961205    62A      0.961393
      63A      1.003467    64A      1.127839    65A      1.128388
      66A      1.142224    67A      1.163215    68A      1.163323
      69A      1.223323    70A      1.274239    71A      1.274730
      72A      1.279354    73A      1.324143    74A      1.324562
      75A      1.355974    76A      1.365757    77A      1.366345
      78A      1.392463    79A      1.404005    80A      1.404095
      81A      1.416413    82A      1.417815    83A      1.427898
      84A      1.491471    85A      1.499095    86A      1.542815
      87A      1.542855    88A      1.574234    89A      1.574659
      90A      1.669832    91A      1.738700    92A      1.740129
      93A      1.768322    94A      1.830600    95A      1.832174
      96A      1.971752    97A      2.017508    98A      2.019238
      99A      2.019634   100A      2.052126   101A      2.053167
     102A      2.738304   103A      2.738666   104A      2.790917
     105A      2.811427   106A      2.889802   107A      2.890104
     108A      2.894942   109A      2.929470   110A      2.929525
     111A      2.958960   112A      2.964314   113A      2.964476
     114A      3.034009   115A      3.070664   116A      3.071845
     117A      3.084432   118A      3.168361   119A      3.169201
     120A      3.180588   121A      3.285151   122A      3.285470
     123A      3.326775   124A      3.327550   125A      3.375630
     126A      3.489879   127A      3.490455   128A      3.514001
     129A      3.525335   130A      3.567946   131A      3.568838
     132A      3.575128   133A      3.665897   134A      3.666911
     135A      3.679642   136A      3.693883   137A      3.694383
     138A      3.776662   139A      3.776922   140A      3.789128
     141A      3.911643   142A      3.912799   143A      4.034447
     144A      4.110821   145A      4.111856   146A      4.147856
     147A      4.148319   148A      4.173337   149A      4.202170
     150A      4.202656   151A      4.203909   152A      4.210962
     153A      4.315316   154A      4.316624   155A      4.358974
     156A      4.423919   157A      4.424998   158A      4.443447
     159A      4.515787   160A      4.517889   161A      4.578269
     162A      4.578273   163A      4.617548   164A      4.709421
     165A      4.773632   166A      4.775575   167A      4.836907
     168A      4.962864   169A      5.002588   170A      5.003330
     171A      5.227588   172A      5.246681   173A      5.247343
     174A      5.354272   175A      5.356761   176A      5.479411

    Beta Occupied:

       1A    -10.167786     2A    -10.167781     3A    -10.167757
       4A    -10.166519     5A     -0.781091     6A     -0.684052
       7A     -0.683929     8A     -0.511749     9A     -0.431230
      10A     -0.430853    11A     -0.421820    12A     -0.376703
      13A     -0.376666    14A     -0.362596    15A     -0.333280
      16A     -0.332963

    Beta Virtual:

      17A     -0.025742    18A      0.077079    19A      0.134906
      20A      0.135183    21A      0.144265    22A      0.144731
      23A      0.163340    24A      0.182356    25A      0.182540
      26A      0.215032    27A      0.218930    28A      0.282226
      29A      0.282442    30A      0.400149    31A      0.400646
      32A      0.419791    33A      0.426746    34A      0.427071
      35A      0.468501    36A      0.497594    37A      0.497706
      38A      0.513895    39A      0.556326    40A      0.584307
      41A      0.584427    42A      0.597644    43A      0.597978
      44A      0.609993    45A      0.628093    46A      0.631929
      47A      0.639321    48A      0.639793    49A      0.666779
      50A      0.667173    51A      0.686321    52A      0.686667
      53A      0.757518    54A      0.830338    55A      0.830814
      56A      0.855267    57A      0.922798    58A      0.923192
      59A      0.945943    60A      0.953544    61A      0.966493
      62A      0.966718    63A      1.008707    64A      1.131871
      65A      1.132412    66A      1.155603    67A      1.168292
      68A      1.168392    69A      1.232295    70A      1.279818
      71A      1.280345    72A      1.285108    73A      1.329133
      74A      1.329550    75A      1.365384    76A      1.371063
      77A      1.371524    78A      1.393528    79A      1.407452
      80A      1.407578    81A      1.421512    82A      1.422817
      83A      1.428167    84A      1.492534    85A      1.509525
      86A      1.547198    87A      1.547290    88A      1.582106
      89A      1.582527    90A      1.674679    91A      1.744450
      92A      1.745905    93A      1.779100    94A      1.834450
      95A      1.836034    96A      1.972612    97A      2.024845
      98A      2.026011    99A      2.039689   100A      2.058842
     101A      2.059894   102A      2.746629   103A      2.747013
     104A      2.811792   105A      2.816100   106A      2.902449
     107A      2.902834   108A      2.924652   109A      2.931960
     110A      2.931994   111A      2.960036   112A      2.968851
     113A      2.969015   114A      3.041943   115A      3.080466
     116A      3.081754   117A      3.086359   118A      3.184137
     119A      3.184921   120A      3.188274   121A      3.289939
     122A      3.290280   123A      3.330546   124A      3.331388
     125A      3.383447   126A      3.492623   127A      3.493173
     128A      3.512370   129A      3.528375   130A      3.574990
     131A      3.581206   132A      3.582256   133A      3.670771
     134A      3.671525   135A      3.692947   136A      3.725705
     137A      3.725821   138A      3.781163   139A      3.781478
     140A      3.817668   141A      3.921394   142A      3.922681
     143A      4.045335   144A      4.117428   145A      4.118884
     146A      4.154829   147A      4.155777   148A      4.187374
     149A      4.208125   150A      4.209819   151A      4.210628
     152A      4.215447   153A      4.322801   154A      4.324024
     155A      4.362336   156A      4.432155   157A      4.433188
     158A      4.446331   159A      4.523570   160A      4.525686
     161A      4.588839   162A      4.588907   163A      4.624740
     164A      4.719765   165A      4.780613   166A      4.782501
     167A      4.839825   168A      4.967658   169A      5.006629
     170A      5.007367   171A      5.233199   172A      5.248480
     173A      5.249222   174A      5.360761   175A      5.363227
     176A      5.481734

    Final Occupation by Irrep:
              A
    DOCC [    16 ]
    SOCC [     1 ]

  @DF-UKS Final Energy:  -157.81306134841202

   => Energetics <=

    Nuclear Repulsion Energy =            125.3946212194718157
    One-Electron Energy =                -458.7488833999219651
    Two-Electron Energy =                 195.8483462878161276
    DFT Exchange-Correlation Energy =     -20.3071454557779632
    Empirical Dispersion Energy =           0.0000000000000000
    VV10 Nonlocal Energy =                  0.0000000000000000
    Total Energy =                       -157.8130613484120204

  UHF NO Occupations:
  HONO-2 :   15  A 1.9996009
  HONO-1 :   16  A 1.9989805
  HONO-0 :   17  A 1.0000000
  LUNO+0 :   18  A 0.0010195
  LUNO+1 :   19  A 0.0003991
  LUNO+2 :   20  A 0.0001976
  LUNO+3 :   21  A 0.0001975

Computation Completed

Properties will be evaluated at   0.000000,   0.000000,   0.000000 [a0]

Properties computed using the SCF density matrix

  Nuclear Dipole Moment: [e a0]
     X:     0.8272      Y:     0.0032      Z:     0.0000

  Electronic Dipole Moment: [e a0]
     X:    -0.7493      Y:    -0.0049      Z:    -0.0000

  Dipole Moment: [e a0]
     X:     0.0779      Y:    -0.0017      Z:    -0.0000     Total:     0.0779

  Dipole Moment: [D]
     X:     0.1980      Y:    -0.0044      Z:    -0.0000     Total:     0.1981

*** tstop() called on n031 at Fri Nov  5 14:28:52 2021
Module time:
	user time   =     599.45 seconds =       9.99 minutes
	system time =      11.44 seconds =       0.19 minutes
	total time  =        154 seconds =       2.57 minutes
Total time:
	user time   =     599.45 seconds =       9.99 minutes
	system time =      11.44 seconds =       0.19 minutes
	total time  =        154 seconds =       2.57 minutes
Grab this energy -157.81306134841202
    Psi4 stopped on: Friday, 05 November 2021 02:28PM
    Psi4 wall time for execution: 0:02:33.65

*** Psi4 exiting successfully. Buy a developer a beer!
