                               Psi4 1.4a2.dev629

  ==> Input File <==

--------------------------------------------------------------------------
import os
memory 14 GB

molecule {
 C   -0.3236406612    0.0002214527    0.0000000000
 C    0.0613623210   -1.4038056290   -2.4322876882
 C    0.0609915233    2.8049337624    0.0000000000
 C    0.0613623210   -1.4038056290    2.4322876882
 H    2.0872703885   -1.6473634912   -2.8527759038
 H   -0.7656886622   -0.3907326638   -4.0305937776
 H   -0.7657455703   -3.2953006110   -2.3536198284
 H    2.0870046086    3.2953837732   -0.0000000000
 H   -0.7656801506    3.6869207441    1.6767269730
 H   -0.7656801506    3.6869207441   -1.6767269730
 H    2.0872703885   -1.6473634912    2.8527759038
 H   -0.7657455703   -3.2953006110    2.3536198284
 H   -0.7656886622   -0.3907326638    4.0305937776
units bohr
0 2
}

basis {

assign 6-31g_2dfp_

[ 6-31g_2dfp_ ]

spherical

!----------------------------------------------------------------------
! Basis Set Exchange
! Version v0.8.13
! https://www.basissetexchange.org
!----------------------------------------------------------------------
!   Basis set: 6-31G(2df,p)
! Description: 6-31G(2df,p)
!        Role: orbital
!     Version: 0  (Data from the original Basis Set Exchange)
!----------------------------------------------------------------------

****
H     0
S    3   1.00
     18.7311370              0.03349460
      2.8253937              0.23472695
      0.6401217              0.81375733
S    1   1.00
      0.1612778              1.00000000
P    1   1.00
      1.5000000              1.0000000
P    1   1.00
      0.3750000              1.0000000
****
B     0
S    6   1.00
   2068.8823000              0.0018663
    310.6495700              0.0142515
     70.6830330              0.0695516
     19.8610800              0.2325729
      6.2993048              0.4670787
      2.1270270              0.3634314
SP   3   1.00
      4.7279710             -0.1303938              0.0745976
      1.1903377             -0.1307889              0.3078467
      0.3594117              1.1309444              0.7434568
SP   1   1.00
      0.1267512              1.0000000              1.0000000
D    1   1.00
      0.8020000              1.0000000
D    1   1.00
      0.2005000              1.0000000
F    1   1.00
      0.5000000              1.0000000
****
C     0
S    6   1.00
   3047.5249000              0.0018347
    457.3695100              0.0140373
    103.9486900              0.0688426
     29.2101550              0.2321844
      9.2866630              0.4679413
      3.1639270              0.3623120
SP   3   1.00
      7.8682724             -0.1193324              0.0689991
      1.8812885             -0.1608542              0.3164240
      0.5442493              1.1434564              0.7443083
SP   1   1.00
      0.1687144              1.0000000              1.0000000
D    1   1.00
      1.2520000              1.0000000
D    1   1.00
      0.3130000              1.0000000
F    1   1.00
      0.8000000              1.0000000
****
N     0
S    6   1.00
   4173.5110000              0.0018348
    627.4579000              0.0139950
    142.9021000              0.0685870
     40.2343300              0.2322410
     12.8202100              0.4690700
      4.3904370              0.3604550
SP   3   1.00
     11.6263580             -0.1149610              0.0675800
      2.7162800             -0.1691180              0.3239070
      0.7722180              1.1458520              0.7408950
SP   1   1.00
      0.2120313              1.0000000              1.0000000
D    1   1.00
      1.8260000              1.0000000
D    1   1.00
      0.4565000              1.0000000
F    1   1.00
      1.0000000              1.0000000
****
O     0
S    6   1.00
   5484.6717000              0.0018311
    825.2349500              0.0139501
    188.0469600              0.0684451
     52.9645000              0.2327143
     16.8975700              0.4701930
      5.7996353              0.3585209
SP   3   1.00
     15.5396160             -0.1107775              0.0708743
      3.5999336             -0.1480263              0.3397528
      1.0137618              1.1307670              0.7271586
SP   1   1.00
      0.2700058              1.0000000              1.0000000
D    1   1.00
      2.5840000              1.0000000
D    1   1.00
      0.6460000              1.0000000
F    1   1.00
      1.4000000              1.0000000
****
F     0
S    6   1.00
   7001.7130900              0.0018196169
   1051.3660900              0.0139160796
    239.2856900              0.0684053245
     67.3974453              0.233185760
     21.5199573              0.471267439
      7.40310130             0.356618546
SP   3   1.00
     20.8479528             -0.108506975            0.0716287243
      4.80830834            -0.146451658            0.3459121030
      1.34406986             1.128688580            0.7224699570
SP   1   1.00
      0.358151393            1.0000000              1.0000000
D    1   1.00
      3.5000000              1.0000000
D    1   1.00
      0.8750000              1.0000000
F    1   1.00
      1.8500000              1.0000000
****
Al     0
S    6   1.00
  13983.1000000              0.00194267
   2098.7500000              0.0148599
    477.7050000              0.0728494
    134.3600000              0.2468300
     42.8709000              0.4872580
     14.5189000              0.3234960
SP   6   1.00
    239.6680000             -0.00292619             0.00460285
     57.4419000             -0.0374080              0.0331990
     18.2859000             -0.1144870              0.1362820
      6.5991400              0.1156350              0.3304760
      2.4904900              0.6125950              0.4491460
      0.9445400              0.3937990              0.2657040
SP   3   1.00
      1.2779000             -0.2276060             -0.0175130
      0.3975900              0.00144583             0.2445330
      0.1600950              1.0927900              0.8049340
SP   1   1.00
      0.0556577              1.0000000              1.0000000
D    1   1.00
      0.6500000              1.0000000
D    1   1.00
      0.1625000              1.0000000
F    1   1.00
      0.2500000              1.0000000
****
Si     0
S    6   1.00
  16115.9000000              0.00195948
   2425.5800000              0.01492880
    553.8670000              0.07284780
    156.3400000              0.24613000
     50.0683000              0.48591400
     17.0178000              0.32500200
SP   6   1.00
    292.7180000             -0.00278094             0.00443826
     69.8731000             -0.03571460             0.03266790
     22.3363000             -0.11498500             0.13472100
      8.1503900              0.09356340             0.32867800
      3.1345800              0.60301700             0.44964000
      1.2254300              0.41895900             0.26137200
SP   3   1.00
      1.7273800             -0.24463000            -0.01779510
      0.5729220              0.00431572             0.25353900
      0.2221920              1.09818000             0.80066900
SP   1   1.00
      0.0778369              1.00000000             1.00000000
D    1   1.00
      0.9000000              1.0000000
D    1   1.00
      0.2250000              1.0000000
F    1   1.00
      0.3200000              1.0000000
****
P     0
S    6   1.00
  19413.3000000              0.0018516
   2909.4200000              0.0142062
    661.3640000              0.0699995
    185.7590000              0.2400790
     59.1943000              0.4847620
     20.0310000              0.3352000
SP   6   1.00
    339.4780000             -0.00278217             0.00456462
     81.0101000             -0.0360499              0.03369360
     25.8780000             -0.1166310              0.13975500
      9.4522100              0.0968328              0.33936200
      3.6656600              0.6144180              0.45092100
      1.4674600              0.4037980              0.23858600
SP   3   1.00
      2.1562300             -0.2529230             -0.01776530
      0.7489970              0.0328517              0.27405800
      0.2831450              1.0812500              0.78542100
SP   1   1.00
      0.0998317              1.0000000              1.00000000
D    1   1.00
      1.1000000              1.0000000
D    1   1.00
      0.2750000              1.0000000
F    1   1.00
      0.4500000              1.0000000
****
S     0
S    6   1.00
  21917.1000000              0.0018690
   3301.4900000              0.0142300
    754.1460000              0.0696960
    212.7110000              0.2384870
     67.9896000              0.4833070
     23.0515000              0.3380740
SP   6   1.00
    423.7350000             -0.0023767              0.0040610
    100.7100000             -0.0316930              0.0306810
     32.1599000             -0.1133170              0.1304520
     11.8079000              0.0560900              0.3272050
      4.6311000              0.5922550              0.4528510
      1.8702500              0.4550060              0.2560420
SP   3   1.00
      2.6158400             -0.2503740             -0.0145110
      0.9221670              0.0669570              0.3102630
      0.3412870              1.0545100              0.7544830
SP   1   1.00
      0.1171670              1.0000000              1.0000000
D    1   1.00
      1.3000000              1.0000000
D    1   1.00
      0.3250000              1.0000000
F    1   1.00
      0.5500000              1.0000000
****
Cl     0
S    6   1.00
  25180.1000000              0.0018330
   3780.3500000              0.0140340
    860.4740000              0.0690970
    242.1450000              0.2374520
     77.3349000              0.4830340
     26.2470000              0.3398560
SP   6   1.00
    491.7650000             -0.0022974              0.0039894
    116.9840000             -0.0307140              0.0303180
     37.4153000             -0.1125280              0.1298800
     13.7834000              0.0450160              0.3279510
      5.4521500              0.5893530              0.4535270
      2.2258800              0.4652060              0.2521540
SP   3   1.00
      3.1864900             -0.2518300             -0.0142990
      1.1442700              0.0615890              0.3235720
      0.4203770              1.0601800              0.7435070
SP   1   1.00
      0.1426570              1.0000000              1.0000000
D    1   1.00
      1.5000000              1.0000000
D    1   1.00
      0.3750000              1.0000000
F    1   1.00
      0.7000000              1.0000000
****
}

set {
reference uhf
freeze_core true
e_convergence 10
d_convergence 10
dft_spherical_points 1202
dft_radial_points 99
}

e = energy('b3lyp')

print_out('Grab this energy {0}'.format(e))
--------------------------------------------------------------------------

    Molecular point group: cs

    Geometry (in Bohr), charge = 0, multiplicity = 2:

       Center              X                  Y                   Z               Mass
    ------------   -----------------  -----------------  -----------------  -----------------
         C           -0.323662905206     0.000694933612     0.000000000000    12.000000000000
         C            0.061340076994    -1.403332148088    -2.432287688200    12.000000000000
         C            0.060969279294     2.805407243312     0.000000000000    12.000000000000
         C            0.061340076994    -1.403332148088     2.432287688200    12.000000000000
         H            2.087248144494    -1.646890010288    -2.852775903800     1.007825032230
         H           -0.765710906206    -0.390259182888    -4.030593777600     1.007825032230
         H           -0.765767814306    -3.294827130088    -2.353619828400     1.007825032230
         H            2.086982364594     3.295857254112     0.000000000000     1.007825032230
         H           -0.765702394606     3.687394225012     1.676726973000     1.007825032230
         H           -0.765702394606     3.687394225012    -1.676726973000     1.007825032230
         H            2.087248144494    -1.646890010288     2.852775903800     1.007825032230
         H           -0.765767814306    -3.294827130088     2.353619828400     1.007825032230
         H           -0.765710906206    -0.390259182888     4.030593777600     1.007825032230

  Charge       = 0
  Multiplicity = 2
  Basis Set: ANONYMOUS1385B8FC
    Blend: 6-31G_2DFP_
  Basis Set: (ANONYMOUS1385B8FC AUX)
    Blend: DEF2-UNIVERSAL-JKFIT

    Orbital Energies [Eh]
    ---------------------

    Alpha Occupied:

       1Ap   -10.181113     2Ap   -10.167424     1App  -10.167370
       3Ap   -10.167334     4Ap    -0.796721     2App   -0.685910
       5Ap    -0.685864     6Ap    -0.530778     7Ap    -0.440531
       8Ap    -0.434274     3App   -0.434110     4App   -0.382614
       9Ap    -0.382435     5App   -0.363730    10Ap    -0.338019
       6App   -0.337602    11Ap    -0.169286

    Alpha Virtual:

      12Ap     0.076102    13Ap     0.134094     7App    0.134135
       8App    0.142360    14Ap     0.142493    15Ap     0.154818
      16Ap     0.178521     9App    0.178685    17Ap     0.202435
      10App    0.214457    11App    0.275226    18Ap     0.275681
      12App    0.399244    19Ap     0.399250    20Ap     0.403550
      13App    0.424337    21Ap     0.424429    22Ap     0.456031
      14App    0.495143    23Ap     0.495184    15App    0.511826
      24Ap     0.513571    16App    0.578080    25Ap     0.578156
      26Ap     0.591029    17App    0.591154    27Ap     0.602125
      28Ap     0.624355    18App    0.631418    19App    0.635289
      29Ap     0.635616    20App    0.662869    30Ap     0.662994
      31Ap     0.683387    21App    0.683435    32Ap     0.735194
      33Ap     0.825508    22App    0.825616    23App    0.852910
      24App    0.914282    34Ap     0.914319    25App    0.942802
      35Ap     0.945183    36Ap     0.960311    26App    0.960360
      37Ap     1.002333    27App    1.127151    38Ap     1.127280
      39Ap     1.141886    28App    1.162209    40Ap     1.162771
      41Ap     1.222435    29App    1.273283    42Ap     1.273871
      43Ap     1.278853    30App    1.323953    44Ap     1.324089
      45Ap     1.355821    31App    1.364083    46Ap     1.364386
      32App    1.390934    47Ap     1.404124    33App    1.404509
      34App    1.416573    48Ap     1.416933    35App    1.426495
      36App    1.490295    49Ap     1.498508    37App    1.542018
      50Ap     1.542161    38App    1.573086    51Ap     1.573473
      52Ap     1.669893    53Ap     1.738649    39App    1.738923
      54Ap     1.766804    55Ap     1.829698    40App    1.830700
      41App    1.970360    56Ap     2.015985    42App    2.017408
      57Ap     2.018481    43App    2.047511    58Ap     2.048870
      59Ap     2.737759    44App    2.738005    60Ap     2.789761
      45App    2.808704    46App    2.888716    61Ap     2.888852
      62Ap     2.893426    47App    2.929272    63Ap     2.929382
      48App    2.958757    49App    2.964601    64Ap     2.964753
      65Ap     3.034038    66Ap     3.070212    50App    3.070480
      51App    3.082783    52App    3.167748    67Ap     3.168097
      68Ap     3.178754    53App    3.284786    69Ap     3.284790
      54App    3.326553    70Ap     3.326930    71Ap     3.376971
      55App    3.488023    72Ap     3.488683    56App    3.513232
      73Ap     3.522980    57App    3.568366    74Ap     3.568574
      58App    3.573028    75Ap     3.665712    59App    3.667119
      76Ap     3.677745    77Ap     3.692588    60App    3.692816
      61App    3.772162    78Ap     3.772506    79Ap     3.788418
      62App    3.909389    80Ap     3.910888    81Ap     4.032618
      63App    4.108344    82Ap     4.108610    64App    4.147107
      83Ap     4.147742    84Ap     4.172035    65App    4.200346
      85Ap     4.200775    86Ap     4.201608    66App    4.209245
      67App    4.313696    87Ap     4.315134    68App    4.356488
      69App    4.421374    88Ap     4.423344    70App    4.441111
      71App    4.513221    89Ap     4.514510    72App    4.574692
      90Ap     4.574746    91Ap     4.610248    92Ap     4.704686
      93Ap     4.767846    73App    4.768450    74App    4.832964
      94Ap     4.959812    95Ap     5.000668    75App    5.002049
      96Ap     5.227026    76App    5.245201    97Ap     5.245599
      77App    5.352854    98Ap     5.352958    78App    5.473648

    Beta Occupied:

       1Ap   -10.168182     1App  -10.168119     2Ap   -10.168107
       3Ap   -10.167260     4Ap    -0.780069     2App   -0.683739
       5Ap    -0.683681     6Ap    -0.511649     7Ap    -0.430665
       3App   -0.430498     8Ap    -0.421325     4App   -0.376756
       9Ap    -0.376537     5App   -0.362725    10Ap    -0.333138
       6App   -0.332720

    Beta Virtual:

      11Ap    -0.025775    12Ap     0.077100     7App    0.135010
      13Ap     0.135011     8App    0.144219    14Ap     0.144318
      15Ap     0.163234    16Ap     0.182178     9App    0.182318
      10App    0.214680    17Ap     0.217998    11App    0.281653
      18Ap     0.282090    12App    0.400384    19Ap     0.400386
      20Ap     0.420092    13App    0.427156    21Ap     0.427250
      22Ap     0.467585    14App    0.497383    23Ap     0.497438
      15App    0.513546    24Ap     0.555986    16App    0.583620
      25Ap     0.583705    26Ap     0.597268    17App    0.597392
      27Ap     0.609513    28Ap     0.627670    18App    0.631566
      19App    0.638504    29Ap     0.638826    20App    0.666467
      30Ap     0.666604    31Ap     0.685956    21App    0.685980
      32Ap     0.757895    33Ap     0.830654    22App    0.830773
      23App    0.854227    24App    0.922238    34Ap     0.922280
      25App    0.944635    35Ap     0.954202    36Ap     0.965595
      26App    0.965638    37Ap     1.007651    27App    1.131184
      38Ap     1.131309    39Ap     1.155246    28App    1.167261
      40Ap     1.167862    41Ap     1.231267    29App    1.278838
      42Ap     1.279433    43Ap     1.284672    30App    1.328960
      44Ap     1.329068    45Ap     1.365208    31App    1.369359
      46Ap     1.369610    32App    1.391983    47Ap     1.407677
      33App    1.407954    34App    1.421579    48Ap     1.421906
      35App    1.426738    36App    1.491344    49Ap     1.508889
      37App    1.546475    50Ap     1.546632    38App    1.580882
      51Ap     1.581283    52Ap     1.674732    53Ap     1.744404
      39App    1.744685    54Ap     1.777562    55Ap     1.833545
      40App    1.834527    41App    1.971215    42App    2.023794
      56Ap     2.024863    57Ap     2.037306    43App    2.054195
      58Ap     2.055563    59Ap     2.746212    44App    2.746413
      45App    2.809111    60Ap     2.814916    46App    2.901644
      61Ap     2.901741    62Ap     2.923061    47App    2.931608
      63Ap     2.931693    48App    2.959807    49App    2.969074
      64Ap     2.969254    65Ap     3.041885    66Ap     3.080041
      50App    3.080294    51App    3.084586    52App    3.183594
      67Ap     3.183889    68Ap     3.186567    69Ap     3.289387
      53App    3.289436    54App    3.330442    70Ap     3.330800
      71Ap     3.384808    55App    3.490745    72Ap     3.491454
      56App    3.511607    73Ap     3.526077    57App    3.572862
      58App    3.581677    74Ap     3.581910    75Ap     3.670538
      59App    3.672005    76Ap     3.691053    77Ap     3.724390
      60App    3.724634    61App    3.776604    78Ap     3.777033
      79Ap     3.817097    62App    3.919250    80Ap     3.920646
      81Ap     4.043575    63App    4.115331    82Ap     4.115799
      64App    4.154229    83Ap     4.154673    84Ap     4.185980
      65App    4.206273    85Ap     4.207018    86Ap     4.209220
      66App    4.213646    67App    4.321076    87Ap     4.322571
      68App    4.359871    69App    4.429489    88Ap     4.431424
      70App    4.444005    71App    4.520889    89Ap     4.522168
      72App    4.585258    90Ap     4.585343    91Ap     4.617456
      92Ap     4.714949    93Ap     4.774817    73App    4.775380
      74App    4.835883    94Ap     4.964585    95Ap     5.004682
      75App    5.006034    96Ap     5.232703    76App    5.246980
      97Ap     5.247364    77App    5.359259    98Ap     5.359405
      78App    5.475947

    Final Occupation by Irrep:
             Ap   App
    DOCC [    10,    6 ]
    SOCC [     1,    0 ]

  @DF-UKS Final Energy:  -157.81307177568880

   => Energetics <=

    Nuclear Repulsion Energy =            125.2136567380547802
    One-Electron Energy =                -458.3925866991578459
    Two-Electron Energy =                 195.6692086961863026
    DFT Exchange-Correlation Energy =     -20.3033505107720416
    Empirical Dispersion Energy =           0.0000000000000000
    VV10 Nonlocal Energy =                  0.0000000000000000
    Total Energy =                       -157.8130717756887975

  UHF NO Occupations:
  HONO-2 :    9 Ap 1.9996026
  HONO-1 :   10 Ap 1.9989734
  HONO-0 :   11 Ap 1.0000000
  LUNO+0 :   12 Ap 0.0010266
  LUNO+1 :   13 Ap 0.0003974
  LUNO+2 :    7App 0.0002001
  LUNO+3 :   14 Ap 0.0001993

Computation Completed

Properties will be evaluated at   0.000000,   0.000000,   0.000000 [a0]

Properties computed using the SCF density matrix

  Nuclear Dipole Moment: [e a0]
     X:     0.8270      Y:     0.0033      Z:     0.0000

  Electronic Dipole Moment: [e a0]
     X:    -0.7483      Y:    -0.0034      Z:     0.0000

  Dipole Moment: [e a0]
     X:     0.0788      Y:    -0.0001      Z:     0.0000     Total:     0.0788

  Dipole Moment: [D]
     X:     0.2002      Y:    -0.0002      Z:     0.0000     Total:     0.2002

*** tstop() called on n089 at Fri Nov  5 13:05:26 2021
Module time:
	user time   =     506.47 seconds =       8.44 minutes
	system time =       4.49 seconds =       0.07 minutes
	total time  =        129 seconds =       2.15 minutes
Total time:
	user time   =     506.47 seconds =       8.44 minutes
	system time =       4.49 seconds =       0.07 minutes
	total time  =        129 seconds =       2.15 minutes
Grab this energy -157.8130717756888
    Psi4 stopped on: Friday, 05 November 2021 01:05PM
    Psi4 wall time for execution: 0:02:08.50

*** Psi4 exiting successfully. Buy a developer a beer!
