                               Psi4 1.4a2.dev629

  ==> Input File <==

--------------------------------------------------------------------------
import os
memory 14 GB

molecule {
 C   -0.3215610044   -0.0000013598    0.0002250326
 C    0.0618399569   -1.4019398972   -2.4277387975
 C    0.0615786948    2.8015021950    0.0004829470
 C    0.0615566275   -1.3995566742    2.4245763319
 H    2.0866750633   -1.6467381925   -2.8522016880
 H   -0.7658936927   -0.3856817245   -4.0225542572
 H   -0.7661173200   -3.2906599842   -2.3453807891
 H    2.0864633218    3.2941354233   -0.0001866498
 H   -0.7661146602    3.6770379006    1.6769685724
 H   -0.7659947572    3.6770148805   -1.6771514819
 H    2.0865258734   -1.6474904870    2.8531316154
 H   -0.7658348710   -3.2910785307    2.3464495453
 H   -0.7657311089   -0.3865678628    4.0233796188
units bohr
0 2
}

basis {

assign 6-31g_2dfp_

[ 6-31g_2dfp_ ]

spherical

!----------------------------------------------------------------------
! Basis Set Exchange
! Version v0.8.13
! https://www.basissetexchange.org
!----------------------------------------------------------------------
!   Basis set: 6-31G(2df,p)
! Description: 6-31G(2df,p)
!        Role: orbital
!     Version: 0  (Data from the original Basis Set Exchange)
!----------------------------------------------------------------------

****
H     0
S    3   1.00
     18.7311370              0.03349460
      2.8253937              0.23472695
      0.6401217              0.81375733
S    1   1.00
      0.1612778              1.00000000
P    1   1.00
      1.5000000              1.0000000
P    1   1.00
      0.3750000              1.0000000
****
B     0
S    6   1.00
   2068.8823000              0.0018663
    310.6495700              0.0142515
     70.6830330              0.0695516
     19.8610800              0.2325729
      6.2993048              0.4670787
      2.1270270              0.3634314
SP   3   1.00
      4.7279710             -0.1303938              0.0745976
      1.1903377             -0.1307889              0.3078467
      0.3594117              1.1309444              0.7434568
SP   1   1.00
      0.1267512              1.0000000              1.0000000
D    1   1.00
      0.8020000              1.0000000
D    1   1.00
      0.2005000              1.0000000
F    1   1.00
      0.5000000              1.0000000
****
C     0
S    6   1.00
   3047.5249000              0.0018347
    457.3695100              0.0140373
    103.9486900              0.0688426
     29.2101550              0.2321844
      9.2866630              0.4679413
      3.1639270              0.3623120
SP   3   1.00
      7.8682724             -0.1193324              0.0689991
      1.8812885             -0.1608542              0.3164240
      0.5442493              1.1434564              0.7443083
SP   1   1.00
      0.1687144              1.0000000              1.0000000
D    1   1.00
      1.2520000              1.0000000
D    1   1.00
      0.3130000              1.0000000
F    1   1.00
      0.8000000              1.0000000
****
N     0
S    6   1.00
   4173.5110000              0.0018348
    627.4579000              0.0139950
    142.9021000              0.0685870
     40.2343300              0.2322410
     12.8202100              0.4690700
      4.3904370              0.3604550
SP   3   1.00
     11.6263580             -0.1149610              0.0675800
      2.7162800             -0.1691180              0.3239070
      0.7722180              1.1458520              0.7408950
SP   1   1.00
      0.2120313              1.0000000              1.0000000
D    1   1.00
      1.8260000              1.0000000
D    1   1.00
      0.4565000              1.0000000
F    1   1.00
      1.0000000              1.0000000
****
O     0
S    6   1.00
   5484.6717000              0.0018311
    825.2349500              0.0139501
    188.0469600              0.0684451
     52.9645000              0.2327143
     16.8975700              0.4701930
      5.7996353              0.3585209
SP   3   1.00
     15.5396160             -0.1107775              0.0708743
      3.5999336             -0.1480263              0.3397528
      1.0137618              1.1307670              0.7271586
SP   1   1.00
      0.2700058              1.0000000              1.0000000
D    1   1.00
      2.5840000              1.0000000
D    1   1.00
      0.6460000              1.0000000
F    1   1.00
      1.4000000              1.0000000
****
F     0
S    6   1.00
   7001.7130900              0.0018196169
   1051.3660900              0.0139160796
    239.2856900              0.0684053245
     67.3974453              0.233185760
     21.5199573              0.471267439
      7.40310130             0.356618546
SP   3   1.00
     20.8479528             -0.108506975            0.0716287243
      4.80830834            -0.146451658            0.3459121030
      1.34406986             1.128688580            0.7224699570
SP   1   1.00
      0.358151393            1.0000000              1.0000000
D    1   1.00
      3.5000000              1.0000000
D    1   1.00
      0.8750000              1.0000000
F    1   1.00
      1.8500000              1.0000000
****
Al     0
S    6   1.00
  13983.1000000              0.00194267
   2098.7500000              0.0148599
    477.7050000              0.0728494
    134.3600000              0.2468300
     42.8709000              0.4872580
     14.5189000              0.3234960
SP   6   1.00
    239.6680000             -0.00292619             0.00460285
     57.4419000             -0.0374080              0.0331990
     18.2859000             -0.1144870              0.1362820
      6.5991400              0.1156350              0.3304760
      2.4904900              0.6125950              0.4491460
      0.9445400              0.3937990              0.2657040
SP   3   1.00
      1.2779000             -0.2276060             -0.0175130
      0.3975900              0.00144583             0.2445330
      0.1600950              1.0927900              0.8049340
SP   1   1.00
      0.0556577              1.0000000              1.0000000
D    1   1.00
      0.6500000              1.0000000
D    1   1.00
      0.1625000              1.0000000
F    1   1.00
      0.2500000              1.0000000
****
Si     0
S    6   1.00
  16115.9000000              0.00195948
   2425.5800000              0.01492880
    553.8670000              0.07284780
    156.3400000              0.24613000
     50.0683000              0.48591400
     17.0178000              0.32500200
SP   6   1.00
    292.7180000             -0.00278094             0.00443826
     69.8731000             -0.03571460             0.03266790
     22.3363000             -0.11498500             0.13472100
      8.1503900              0.09356340             0.32867800
      3.1345800              0.60301700             0.44964000
      1.2254300              0.41895900             0.26137200
SP   3   1.00
      1.7273800             -0.24463000            -0.01779510
      0.5729220              0.00431572             0.25353900
      0.2221920              1.09818000             0.80066900
SP   1   1.00
      0.0778369              1.00000000             1.00000000
D    1   1.00
      0.9000000              1.0000000
D    1   1.00
      0.2250000              1.0000000
F    1   1.00
      0.3200000              1.0000000
****
P     0
S    6   1.00
  19413.3000000              0.0018516
   2909.4200000              0.0142062
    661.3640000              0.0699995
    185.7590000              0.2400790
     59.1943000              0.4847620
     20.0310000              0.3352000
SP   6   1.00
    339.4780000             -0.00278217             0.00456462
     81.0101000             -0.0360499              0.03369360
     25.8780000             -0.1166310              0.13975500
      9.4522100              0.0968328              0.33936200
      3.6656600              0.6144180              0.45092100
      1.4674600              0.4037980              0.23858600
SP   3   1.00
      2.1562300             -0.2529230             -0.01776530
      0.7489970              0.0328517              0.27405800
      0.2831450              1.0812500              0.78542100
SP   1   1.00
      0.0998317              1.0000000              1.00000000
D    1   1.00
      1.1000000              1.0000000
D    1   1.00
      0.2750000              1.0000000
F    1   1.00
      0.4500000              1.0000000
****
S     0
S    6   1.00
  21917.1000000              0.0018690
   3301.4900000              0.0142300
    754.1460000              0.0696960
    212.7110000              0.2384870
     67.9896000              0.4833070
     23.0515000              0.3380740
SP   6   1.00
    423.7350000             -0.0023767              0.0040610
    100.7100000             -0.0316930              0.0306810
     32.1599000             -0.1133170              0.1304520
     11.8079000              0.0560900              0.3272050
      4.6311000              0.5922550              0.4528510
      1.8702500              0.4550060              0.2560420
SP   3   1.00
      2.6158400             -0.2503740             -0.0145110
      0.9221670              0.0669570              0.3102630
      0.3412870              1.0545100              0.7544830
SP   1   1.00
      0.1171670              1.0000000              1.0000000
D    1   1.00
      1.3000000              1.0000000
D    1   1.00
      0.3250000              1.0000000
F    1   1.00
      0.5500000              1.0000000
****
Cl     0
S    6   1.00
  25180.1000000              0.0018330
   3780.3500000              0.0140340
    860.4740000              0.0690970
    242.1450000              0.2374520
     77.3349000              0.4830340
     26.2470000              0.3398560
SP   6   1.00
    491.7650000             -0.0022974              0.0039894
    116.9840000             -0.0307140              0.0303180
     37.4153000             -0.1125280              0.1298800
     13.7834000              0.0450160              0.3279510
      5.4521500              0.5893530              0.4535270
      2.2258800              0.4652060              0.2521540
SP   3   1.00
      3.1864900             -0.2518300             -0.0142990
      1.1442700              0.0615890              0.3235720
      0.4203770              1.0601800              0.7435070
SP   1   1.00
      0.1426570              1.0000000              1.0000000
D    1   1.00
      1.5000000              1.0000000
D    1   1.00
      0.3750000              1.0000000
F    1   1.00
      0.7000000              1.0000000
****
}

set {
reference uhf
freeze_core true
e_convergence 10
d_convergence 10
dft_spherical_points 1202
dft_radial_points 99
}

e = energy('b3lyp')

print_out('Grab this energy {0}'.format(e))
--------------------------------------------------------------------------

    Molecular point group: c1

    Geometry (in Bohr), charge = 0, multiplicity = 2:

       Center              X                  Y                   Z               Mass
    ------------   -----------------  -----------------  -----------------  -----------------
         C           -0.322226319687    -0.000001751679     0.000697784284    12.000000000000
         C            0.061174641613    -1.401940289079    -2.427266045816    12.000000000000
         C            0.060913379513     2.801501803121     0.000955698684    12.000000000000
         C            0.060891312213    -1.399557066079     2.425049083584    12.000000000000
         H            2.086009748013    -1.646738584379    -2.851728936316     1.007825032230
         H           -0.766559007987    -0.385682116379    -4.022081505516     1.007825032230
         H           -0.766782635287    -3.290660376079    -2.344908037416     1.007825032230
         H            2.085798006513     3.294135031421     0.000286101884     1.007825032230
         H           -0.766779975487     3.677037508721     1.677441324084     1.007825032230
         H           -0.766660072487     3.677014488621    -1.676678730216     1.007825032230
         H            2.085860558113    -1.647490878879     2.853604367084     1.007825032230
         H           -0.766500186287    -3.291078922579     2.346922296984     1.007825032230
         H           -0.766396424187    -0.386568254679     4.023852370484     1.007825032230

  Charge       = 0
  Multiplicity = 2
  Basis Set: ANONYMOUSF35741CC
    Blend: 6-31G_2DFP_
  Basis Set: (ANONYMOUSF35741CC AUX)
    Blend: DEF2-UNIVERSAL-JKFIT

    Orbital Energies [Eh]
    ---------------------

    Alpha Occupied:

       1A    -10.180329     2A    -10.167011     3A    -10.166972
       4A    -10.166922     5A     -0.797831     6A     -0.686248
       7A     -0.686201     8A     -0.530788     9A     -0.440954
      10A     -0.434964    11A     -0.434801    12A     -0.382537
      13A     -0.382358    14A     -0.363750    15A     -0.338228
      16A     -0.337813    17A     -0.169050

    Alpha Virtual:

      18A      0.076108    19A      0.134087    20A      0.134125
      21A      0.142632    22A      0.142761    23A      0.155085
      24A      0.178661    25A      0.178824    26A      0.203677
      27A      0.215024    28A      0.275800    29A      0.276250
      30A      0.399443    31A      0.399465    32A      0.403271
      33A      0.423900    34A      0.423990    35A      0.456829
      36A      0.495344    37A      0.495386    38A      0.511972
      39A      0.514038    40A      0.578930    41A      0.578993
      42A      0.591399    43A      0.591507    44A      0.602342
      45A      0.624825    46A      0.632024    47A      0.636175
      48A      0.636505    49A      0.663627    50A      0.663751
      51A      0.683747    52A      0.683788    53A      0.735077
      54A      0.825252    55A      0.825361    56A      0.854261
      57A      0.915158    58A      0.915191    59A      0.943814
      60A      0.944350    61A      0.960976    62A      0.961043
      63A      1.004177    64A      1.128489    65A      1.128639
      66A      1.141622    67A      1.163529    68A      1.164105
      69A      1.223255    70A      1.274157    71A      1.274758
      72A      1.279601    73A      1.324564    74A      1.324691
      75A      1.355576    76A      1.366230    77A      1.366543
      78A      1.392255    79A      1.403572    80A      1.403951
      81A      1.416801    82A      1.417136    83A      1.428536
      84A      1.492090    85A      1.498762    86A      1.542824
      87A      1.542959    88A      1.573638    89A      1.574025
      90A      1.669890    91A      1.739152    92A      1.739422
      93A      1.768171    94A      1.831171    95A      1.832182
      96A      1.971834    97A      2.018053    98A      2.019381
      99A      2.020446   100A      2.052433   101A      2.053798
     102A      2.737951   103A      2.738193   104A      2.791152
     105A      2.811942   106A      2.890031   107A      2.890190
     108A      2.895198   109A      2.929890   110A      2.930011
     111A      2.959056   112A      2.964352   113A      2.964510
     114A      3.034476   115A      3.070667   116A      3.070940
     117A      3.084002   118A      3.168516   119A      3.168894
     120A      3.180768   121A      3.284904   122A      3.284924
     123A      3.328073   124A      3.328452   125A      3.375321
     126A      3.489344   127A      3.489990   128A      3.514230
     129A      3.525494   130A      3.568842   131A      3.569017
     132A      3.576012   133A      3.665646   134A      3.667006
     135A      3.680748   136A      3.693489   137A      3.693725
     138A      3.777778   139A      3.778139   140A      3.787809
     141A      3.911586   142A      3.913090   143A      4.033347
     144A      4.111338   145A      4.111630   146A      4.147592
     147A      4.148202   148A      4.173180   149A      4.202181
     150A      4.203521   151A      4.204295   152A      4.211356
     153A      4.315563   154A      4.316995   155A      4.360122
     156A      4.422978   157A      4.424839   158A      4.444534
     159A      4.517003   160A      4.518315   161A      4.579226
     162A      4.579285   163A      4.618012   164A      4.709772
     165A      4.774612   166A      4.775256   167A      4.835914
     168A      4.963347   169A      5.002152   170A      5.003569
     171A      5.228406   172A      5.246550   173A      5.246945
     174A      5.356014   175A      5.356144   176A      5.479606

    Beta Occupied:

       1A    -10.167771     2A    -10.167730     3A    -10.167687
       4A    -10.166512     5A     -0.781160     6A     -0.684054
       7A     -0.683996     8A     -0.511756     9A     -0.431328
      10A     -0.431162    11A     -0.421658    12A     -0.376631
      13A     -0.376412    14A     -0.362728    15A     -0.333356
      16A     -0.332938

    Beta Virtual:

      17A     -0.025909    18A      0.077114    19A      0.135008
      20A      0.135013    21A      0.144529    22A      0.144625
      23A      0.163594    24A      0.182338    25A      0.182477
      26A      0.215255    27A      0.219021    28A      0.282146
      29A      0.282578    30A      0.400621    31A      0.400637
      32A      0.419738    33A      0.426705    34A      0.426796
      35A      0.468816    36A      0.497613    37A      0.497668
      38A      0.513712    39A      0.556297    40A      0.584496
      41A      0.584572    42A      0.597549    43A      0.597659
      44A      0.609785    45A      0.628204    46A      0.632186
      47A      0.639458    48A      0.639780    49A      0.667208
      50A      0.667343    51A      0.686376    52A      0.686392
      53A      0.757564    54A      0.830431    55A      0.830550
      56A      0.855617    57A      0.923173    58A      0.923210
      59A      0.946186    60A      0.952824    61A      0.966259
      62A      0.966319    63A      1.009446    64A      1.132527
      65A      1.132667    66A      1.154779    67A      1.168577
      68A      1.169189    69A      1.232326    70A      1.279769
      71A      1.280377    72A      1.285423    73A      1.329606
      74A      1.329706    75A      1.364933    76A      1.371493
      77A      1.371751    78A      1.393328    79A      1.407104
      80A      1.407380    81A      1.421814    82A      1.422112
      83A      1.428813    84A      1.493127    85A      1.509183
      86A      1.547217    87A      1.547370    88A      1.581515
      89A      1.581913    90A      1.674739    91A      1.744911
      92A      1.745188    93A      1.778967    94A      1.835034
      95A      1.836025    96A      1.972700    97A      2.025790
      98A      2.026875    99A      2.039466   100A      2.059135
     101A      2.060501   102A      2.746319   103A      2.746517
     104A      2.812359   105A      2.816291   106A      2.902677
     107A      2.902791   108A      2.924886   109A      2.932402
     110A      2.932492   111A      2.960121   112A      2.968919
     113A      2.969106   114A      3.042403   115A      3.080569
     116A      3.080830   117A      3.085824   118A      3.184222
     119A      3.184629   120A      3.188510   121A      3.289674
     122A      3.289706   123A      3.331862   124A      3.332223
     125A      3.383114   126A      3.492119   127A      3.492809
     128A      3.512604   129A      3.528503   130A      3.575853
     131A      3.582106   132A      3.582316   133A      3.670280
     134A      3.671696   135A      3.693986   136A      3.725266
     137A      3.725525   138A      3.782325   139A      3.782772
     140A      3.816380   141A      3.921406   142A      3.922808
     143A      4.044287   144A      4.118143   145A      4.118639
     146A      4.154817   147A      4.155236   148A      4.187205
     149A      4.209255   150A      4.209974   151A      4.210581
     152A      4.215863   153A      4.322990   154A      4.324480
     155A      4.363506   156A      4.431220   157A      4.433014
     158A      4.447419   159A      4.524786   160A      4.526086
     161A      4.589833   162A      4.589924   163A      4.625130
     164A      4.720223   165A      4.781570   166A      4.782176
     167A      4.838835   168A      4.968139   169A      5.006222
     170A      5.007609   171A      5.234107   172A      5.248345
     173A      5.248726   174A      5.362475   175A      5.362647
     176A      5.481932

    Final Occupation by Irrep:
              A
    DOCC [    16 ]
    SOCC [     1 ]

  @DF-UKS Final Energy:  -157.81307660787672

   => Energetics <=

    Nuclear Repulsion Energy =            125.4062147575370574
    One-Electron Energy =                -458.7715451348933584
    Two-Electron Energy =                 195.8597400263146824
    DFT Exchange-Correlation Energy =     -20.3074862568350838
    Empirical Dispersion Energy =           0.0000000000000000
    VV10 Nonlocal Energy =                  0.0000000000000000
    Total Energy =                       -157.8130766078767238

  UHF NO Occupations:
  HONO-2 :   15  A 1.9995995
  HONO-1 :   16  A 1.9989824
  HONO-0 :   17  A 1.0000000
  LUNO+0 :   18  A 0.0010176
  LUNO+1 :   19  A 0.0004005
  LUNO+2 :   20  A 0.0001976
  LUNO+3 :   21  A 0.0001969

Computation Completed

Properties will be evaluated at   0.000000,   0.000000,   0.000000 [a0]

Properties computed using the SCF density matrix

  Nuclear Dipole Moment: [e a0]
     X:     0.8225      Y:    -0.0000      Z:     0.0033

  Electronic Dipole Moment: [e a0]
     X:    -0.7450      Y:     0.0000      Z:    -0.0034

  Dipole Moment: [e a0]
     X:     0.0775      Y:     0.0000      Z:    -0.0001     Total:     0.0775

  Dipole Moment: [D]
     X:     0.1970      Y:     0.0000      Z:    -0.0002     Total:     0.1970

*** tstop() called on n091 at Fri Nov  5 13:14:45 2021
Module time:
	user time   =     463.59 seconds =       7.73 minutes
	system time =       4.27 seconds =       0.07 minutes
	total time  =        118 seconds =       1.97 minutes
Total time:
	user time   =     463.59 seconds =       7.73 minutes
	system time =       4.27 seconds =       0.07 minutes
	total time  =        118 seconds =       1.97 minutes
Grab this energy -157.81307660787672
    Psi4 stopped on: Friday, 05 November 2021 01:14PM
    Psi4 wall time for execution: 0:01:57.69

*** Psi4 exiting successfully. Buy a developer a beer!
