                               Psi4 1.4a2.dev629

  ==> Input File <==

--------------------------------------------------------------------------
import os
memory 14 GB

molecule {
 C   -0.3233400519   -0.0000029859    0.0024282697
 C    0.0618287065   -1.4011252055   -2.4274917391
 C    0.0610235101    2.8017583089    0.0022178217
 C    0.0604496544   -1.4006292218    2.4252710275
 H    2.0891592334   -1.6400401540   -2.8489615082
 H   -0.7639889894   -0.3916375475   -4.0241303786
 H   -0.7645278447   -3.2970152887   -2.3512373266
 H    2.0867998184    3.2881027925   -0.0007516054
 H   -0.7589262119    3.6826344935    1.6780657012
 H   -0.7723693496    3.6778622136   -1.6749082425
 H    2.0847058973   -1.6481520132    2.8459187701
 H   -0.7666060235   -3.2869834286    2.3467467186
 H   -0.7668162258   -0.3847962770    4.0268324914
units bohr
0 2
}

basis {

assign 6-31g_2dfp_

[ 6-31g_2dfp_ ]

spherical

!----------------------------------------------------------------------
! Basis Set Exchange
! Version v0.8.13
! https://www.basissetexchange.org
!----------------------------------------------------------------------
!   Basis set: 6-31G(2df,p)
! Description: 6-31G(2df,p)
!        Role: orbital
!     Version: 0  (Data from the original Basis Set Exchange)
!----------------------------------------------------------------------

****
H     0
S    3   1.00
     18.7311370              0.03349460
      2.8253937              0.23472695
      0.6401217              0.81375733
S    1   1.00
      0.1612778              1.00000000
P    1   1.00
      1.5000000              1.0000000
P    1   1.00
      0.3750000              1.0000000
****
B     0
S    6   1.00
   2068.8823000              0.0018663
    310.6495700              0.0142515
     70.6830330              0.0695516
     19.8610800              0.2325729
      6.2993048              0.4670787
      2.1270270              0.3634314
SP   3   1.00
      4.7279710             -0.1303938              0.0745976
      1.1903377             -0.1307889              0.3078467
      0.3594117              1.1309444              0.7434568
SP   1   1.00
      0.1267512              1.0000000              1.0000000
D    1   1.00
      0.8020000              1.0000000
D    1   1.00
      0.2005000              1.0000000
F    1   1.00
      0.5000000              1.0000000
****
C     0
S    6   1.00
   3047.5249000              0.0018347
    457.3695100              0.0140373
    103.9486900              0.0688426
     29.2101550              0.2321844
      9.2866630              0.4679413
      3.1639270              0.3623120
SP   3   1.00
      7.8682724             -0.1193324              0.0689991
      1.8812885             -0.1608542              0.3164240
      0.5442493              1.1434564              0.7443083
SP   1   1.00
      0.1687144              1.0000000              1.0000000
D    1   1.00
      1.2520000              1.0000000
D    1   1.00
      0.3130000              1.0000000
F    1   1.00
      0.8000000              1.0000000
****
N     0
S    6   1.00
   4173.5110000              0.0018348
    627.4579000              0.0139950
    142.9021000              0.0685870
     40.2343300              0.2322410
     12.8202100              0.4690700
      4.3904370              0.3604550
SP   3   1.00
     11.6263580             -0.1149610              0.0675800
      2.7162800             -0.1691180              0.3239070
      0.7722180              1.1458520              0.7408950
SP   1   1.00
      0.2120313              1.0000000              1.0000000
D    1   1.00
      1.8260000              1.0000000
D    1   1.00
      0.4565000              1.0000000
F    1   1.00
      1.0000000              1.0000000
****
O     0
S    6   1.00
   5484.6717000              0.0018311
    825.2349500              0.0139501
    188.0469600              0.0684451
     52.9645000              0.2327143
     16.8975700              0.4701930
      5.7996353              0.3585209
SP   3   1.00
     15.5396160             -0.1107775              0.0708743
      3.5999336             -0.1480263              0.3397528
      1.0137618              1.1307670              0.7271586
SP   1   1.00
      0.2700058              1.0000000              1.0000000
D    1   1.00
      2.5840000              1.0000000
D    1   1.00
      0.6460000              1.0000000
F    1   1.00
      1.4000000              1.0000000
****
F     0
S    6   1.00
   7001.7130900              0.0018196169
   1051.3660900              0.0139160796
    239.2856900              0.0684053245
     67.3974453              0.233185760
     21.5199573              0.471267439
      7.40310130             0.356618546
SP   3   1.00
     20.8479528             -0.108506975            0.0716287243
      4.80830834            -0.146451658            0.3459121030
      1.34406986             1.128688580            0.7224699570
SP   1   1.00
      0.358151393            1.0000000              1.0000000
D    1   1.00
      3.5000000              1.0000000
D    1   1.00
      0.8750000              1.0000000
F    1   1.00
      1.8500000              1.0000000
****
Al     0
S    6   1.00
  13983.1000000              0.00194267
   2098.7500000              0.0148599
    477.7050000              0.0728494
    134.3600000              0.2468300
     42.8709000              0.4872580
     14.5189000              0.3234960
SP   6   1.00
    239.6680000             -0.00292619             0.00460285
     57.4419000             -0.0374080              0.0331990
     18.2859000             -0.1144870              0.1362820
      6.5991400              0.1156350              0.3304760
      2.4904900              0.6125950              0.4491460
      0.9445400              0.3937990              0.2657040
SP   3   1.00
      1.2779000             -0.2276060             -0.0175130
      0.3975900              0.00144583             0.2445330
      0.1600950              1.0927900              0.8049340
SP   1   1.00
      0.0556577              1.0000000              1.0000000
D    1   1.00
      0.6500000              1.0000000
D    1   1.00
      0.1625000              1.0000000
F    1   1.00
      0.2500000              1.0000000
****
Si     0
S    6   1.00
  16115.9000000              0.00195948
   2425.5800000              0.01492880
    553.8670000              0.07284780
    156.3400000              0.24613000
     50.0683000              0.48591400
     17.0178000              0.32500200
SP   6   1.00
    292.7180000             -0.00278094             0.00443826
     69.8731000             -0.03571460             0.03266790
     22.3363000             -0.11498500             0.13472100
      8.1503900              0.09356340             0.32867800
      3.1345800              0.60301700             0.44964000
      1.2254300              0.41895900             0.26137200
SP   3   1.00
      1.7273800             -0.24463000            -0.01779510
      0.5729220              0.00431572             0.25353900
      0.2221920              1.09818000             0.80066900
SP   1   1.00
      0.0778369              1.00000000             1.00000000
D    1   1.00
      0.9000000              1.0000000
D    1   1.00
      0.2250000              1.0000000
F    1   1.00
      0.3200000              1.0000000
****
P     0
S    6   1.00
  19413.3000000              0.0018516
   2909.4200000              0.0142062
    661.3640000              0.0699995
    185.7590000              0.2400790
     59.1943000              0.4847620
     20.0310000              0.3352000
SP   6   1.00
    339.4780000             -0.00278217             0.00456462
     81.0101000             -0.0360499              0.03369360
     25.8780000             -0.1166310              0.13975500
      9.4522100              0.0968328              0.33936200
      3.6656600              0.6144180              0.45092100
      1.4674600              0.4037980              0.23858600
SP   3   1.00
      2.1562300             -0.2529230             -0.01776530
      0.7489970              0.0328517              0.27405800
      0.2831450              1.0812500              0.78542100
SP   1   1.00
      0.0998317              1.0000000              1.00000000
D    1   1.00
      1.1000000              1.0000000
D    1   1.00
      0.2750000              1.0000000
F    1   1.00
      0.4500000              1.0000000
****
S     0
S    6   1.00
  21917.1000000              0.0018690
   3301.4900000              0.0142300
    754.1460000              0.0696960
    212.7110000              0.2384870
     67.9896000              0.4833070
     23.0515000              0.3380740
SP   6   1.00
    423.7350000             -0.0023767              0.0040610
    100.7100000             -0.0316930              0.0306810
     32.1599000             -0.1133170              0.1304520
     11.8079000              0.0560900              0.3272050
      4.6311000              0.5922550              0.4528510
      1.8702500              0.4550060              0.2560420
SP   3   1.00
      2.6158400             -0.2503740             -0.0145110
      0.9221670              0.0669570              0.3102630
      0.3412870              1.0545100              0.7544830
SP   1   1.00
      0.1171670              1.0000000              1.0000000
D    1   1.00
      1.3000000              1.0000000
D    1   1.00
      0.3250000              1.0000000
F    1   1.00
      0.5500000              1.0000000
****
Cl     0
S    6   1.00
  25180.1000000              0.0018330
   3780.3500000              0.0140340
    860.4740000              0.0690970
    242.1450000              0.2374520
     77.3349000              0.4830340
     26.2470000              0.3398560
SP   6   1.00
    491.7650000             -0.0022974              0.0039894
    116.9840000             -0.0307140              0.0303180
     37.4153000             -0.1125280              0.1298800
     13.7834000              0.0450160              0.3279510
      5.4521500              0.5893530              0.4535270
      2.2258800              0.4652060              0.2521540
SP   3   1.00
      3.1864900             -0.2518300             -0.0142990
      1.1442700              0.0615890              0.3235720
      0.4203770              1.0601800              0.7435070
SP   1   1.00
      0.1426570              1.0000000              1.0000000
D    1   1.00
      1.5000000              1.0000000
D    1   1.00
      0.3750000              1.0000000
F    1   1.00
      0.7000000              1.0000000
****
}

set {
reference uhf
freeze_core true
e_convergence 10
d_convergence 10
dft_spherical_points 1202
dft_radial_points 99
}

e = energy('b3lyp')

print_out('Grab this energy {0}'.format(e))
--------------------------------------------------------------------------

    Molecular point group: c1

    Geometry (in Bohr), charge = 0, multiplicity = 2:

       Center              X                  Y                   Z               Mass
    ------------   -----------------  -----------------  -----------------  -----------------
         C           -0.323340399353    -0.000002729055     0.001961124085    12.000000000000
         C            0.061828359047    -1.401124948655    -2.427958884715    12.000000000000
         C            0.061023162647     2.801758565745     0.001750676085    12.000000000000
         C            0.060449306947    -1.400628964955     2.424803881885    12.000000000000
         H            2.089158885947    -1.640039897155    -2.849428653815     1.007825032230
         H           -0.763989336853    -0.391637290655    -4.024597524215     1.007825032230
         H           -0.764528192153    -3.297015031855    -2.351704472215     1.007825032230
         H            2.086799470947     3.288103049345    -0.001218751015     1.007825032230
         H           -0.758926559353     3.682634750345     1.677598555585     1.007825032230
         H           -0.772369697053     3.677862470445    -1.675375388115     1.007825032230
         H            2.084705549847    -1.648151756355     2.845451624485     1.007825032230
         H           -0.766606370953    -3.286983171755     2.346279572985     1.007825032230
         H           -0.766816573253    -0.384796020155     4.026365345785     1.007825032230

  Charge       = 0
  Multiplicity = 2
  Basis Set: ANONYMOUSEDEBFFC2
    Blend: 6-31G_2DFP_
  Basis Set: (ANONYMOUSEDEBFFC2 AUX)
    Blend: DEF2-UNIVERSAL-JKFIT

    Orbital Energies [Eh]
    ---------------------

    Alpha Occupied:

       1A    -10.180342     2A    -10.167204     3A    -10.167015
       4A    -10.166825     5A     -0.797767     6A     -0.686331
       7A     -0.686045     8A     -0.530778     9A     -0.441125
      10A     -0.434744    11A     -0.434600    12A     -0.382644
      13A     -0.382554    14A     -0.363609    15A     -0.338147
      16A     -0.337849    17A     -0.168961

    Alpha Virtual:

      18A      0.076072    19A      0.134083    20A      0.134209
      21A      0.142622    22A      0.142646    23A      0.154878
      24A      0.178776    25A      0.178783    26A      0.203545
      27A      0.214804    28A      0.275650    29A      0.276321
      30A      0.399216    31A      0.399230    32A      0.403355
      33A      0.424063    34A      0.424132    35A      0.456592
      36A      0.495339    37A      0.495440    38A      0.512159
      39A      0.513979    40A      0.578626    41A      0.579002
      42A      0.591408    43A      0.591862    44A      0.602572
      45A      0.624717    46A      0.631824    47A      0.636155
      48A      0.636334    49A      0.663209    50A      0.663617
      51A      0.683843    52A      0.683884    53A      0.734995
      54A      0.825376    55A      0.825437    56A      0.853916
      57A      0.914895    58A      0.915161    59A      0.944097
      60A      0.944639    61A      0.961249    62A      0.961332
      63A      1.003458    64A      1.128059    65A      1.128144
      66A      1.142206    67A      1.163162    68A      1.163403
      69A      1.223324    70A      1.274307    71A      1.274673
      72A      1.279357    73A      1.324221    74A      1.324465
      75A      1.355989    76A      1.365753    77A      1.366345
      78A      1.392459    79A      1.403732    80A      1.404371
      81A      1.416853    82A      1.417385    83A      1.427918
      84A      1.491457    85A      1.499106    86A      1.542687
      87A      1.542961    88A      1.574228    89A      1.574674
      90A      1.669840    91A      1.739142    92A      1.739676
      93A      1.768309    94A      1.830988    95A      1.831814
      96A      1.971700    97A      2.018226    98A      2.019052
      99A      2.019146   100A      2.051686   101A      2.053624
     102A      2.738427   103A      2.738534   104A      2.790927
     105A      2.811424   106A      2.889509   107A      2.890343
     108A      2.894995   109A      2.929325   110A      2.929668
     111A      2.958992   112A      2.964122   113A      2.964648
     114A      3.033995   115A      3.070997   116A      3.071584
     117A      3.084366   118A      3.168717   119A      3.168821
     120A      3.180620   121A      3.285261   122A      3.285351
     123A      3.326727   124A      3.327614   125A      3.375616
     126A      3.489931   127A      3.490402   128A      3.513992
     129A      3.525325   130A      3.567565   131A      3.569232
     132A      3.575138   133A      3.666159   134A      3.666569
     135A      3.679694   136A      3.693779   137A      3.694464
     138A      3.775452   139A      3.778118   140A      3.789166
     141A      3.911743   142A      3.912723   143A      4.034442
     144A      4.110281   145A      4.112325   146A      4.147619
     147A      4.148721   148A      4.173119   149A      4.202346
     150A      4.202820   151A      4.203623   152A      4.211035
     153A      4.315440   154A      4.316472   155A      4.358972
     156A      4.423960   157A      4.424958   158A      4.443449
     159A      4.516081   160A      4.517599   161A      4.577596
     162A      4.578927   163A      4.617530   164A      4.709453
     165A      4.774010   166A      4.775238   167A      4.836911
     168A      4.962863   169A      5.002340   170A      5.003588
     171A      5.228013   172A      5.246618   173A      5.246863
     174A      5.354642   175A      5.356550   176A      5.479383

    Beta Occupied:

       1A    -10.167960     2A    -10.167775     3A    -10.167589
       4A    -10.166519     5A     -0.781093     6A     -0.684122
       7A     -0.683859     8A     -0.511749     9A     -0.431122
      10A     -0.430964    11A     -0.421822    12A     -0.376717
      13A     -0.376651    14A     -0.362593    15A     -0.333270
      16A     -0.332971

    Beta Virtual:

      17A     -0.025742    18A      0.077080    19A      0.134968
      20A      0.135102    21A      0.144483    22A      0.144528
      23A      0.163337    24A      0.182446    25A      0.182456
      26A      0.215027    27A      0.218934    28A      0.282009
      29A      0.282659    30A      0.400395    31A      0.400398
      32A      0.419793    33A      0.426862    34A      0.426956
      35A      0.468500    36A      0.497607    37A      0.497694
      38A      0.513896    39A      0.556322    40A      0.584165
      41A      0.584564    42A      0.597607    43A      0.598021
      44A      0.609993    45A      0.628064    46A      0.632013
      47A      0.639419    48A      0.639641    49A      0.666784
      50A      0.667171    51A      0.686489    52A      0.686507
      53A      0.757517    54A      0.830571    55A      0.830579
      56A      0.855269    57A      0.922863    58A      0.923135
      59A      0.945956    60A      0.953545    61A      0.966526
      62A      0.966668    63A      1.008697    64A      1.132035
      65A      1.132227    66A      1.155579    67A      1.168299
      68A      1.168414    69A      1.232297    70A      1.279897
      71A      1.280274    72A      1.285114    73A      1.329223
      74A      1.329441    75A      1.365404    76A      1.371035
      77A      1.371550    78A      1.393518    79A      1.407170
      80A      1.407863    81A      1.421911    82A      1.422427
      83A      1.428190    84A      1.492518    85A      1.509536
      86A      1.547126    87A      1.547340    88A      1.582142
      89A      1.582501    90A      1.674686    91A      1.744889
      92A      1.745451    93A      1.779090    94A      1.834837
      95A      1.835677    96A      1.972574    97A      2.025358
      98A      2.025521    99A      2.039703   100A      2.058437
     101A      2.060308   102A      2.746737   103A      2.746897
     104A      2.811832   105A      2.816066   106A      2.902277
     107A      2.902998   108A      2.924636   109A      2.931817
     110A      2.932157   111A      2.960055   112A      2.968682
     113A      2.969177   114A      3.041926   115A      3.080949
     116A      3.081453   117A      3.086188   118A      3.184365
     119A      3.184619   120A      3.188354   121A      3.290056
     122A      3.290152   123A      3.330540   124A      3.331412
     125A      3.383435   126A      3.492641   127A      3.493153
     128A      3.512365   129A      3.528368   130A      3.574988
     131A      3.580938   132A      3.582542   133A      3.671044
     134A      3.671199   135A      3.692967   136A      3.725566
     137A      3.725941   138A      3.780032   139A      3.782612
     140A      3.817687   141A      3.921604   142A      3.922497
     143A      4.045330   144A      4.117094   145A      4.119132
     146A      4.154903   147A      4.155873   148A      4.187132
     149A      4.208517   150A      4.209414   151A      4.210668
     152A      4.215581   153A      4.322850   154A      4.323946
     155A      4.362335   156A      4.432194   157A      4.433148
     158A      4.446337   159A      4.523882   160A      4.525377
     161A      4.588192   162A      4.589530   163A      4.624726
     164A      4.719798   165A      4.781004   166A      4.782151
     167A      4.839828   168A      4.967657   169A      5.006361
     170A      5.007646   171A      5.233728   172A      5.248395
     173A      5.248663   174A      5.361096   175A      5.363047
     176A      5.481704

    Final Occupation by Irrep:
              A
    DOCC [    16 ]
    SOCC [     1 ]

  @DF-UKS Final Energy:  -157.81305663317266

   => Energetics <=

    Nuclear Repulsion Energy =            125.3946672695503537
    One-Electron Energy =                -458.7489628268269826
    Two-Electron Energy =                 195.8483864335002806
    DFT Exchange-Correlation Energy =     -20.3071475093963514
    Empirical Dispersion Energy =           0.0000000000000000
    VV10 Nonlocal Energy =                  0.0000000000000000
    Total Energy =                       -157.8130566331726641

  UHF NO Occupations:
  HONO-2 :   15  A 1.9996009
  HONO-1 :   16  A 1.9989805
  HONO-0 :   17  A 1.0000000
  LUNO+0 :   18  A 0.0010195
  LUNO+1 :   19  A 0.0003991
  LUNO+2 :   20  A 0.0001981
  LUNO+3 :   21  A 0.0001970

Computation Completed

Properties will be evaluated at   0.000000,   0.000000,   0.000000 [a0]

Properties computed using the SCF density matrix

  Nuclear Dipole Moment: [e a0]
     X:     0.8272      Y:    -0.0000      Z:    -0.0033

  Electronic Dipole Moment: [e a0]
     X:    -0.7493      Y:     0.0000      Z:     0.0033

  Dipole Moment: [e a0]
     X:     0.0779      Y:     0.0000      Z:    -0.0000     Total:     0.0779

  Dipole Moment: [D]
     X:     0.1980      Y:     0.0000      Z:    -0.0001     Total:     0.1980

*** tstop() called on n079 at Fri Nov  5 14:45:23 2021
Module time:
	user time   =     495.31 seconds =       8.26 minutes
	system time =       4.49 seconds =       0.07 minutes
	total time  =        126 seconds =       2.10 minutes
Total time:
	user time   =     495.31 seconds =       8.26 minutes
	system time =       4.49 seconds =       0.07 minutes
	total time  =        126 seconds =       2.10 minutes
Grab this energy -157.81305663317266
    Psi4 stopped on: Friday, 05 November 2021 02:45PM
    Psi4 wall time for execution: 0:02:05.67

*** Psi4 exiting successfully. Buy a developer a beer!
