                               Psi4 1.4a2.dev629

  ==> Input File <==

--------------------------------------------------------------------------
import os
memory 14 GB

molecule {
 C   -0.3233407532   -0.0000025532    0.0015037155
 C    0.0613569726   -1.4020983819   -2.4273801955
 C    0.0610204402    2.8017590474    0.0011143615
 C    0.0609215260   -1.3996578276    2.4253817936
 H    2.0831174478   -1.6480786911   -2.8502224952
 H   -0.7633185267   -0.3886335499   -4.0209769732
 H   -0.7647657308   -3.2905478159   -2.3526133072
 H    2.0867963374    3.2881050041    0.0041226514
 H   -0.7669246030    3.6863729686    1.6760233373
 H   -0.7643596890    3.6741374198   -1.6769577163
 H    2.0907511378   -1.6401043278    2.8446551383
 H   -0.7663726895   -3.2934501348    2.3453580489
 H   -0.7674897464   -0.3878254711    4.0299916409
units bohr
0 2
}

basis {

assign 6-31g_2dfp_

[ 6-31g_2dfp_ ]

spherical

!----------------------------------------------------------------------
! Basis Set Exchange
! Version v0.8.13
! https://www.basissetexchange.org
!----------------------------------------------------------------------
!   Basis set: 6-31G(2df,p)
! Description: 6-31G(2df,p)
!        Role: orbital
!     Version: 0  (Data from the original Basis Set Exchange)
!----------------------------------------------------------------------

****
H     0
S    3   1.00
     18.7311370              0.03349460
      2.8253937              0.23472695
      0.6401217              0.81375733
S    1   1.00
      0.1612778              1.00000000
P    1   1.00
      1.5000000              1.0000000
P    1   1.00
      0.3750000              1.0000000
****
B     0
S    6   1.00
   2068.8823000              0.0018663
    310.6495700              0.0142515
     70.6830330              0.0695516
     19.8610800              0.2325729
      6.2993048              0.4670787
      2.1270270              0.3634314
SP   3   1.00
      4.7279710             -0.1303938              0.0745976
      1.1903377             -0.1307889              0.3078467
      0.3594117              1.1309444              0.7434568
SP   1   1.00
      0.1267512              1.0000000              1.0000000
D    1   1.00
      0.8020000              1.0000000
D    1   1.00
      0.2005000              1.0000000
F    1   1.00
      0.5000000              1.0000000
****
C     0
S    6   1.00
   3047.5249000              0.0018347
    457.3695100              0.0140373
    103.9486900              0.0688426
     29.2101550              0.2321844
      9.2866630              0.4679413
      3.1639270              0.3623120
SP   3   1.00
      7.8682724             -0.1193324              0.0689991
      1.8812885             -0.1608542              0.3164240
      0.5442493              1.1434564              0.7443083
SP   1   1.00
      0.1687144              1.0000000              1.0000000
D    1   1.00
      1.2520000              1.0000000
D    1   1.00
      0.3130000              1.0000000
F    1   1.00
      0.8000000              1.0000000
****
N     0
S    6   1.00
   4173.5110000              0.0018348
    627.4579000              0.0139950
    142.9021000              0.0685870
     40.2343300              0.2322410
     12.8202100              0.4690700
      4.3904370              0.3604550
SP   3   1.00
     11.6263580             -0.1149610              0.0675800
      2.7162800             -0.1691180              0.3239070
      0.7722180              1.1458520              0.7408950
SP   1   1.00
      0.2120313              1.0000000              1.0000000
D    1   1.00
      1.8260000              1.0000000
D    1   1.00
      0.4565000              1.0000000
F    1   1.00
      1.0000000              1.0000000
****
O     0
S    6   1.00
   5484.6717000              0.0018311
    825.2349500              0.0139501
    188.0469600              0.0684451
     52.9645000              0.2327143
     16.8975700              0.4701930
      5.7996353              0.3585209
SP   3   1.00
     15.5396160             -0.1107775              0.0708743
      3.5999336             -0.1480263              0.3397528
      1.0137618              1.1307670              0.7271586
SP   1   1.00
      0.2700058              1.0000000              1.0000000
D    1   1.00
      2.5840000              1.0000000
D    1   1.00
      0.6460000              1.0000000
F    1   1.00
      1.4000000              1.0000000
****
F     0
S    6   1.00
   7001.7130900              0.0018196169
   1051.3660900              0.0139160796
    239.2856900              0.0684053245
     67.3974453              0.233185760
     21.5199573              0.471267439
      7.40310130             0.356618546
SP   3   1.00
     20.8479528             -0.108506975            0.0716287243
      4.80830834            -0.146451658            0.3459121030
      1.34406986             1.128688580            0.7224699570
SP   1   1.00
      0.358151393            1.0000000              1.0000000
D    1   1.00
      3.5000000              1.0000000
D    1   1.00
      0.8750000              1.0000000
F    1   1.00
      1.8500000              1.0000000
****
Al     0
S    6   1.00
  13983.1000000              0.00194267
   2098.7500000              0.0148599
    477.7050000              0.0728494
    134.3600000              0.2468300
     42.8709000              0.4872580
     14.5189000              0.3234960
SP   6   1.00
    239.6680000             -0.00292619             0.00460285
     57.4419000             -0.0374080              0.0331990
     18.2859000             -0.1144870              0.1362820
      6.5991400              0.1156350              0.3304760
      2.4904900              0.6125950              0.4491460
      0.9445400              0.3937990              0.2657040
SP   3   1.00
      1.2779000             -0.2276060             -0.0175130
      0.3975900              0.00144583             0.2445330
      0.1600950              1.0927900              0.8049340
SP   1   1.00
      0.0556577              1.0000000              1.0000000
D    1   1.00
      0.6500000              1.0000000
D    1   1.00
      0.1625000              1.0000000
F    1   1.00
      0.2500000              1.0000000
****
Si     0
S    6   1.00
  16115.9000000              0.00195948
   2425.5800000              0.01492880
    553.8670000              0.07284780
    156.3400000              0.24613000
     50.0683000              0.48591400
     17.0178000              0.32500200
SP   6   1.00
    292.7180000             -0.00278094             0.00443826
     69.8731000             -0.03571460             0.03266790
     22.3363000             -0.11498500             0.13472100
      8.1503900              0.09356340             0.32867800
      3.1345800              0.60301700             0.44964000
      1.2254300              0.41895900             0.26137200
SP   3   1.00
      1.7273800             -0.24463000            -0.01779510
      0.5729220              0.00431572             0.25353900
      0.2221920              1.09818000             0.80066900
SP   1   1.00
      0.0778369              1.00000000             1.00000000
D    1   1.00
      0.9000000              1.0000000
D    1   1.00
      0.2250000              1.0000000
F    1   1.00
      0.3200000              1.0000000
****
P     0
S    6   1.00
  19413.3000000              0.0018516
   2909.4200000              0.0142062
    661.3640000              0.0699995
    185.7590000              0.2400790
     59.1943000              0.4847620
     20.0310000              0.3352000
SP   6   1.00
    339.4780000             -0.00278217             0.00456462
     81.0101000             -0.0360499              0.03369360
     25.8780000             -0.1166310              0.13975500
      9.4522100              0.0968328              0.33936200
      3.6656600              0.6144180              0.45092100
      1.4674600              0.4037980              0.23858600
SP   3   1.00
      2.1562300             -0.2529230             -0.01776530
      0.7489970              0.0328517              0.27405800
      0.2831450              1.0812500              0.78542100
SP   1   1.00
      0.0998317              1.0000000              1.00000000
D    1   1.00
      1.1000000              1.0000000
D    1   1.00
      0.2750000              1.0000000
F    1   1.00
      0.4500000              1.0000000
****
S     0
S    6   1.00
  21917.1000000              0.0018690
   3301.4900000              0.0142300
    754.1460000              0.0696960
    212.7110000              0.2384870
     67.9896000              0.4833070
     23.0515000              0.3380740
SP   6   1.00
    423.7350000             -0.0023767              0.0040610
    100.7100000             -0.0316930              0.0306810
     32.1599000             -0.1133170              0.1304520
     11.8079000              0.0560900              0.3272050
      4.6311000              0.5922550              0.4528510
      1.8702500              0.4550060              0.2560420
SP   3   1.00
      2.6158400             -0.2503740             -0.0145110
      0.9221670              0.0669570              0.3102630
      0.3412870              1.0545100              0.7544830
SP   1   1.00
      0.1171670              1.0000000              1.0000000
D    1   1.00
      1.3000000              1.0000000
D    1   1.00
      0.3250000              1.0000000
F    1   1.00
      0.5500000              1.0000000
****
Cl     0
S    6   1.00
  25180.1000000              0.0018330
   3780.3500000              0.0140340
    860.4740000              0.0690970
    242.1450000              0.2374520
     77.3349000              0.4830340
     26.2470000              0.3398560
SP   6   1.00
    491.7650000             -0.0022974              0.0039894
    116.9840000             -0.0307140              0.0303180
     37.4153000             -0.1125280              0.1298800
     13.7834000              0.0450160              0.3279510
      5.4521500              0.5893530              0.4535270
      2.2258800              0.4652060              0.2521540
SP   3   1.00
      3.1864900             -0.2518300             -0.0142990
      1.1442700              0.0615890              0.3235720
      0.4203770              1.0601800              0.7435070
SP   1   1.00
      0.1426570              1.0000000              1.0000000
D    1   1.00
      1.5000000              1.0000000
D    1   1.00
      0.3750000              1.0000000
F    1   1.00
      0.7000000              1.0000000
****
}

set {
reference uhf
freeze_core true
e_convergence 10
d_convergence 10
dft_spherical_points 1202
dft_radial_points 99
}

e = energy('b3lyp')

print_out('Grab this energy {0}'.format(e))
--------------------------------------------------------------------------

    Molecular point group: c1

    Geometry (in Bohr), charge = 0, multiplicity = 2:

       Center              X                  Y                   Z               Mass
    ------------   -----------------  -----------------  -----------------  -----------------
         C           -0.323340400813    -0.000002178677     0.001384361612    12.000000000000
         C            0.061357324987    -1.402098007377    -2.427499549388    12.000000000000
         C            0.061020792587     2.801759421923     0.000995007612    12.000000000000
         C            0.060921878387    -1.399657453077     2.425262439712    12.000000000000
         H            2.083117800187    -1.648078316577    -2.850341849088     1.007825032230
         H           -0.763318174313    -0.388633175377    -4.021096327088     1.007825032230
         H           -0.764765378413    -3.290547441377    -2.352732661088     1.007825032230
         H            2.086796689787     3.288105378623     0.004003297512     1.007825032230
         H           -0.766924250613     3.686373343123     1.675903983412     1.007825032230
         H           -0.764359336613     3.674137794323    -1.677077070188     1.007825032230
         H            2.090751490187    -1.640103953277     2.844535784412     1.007825032230
         H           -0.766372337113    -3.293449760277     2.345238695012     1.007825032230
         H           -0.767489394013    -0.387825096577     4.029872287012     1.007825032230

  Charge       = 0
  Multiplicity = 2
  Basis Set: ANONYMOUSC0506295
    Blend: 6-31G_2DFP_
  Basis Set: (ANONYMOUSC0506295 AUX)
    Blend: DEF2-UNIVERSAL-JKFIT

    Orbital Energies [Eh]
    ---------------------

    Alpha Occupied:

       1A    -10.180342     2A    -10.167438     3A    -10.167015
       4A    -10.166591     5A     -0.797767     6A     -0.686389
       7A     -0.685989     8A     -0.530774     9A     -0.441130
      10A     -0.434825    11A     -0.434511    12A     -0.382788
      13A     -0.382413    14A     -0.363617    15A     -0.338093
      16A     -0.337898    17A     -0.168961

    Alpha Virtual:

      18A      0.076071    19A      0.134117    20A      0.134184
      21A      0.142587    22A      0.142670    23A      0.154876
      24A      0.178416    25A      0.179141    26A      0.203548
      27A      0.214811    28A      0.275672    29A      0.276299
      30A      0.399177    31A      0.399264    32A      0.403360
      33A      0.424057    34A      0.424138    35A      0.456590
      36A      0.495260    37A      0.495519    38A      0.512163
      39A      0.513977    40A      0.578646    41A      0.578977
      42A      0.591624    43A      0.591637    44A      0.602578
      45A      0.624768    46A      0.631723    47A      0.635859
      48A      0.636700    49A      0.663197    50A      0.663629
      51A      0.683575    52A      0.684145    53A      0.734994
      54A      0.825217    55A      0.825583    56A      0.853918
      57A      0.914873    58A      0.915171    59A      0.944124
      60A      0.944599    61A      0.960863    62A      0.961742
      63A      1.003470    64A      1.127555    65A      1.128641
      66A      1.142219    67A      1.163260    68A      1.163295
      69A      1.223328    70A      1.274463    71A      1.274515
      72A      1.279346    73A      1.324000    74A      1.324703
      75A      1.355982    76A      1.365958    77A      1.366158
      78A      1.392465    79A      1.403971    80A      1.404114
      81A      1.417024    82A      1.417186    83A      1.427917
      84A      1.491489    85A      1.499075    86A      1.542613
      87A      1.543048    88A      1.574175    89A      1.574724
      90A      1.669804    91A      1.738942    92A      1.739847
      93A      1.768362    94A      1.830324    95A      1.832538
      96A      1.971724    97A      2.018264    98A      2.018979
      99A      2.019086   100A      2.051811   101A      2.053545
     102A      2.738314   103A      2.738652   104A      2.790927
     105A      2.811416   106A      2.889780   107A      2.889962
     108A      2.895117   109A      2.929371   110A      2.929622
     111A      2.959006   112A      2.963705   113A      2.965058
     114A      3.034025   115A      3.070917   116A      3.071627
     117A      3.084397   118A      3.168454   119A      3.169120
     120A      3.180585   121A      3.285203   122A      3.285429
     123A      3.326788   124A      3.327531   125A      3.375608
     126A      3.489159   127A      3.491139   128A      3.514027
     129A      3.525301   130A      3.568139   131A      3.568677
     132A      3.575154   133A      3.665470   134A      3.667269
     135A      3.679497   136A      3.694128   137A      3.694261
     138A      3.774978   139A      3.778630   140A      3.789149
     141A      3.912042   142A      3.912398   143A      4.034457
     144A      4.110815   145A      4.111869   146A      4.145175
     147A      4.150924   148A      4.173267   149A      4.200899
     150A      4.202973   151A      4.204921   152A      4.211084
     153A      4.315858   154A      4.316063   155A      4.358966
     156A      4.424382   157A      4.424476   158A      4.443523
     159A      4.516639   160A      4.517005   161A      4.577508
     162A      4.579064   163A      4.617531   164A      4.709472
     165A      4.773417   166A      4.775761   167A      4.836892
     168A      4.962877   169A      5.002746   170A      5.003185
     171A      5.227826   172A      5.243635   173A      5.250057
     174A      5.353279   175A      5.357878   176A      5.479402

    Beta Occupied:

       1A    -10.168199     2A    -10.167775     3A    -10.167351
       4A    -10.166518     5A     -0.781092     6A     -0.684199
       7A     -0.683784     8A     -0.511745     9A     -0.431203
      10A     -0.430887    11A     -0.421816    12A     -0.376887
      13A     -0.376484    14A     -0.362599    15A     -0.333205
      16A     -0.333033

    Beta Virtual:

      17A     -0.025743    18A      0.077080    19A      0.134959
      20A      0.135123    21A      0.144491    22A      0.144507
      23A      0.163335    24A      0.182115    25A      0.182786
      26A      0.215040    27A      0.218930    28A      0.282027
      29A      0.282639    30A      0.400349    31A      0.400444
      32A      0.419792    33A      0.426867    34A      0.426951
      35A      0.468497    36A      0.497524    37A      0.497777
      38A      0.513898    39A      0.556321    40A      0.584202
      41A      0.584520    42A      0.597809    43A      0.597813
      44A      0.610001    45A      0.628142    46A      0.631910
      47A      0.639132    48A      0.639969    49A      0.666746
      50A      0.667208    51A      0.686267    52A      0.686725
      53A      0.757516    54A      0.830381    55A      0.830756
      56A      0.855272    57A      0.922880    58A      0.923106
      59A      0.945962    60A      0.953520    61A      0.966199
      62A      0.967025    63A      1.008711    64A      1.131496
      65A      1.132762    66A      1.155595    67A      1.168271
      68A      1.168428    69A      1.232301    70A      1.280057
      71A      1.280116    72A      1.285099    73A      1.328925
      74A      1.329755    75A      1.365394    76A      1.371186
      77A      1.371420    78A      1.393522    79A      1.407443
      80A      1.407572    81A      1.422125    82A      1.422186
      83A      1.428188    84A      1.492538    85A      1.509518
      86A      1.547064    87A      1.547411    88A      1.582054
      89A      1.582590    90A      1.674650    91A      1.744716
      92A      1.745605    93A      1.779134    94A      1.834206
      95A      1.836367    96A      1.972586    97A      2.025413
      98A      2.025455    99A      2.039630   100A      2.058443
     101A      2.060350   102A      2.746620   103A      2.747018
     104A      2.811830   105A      2.816061   106A      2.902594
     107A      2.902648   108A      2.924696   109A      2.931919
     110A      2.932041   111A      2.960071   112A      2.968226
     113A      2.969623   114A      3.041958   115A      3.080758
     116A      3.081560   117A      3.086259   118A      3.184131
     119A      3.184937   120A      3.188273   121A      3.289951
     122A      3.290279   123A      3.330629   124A      3.331297
     125A      3.383428   126A      3.491938   127A      3.493819
     128A      3.512397   129A      3.528355   130A      3.575002
     131A      3.581404   132A      3.582084   133A      3.670393
     134A      3.671843   135A      3.692903   136A      3.725426
     137A      3.726117   138A      3.779580   139A      3.783079
     140A      3.817697   141A      3.921855   142A      3.922219
     143A      4.045341   144A      4.117517   145A      4.118785
     146A      4.152582   147A      4.157961   148A      4.187317
     149A      4.207586   150A      4.209096   151A      4.211957
     152A      4.215557   153A      4.323156   154A      4.323643
     155A      4.362333   156A      4.432573   157A      4.432694
     158A      4.446425   159A      4.524380   160A      4.524846
     161A      4.588155   162A      4.589613   163A      4.624726
     164A      4.719816   165A      4.780381   166A      4.782704
     167A      4.839810   168A      4.967672   169A      5.006812
     170A      5.007198   171A      5.233531   172A      5.245438
     173A      5.251837   174A      5.359793   175A      5.364320
     176A      5.481723

    Final Occupation by Irrep:
              A
    DOCC [    16 ]
    SOCC [     1 ]

  @DF-UKS Final Energy:  -157.81305515684033

   => Energetics <=

    Nuclear Repulsion Energy =            125.3946668339379755
    One-Electron Energy =                -458.7489562348529830
    Two-Electron Energy =                 195.8483816385552814
    DFT Exchange-Correlation Energy =     -20.3071473944805696
    Empirical Dispersion Energy =           0.0000000000000000
    VV10 Nonlocal Energy =                  0.0000000000000000
    Total Energy =                       -157.8130551568403348

  UHF NO Occupations:
  HONO-2 :   15  A 1.9996008
  HONO-1 :   16  A 1.9989804
  HONO-0 :   17  A 1.0000000
  LUNO+0 :   18  A 0.0010196
  LUNO+1 :   19  A 0.0003992
  LUNO+2 :   20  A 0.0001978
  LUNO+3 :   21  A 0.0001973

Computation Completed

Properties will be evaluated at   0.000000,   0.000000,   0.000000 [a0]

Properties computed using the SCF density matrix

  Nuclear Dipole Moment: [e a0]
     X:     0.8272      Y:    -0.0000      Z:    -0.0008

  Electronic Dipole Moment: [e a0]
     X:    -0.7493      Y:     0.0000      Z:    -0.0016

  Dipole Moment: [e a0]
     X:     0.0779      Y:     0.0000      Z:    -0.0024     Total:     0.0780

  Dipole Moment: [D]
     X:     0.1980      Y:     0.0000      Z:    -0.0062     Total:     0.1981

*** tstop() called on n033 at Fri Nov  5 15:05:46 2021
Module time:
	user time   =     636.51 seconds =      10.61 minutes
	system time =      12.14 seconds =       0.20 minutes
	total time  =        163 seconds =       2.72 minutes
Total time:
	user time   =     636.51 seconds =      10.61 minutes
	system time =      12.14 seconds =       0.20 minutes
	total time  =        163 seconds =       2.72 minutes
Grab this energy -157.81305515684033
    Psi4 stopped on: Friday, 05 November 2021 03:05PM
    Psi4 wall time for execution: 0:02:43.11

*** Psi4 exiting successfully. Buy a developer a beer!
