                               Psi4 1.4a2.dev629

  ==> Input File <==

--------------------------------------------------------------------------
import os
memory 14 GB

molecule {
 C   -0.3233399274   -0.0019988580    0.0002452345
 C    0.0620254703   -1.4014126396   -2.4254598173
 C    0.0611748830    2.8026068730   -0.0001484867
 C    0.0601010083   -1.4016505145    2.4255679695
 H    2.0898563041   -1.6478574773   -2.8487224834
 H   -0.7630216433   -0.3848306179   -4.0194346113
 H   -0.7646009072   -3.2919259800   -2.3506334416
 H    2.0865694055    3.2926923173   -0.0018530775
 H   -0.7651878086    3.6786136601    1.6778391820
 H   -0.7671167577    3.6814527223   -1.6766921864
 H    2.0842252492   -1.6441950006    2.8386515791
 H   -0.7683941371   -3.2951805160    2.3570512703
 H   -0.7648990159   -0.3863382823    4.0235888687
units bohr
0 2
}

basis {

assign 6-31g_2dfp_

[ 6-31g_2dfp_ ]

spherical

!----------------------------------------------------------------------
! Basis Set Exchange
! Version v0.8.13
! https://www.basissetexchange.org
!----------------------------------------------------------------------
!   Basis set: 6-31G(2df,p)
! Description: 6-31G(2df,p)
!        Role: orbital
!     Version: 0  (Data from the original Basis Set Exchange)
!----------------------------------------------------------------------

****
H     0
S    3   1.00
     18.7311370              0.03349460
      2.8253937              0.23472695
      0.6401217              0.81375733
S    1   1.00
      0.1612778              1.00000000
P    1   1.00
      1.5000000              1.0000000
P    1   1.00
      0.3750000              1.0000000
****
B     0
S    6   1.00
   2068.8823000              0.0018663
    310.6495700              0.0142515
     70.6830330              0.0695516
     19.8610800              0.2325729
      6.2993048              0.4670787
      2.1270270              0.3634314
SP   3   1.00
      4.7279710             -0.1303938              0.0745976
      1.1903377             -0.1307889              0.3078467
      0.3594117              1.1309444              0.7434568
SP   1   1.00
      0.1267512              1.0000000              1.0000000
D    1   1.00
      0.8020000              1.0000000
D    1   1.00
      0.2005000              1.0000000
F    1   1.00
      0.5000000              1.0000000
****
C     0
S    6   1.00
   3047.5249000              0.0018347
    457.3695100              0.0140373
    103.9486900              0.0688426
     29.2101550              0.2321844
      9.2866630              0.4679413
      3.1639270              0.3623120
SP   3   1.00
      7.8682724             -0.1193324              0.0689991
      1.8812885             -0.1608542              0.3164240
      0.5442493              1.1434564              0.7443083
SP   1   1.00
      0.1687144              1.0000000              1.0000000
D    1   1.00
      1.2520000              1.0000000
D    1   1.00
      0.3130000              1.0000000
F    1   1.00
      0.8000000              1.0000000
****
N     0
S    6   1.00
   4173.5110000              0.0018348
    627.4579000              0.0139950
    142.9021000              0.0685870
     40.2343300              0.2322410
     12.8202100              0.4690700
      4.3904370              0.3604550
SP   3   1.00
     11.6263580             -0.1149610              0.0675800
      2.7162800             -0.1691180              0.3239070
      0.7722180              1.1458520              0.7408950
SP   1   1.00
      0.2120313              1.0000000              1.0000000
D    1   1.00
      1.8260000              1.0000000
D    1   1.00
      0.4565000              1.0000000
F    1   1.00
      1.0000000              1.0000000
****
O     0
S    6   1.00
   5484.6717000              0.0018311
    825.2349500              0.0139501
    188.0469600              0.0684451
     52.9645000              0.2327143
     16.8975700              0.4701930
      5.7996353              0.3585209
SP   3   1.00
     15.5396160             -0.1107775              0.0708743
      3.5999336             -0.1480263              0.3397528
      1.0137618              1.1307670              0.7271586
SP   1   1.00
      0.2700058              1.0000000              1.0000000
D    1   1.00
      2.5840000              1.0000000
D    1   1.00
      0.6460000              1.0000000
F    1   1.00
      1.4000000              1.0000000
****
F     0
S    6   1.00
   7001.7130900              0.0018196169
   1051.3660900              0.0139160796
    239.2856900              0.0684053245
     67.3974453              0.233185760
     21.5199573              0.471267439
      7.40310130             0.356618546
SP   3   1.00
     20.8479528             -0.108506975            0.0716287243
      4.80830834            -0.146451658            0.3459121030
      1.34406986             1.128688580            0.7224699570
SP   1   1.00
      0.358151393            1.0000000              1.0000000
D    1   1.00
      3.5000000              1.0000000
D    1   1.00
      0.8750000              1.0000000
F    1   1.00
      1.8500000              1.0000000
****
Al     0
S    6   1.00
  13983.1000000              0.00194267
   2098.7500000              0.0148599
    477.7050000              0.0728494
    134.3600000              0.2468300
     42.8709000              0.4872580
     14.5189000              0.3234960
SP   6   1.00
    239.6680000             -0.00292619             0.00460285
     57.4419000             -0.0374080              0.0331990
     18.2859000             -0.1144870              0.1362820
      6.5991400              0.1156350              0.3304760
      2.4904900              0.6125950              0.4491460
      0.9445400              0.3937990              0.2657040
SP   3   1.00
      1.2779000             -0.2276060             -0.0175130
      0.3975900              0.00144583             0.2445330
      0.1600950              1.0927900              0.8049340
SP   1   1.00
      0.0556577              1.0000000              1.0000000
D    1   1.00
      0.6500000              1.0000000
D    1   1.00
      0.1625000              1.0000000
F    1   1.00
      0.2500000              1.0000000
****
Si     0
S    6   1.00
  16115.9000000              0.00195948
   2425.5800000              0.01492880
    553.8670000              0.07284780
    156.3400000              0.24613000
     50.0683000              0.48591400
     17.0178000              0.32500200
SP   6   1.00
    292.7180000             -0.00278094             0.00443826
     69.8731000             -0.03571460             0.03266790
     22.3363000             -0.11498500             0.13472100
      8.1503900              0.09356340             0.32867800
      3.1345800              0.60301700             0.44964000
      1.2254300              0.41895900             0.26137200
SP   3   1.00
      1.7273800             -0.24463000            -0.01779510
      0.5729220              0.00431572             0.25353900
      0.2221920              1.09818000             0.80066900
SP   1   1.00
      0.0778369              1.00000000             1.00000000
D    1   1.00
      0.9000000              1.0000000
D    1   1.00
      0.2250000              1.0000000
F    1   1.00
      0.3200000              1.0000000
****
P     0
S    6   1.00
  19413.3000000              0.0018516
   2909.4200000              0.0142062
    661.3640000              0.0699995
    185.7590000              0.2400790
     59.1943000              0.4847620
     20.0310000              0.3352000
SP   6   1.00
    339.4780000             -0.00278217             0.00456462
     81.0101000             -0.0360499              0.03369360
     25.8780000             -0.1166310              0.13975500
      9.4522100              0.0968328              0.33936200
      3.6656600              0.6144180              0.45092100
      1.4674600              0.4037980              0.23858600
SP   3   1.00
      2.1562300             -0.2529230             -0.01776530
      0.7489970              0.0328517              0.27405800
      0.2831450              1.0812500              0.78542100
SP   1   1.00
      0.0998317              1.0000000              1.00000000
D    1   1.00
      1.1000000              1.0000000
D    1   1.00
      0.2750000              1.0000000
F    1   1.00
      0.4500000              1.0000000
****
S     0
S    6   1.00
  21917.1000000              0.0018690
   3301.4900000              0.0142300
    754.1460000              0.0696960
    212.7110000              0.2384870
     67.9896000              0.4833070
     23.0515000              0.3380740
SP   6   1.00
    423.7350000             -0.0023767              0.0040610
    100.7100000             -0.0316930              0.0306810
     32.1599000             -0.1133170              0.1304520
     11.8079000              0.0560900              0.3272050
      4.6311000              0.5922550              0.4528510
      1.8702500              0.4550060              0.2560420
SP   3   1.00
      2.6158400             -0.2503740             -0.0145110
      0.9221670              0.0669570              0.3102630
      0.3412870              1.0545100              0.7544830
SP   1   1.00
      0.1171670              1.0000000              1.0000000
D    1   1.00
      1.3000000              1.0000000
D    1   1.00
      0.3250000              1.0000000
F    1   1.00
      0.5500000              1.0000000
****
Cl     0
S    6   1.00
  25180.1000000              0.0018330
   3780.3500000              0.0140340
    860.4740000              0.0690970
    242.1450000              0.2374520
     77.3349000              0.4830340
     26.2470000              0.3398560
SP   6   1.00
    491.7650000             -0.0022974              0.0039894
    116.9840000             -0.0307140              0.0303180
     37.4153000             -0.1125280              0.1298800
     13.7834000              0.0450160              0.3279510
      5.4521500              0.5893530              0.4535270
      2.2258800              0.4652060              0.2521540
SP   3   1.00
      3.1864900             -0.2518300             -0.0142990
      1.1442700              0.0615890              0.3235720
      0.4203770              1.0601800              0.7435070
SP   1   1.00
      0.1426570              1.0000000              1.0000000
D    1   1.00
      1.5000000              1.0000000
D    1   1.00
      0.3750000              1.0000000
F    1   1.00
      0.7000000              1.0000000
****
}

set {
reference uhf
freeze_core true
e_convergence 10
d_convergence 10
dft_spherical_points 1202
dft_radial_points 99
}

e = energy('b3lyp')

print_out('Grab this energy {0}'.format(e))
--------------------------------------------------------------------------

    Molecular point group: c1

    Geometry (in Bohr), charge = 0, multiplicity = 2:

       Center              X                  Y                   Z               Mass
    ------------   -----------------  -----------------  -----------------  -----------------
         C           -0.323340200716    -0.001525551166     0.000205769286    12.000000000000
         C            0.062025196984    -1.400939332766    -2.425499282514    12.000000000000
         C            0.061174609684     2.803080179834    -0.000187951914    12.000000000000
         C            0.060100734984    -1.401177207666     2.425528504286    12.000000000000
         H            2.089856030784    -1.647384170466    -2.848761948614     1.007825032230
         H           -0.763021916616    -0.384357311066    -4.019474076514     1.007825032230
         H           -0.764601180516    -3.291452673166    -2.350672906814     1.007825032230
         H            2.086569132184     3.293165624134    -0.001892542714     1.007825032230
         H           -0.765188081916     3.679086966934     1.677799716786     1.007825032230
         H           -0.767117031016     3.681926029134    -1.676731651614     1.007825032230
         H            2.084224975884    -1.643721693766     2.838612113886     1.007825032230
         H           -0.768394410416    -3.294707209166     2.357011805086     1.007825032230
         H           -0.764899289216    -0.385864975466     4.023549403486     1.007825032230

  Charge       = 0
  Multiplicity = 2
  Basis Set: ANONYMOUS132F4560
    Blend: 6-31G_2DFP_
  Basis Set: (ANONYMOUS132F4560 AUX)
    Blend: DEF2-UNIVERSAL-JKFIT

    Orbital Energies [Eh]
    ---------------------

    Alpha Occupied:

       1A    -10.180342     2A    -10.167199     3A    -10.166956
       4A    -10.166890     5A     -0.797768     6A     -0.686312
       7A     -0.686062     8A     -0.530775     9A     -0.441130
      10A     -0.434783    11A     -0.434557    12A     -0.382824
      13A     -0.382372    14A     -0.363611    15A     -0.338165
      16A     -0.337831    17A     -0.168961

    Alpha Virtual:

      18A      0.076073    19A      0.134096    20A      0.134213
      21A      0.142411    22A      0.142841    23A      0.154881
      24A      0.178635    25A      0.178918    26A      0.203551
      27A      0.214804    28A      0.275717    29A      0.276254
      30A      0.399091    31A      0.399357    32A      0.403352
      33A      0.423982    34A      0.424216    35A      0.456594
      36A      0.495328    37A      0.495450    38A      0.512160
      39A      0.513981    40A      0.578495    41A      0.579127
      42A      0.591248    43A      0.591995    44A      0.602608
      45A      0.624759    46A      0.631750    47A      0.636040
      48A      0.636491    49A      0.663361    50A      0.663464
      51A      0.683735    52A      0.683970    53A      0.734993
      54A      0.825181    55A      0.825630    56A      0.853915
      57A      0.914676    58A      0.915359    59A      0.944107
      60A      0.944613    61A      0.960600    62A      0.962013
      63A      1.003461    64A      1.127648    65A      1.128555
      66A      1.142204    67A      1.163100    68A      1.163468
      69A      1.223327    70A      1.274301    71A      1.274662
      72A      1.279365    73A      1.324278    74A      1.324431
      75A      1.355978    76A      1.365893    77A      1.366224
      78A      1.392450    79A      1.403466    80A      1.404629
      81A      1.416585    82A      1.417627    83A      1.427924
      84A      1.491502    85A      1.499060    86A      1.542579
      87A      1.543093    88A      1.573964    89A      1.574941
      90A      1.669835    91A      1.739028    92A      1.739798
      93A      1.768325    94A      1.830754    95A      1.832052
      96A      1.971722    97A      2.018029    98A      2.018988
      99A      2.019385   100A      2.051710   101A      2.053573
     102A      2.738213   103A      2.738757   104A      2.790932
     105A      2.811418   106A      2.889618   107A      2.890224
     108A      2.895025   109A      2.929185   110A      2.929808
     111A      2.958989   112A      2.964145   113A      2.964614
     114A      3.034003   115A      3.070631   116A      3.071938
     117A      3.084351   118A      3.168480   119A      3.169094
     120A      3.180578   121A      3.285189   122A      3.285441
     123A      3.326229   124A      3.328097   125A      3.375619
     126A      3.489075   127A      3.491218   128A      3.514016
     129A      3.525313   130A      3.567973   131A      3.568591
     132A      3.575387   133A      3.665868   134A      3.666836
     135A      3.679633   136A      3.693399   137A      3.694883
     138A      3.775565   139A      3.778034   140A      3.789206
     141A      3.911936   142A      3.912538   143A      4.034443
     144A      4.110092   145A      4.112618   146A      4.147198
     147A      4.148998   148A      4.173285   149A      4.202244
     150A      4.202858   151A      4.203705   152A      4.210852
     153A      4.315147   154A      4.316730   155A      4.359031
     156A      4.424189   157A      4.424749   158A      4.443428
     159A      4.516080   160A      4.517551   161A      4.577929
     162A      4.578598   163A      4.617578   164A      4.709402
     165A      4.773360   166A      4.775845   167A      4.836960
     168A      4.962861   169A      5.002305   170A      5.003607
     171A      5.228062   172A      5.246088   173A      5.247538
     174A      5.354778   175A      5.356235   176A      5.479353

    Beta Occupied:

       1A    -10.167957     2A    -10.167710     3A    -10.167657
       4A    -10.166520     5A     -0.781093     6A     -0.684107
       7A     -0.683873     8A     -0.511747     9A     -0.431159
      10A     -0.430931    11A     -0.421820    12A     -0.376915
      13A     -0.376451    14A     -0.362595    15A     -0.333275
      16A     -0.332967

    Beta Virtual:

      17A     -0.025743    18A      0.077082    19A      0.134996
      20A      0.135093    21A      0.144303    22A      0.144691
      23A      0.163340    24A      0.182307    25A      0.182590
      26A      0.215033    27A      0.218932    28A      0.282075
      29A      0.282592    30A      0.400269    31A      0.400524
      32A      0.419790    33A      0.426791    34A      0.427030
      35A      0.468501    36A      0.497593    37A      0.497708
      38A      0.513896    39A      0.556325    40A      0.584042
      41A      0.584681    42A      0.597434    43A      0.598173
      44A      0.610024    45A      0.628137    46A      0.631916
      47A      0.639320    48A      0.639772    49A      0.666917
      50A      0.667036    51A      0.686377    52A      0.686598
      53A      0.757516    54A      0.830329    55A      0.830819
      56A      0.855269    57A      0.922684    58A      0.923293
      59A      0.945946    60A      0.953533    61A      0.965965
      62A      0.967266    63A      1.008702    64A      1.131674
      65A      1.132586    66A      1.155576    67A      1.168168
      68A      1.168551    69A      1.232298    70A      1.279907
      71A      1.280253    72A      1.285118    73A      1.329261
      74A      1.329427    75A      1.365381    76A      1.371164
      77A      1.371453    78A      1.393511    79A      1.406912
      80A      1.408110    81A      1.421631    82A      1.422669
      83A      1.428205    84A      1.492550    85A      1.509500
      86A      1.546972    87A      1.547524    88A      1.581743
      89A      1.582901    90A      1.674682    91A      1.744784
      92A      1.745568    93A      1.779103    94A      1.834615
      95A      1.835903    96A      1.972582    97A      2.025369
      98A      2.025524    99A      2.039686   100A      2.058396
     101A      2.060318   102A      2.746563   103A      2.747080
     104A      2.811831   105A      2.816065   106A      2.902361
     107A      2.902918   108A      2.924667   109A      2.931681
     110A      2.932277   111A      2.960056   112A      2.968700
     113A      2.969144   114A      3.041938   115A      3.080500
     116A      3.081886   117A      3.086168   118A      3.184211
     119A      3.184871   120A      3.188253   121A      3.289944
     122A      3.290283   123A      3.330049   124A      3.331885
     125A      3.383438   126A      3.491828   127A      3.493922
     128A      3.512385   129A      3.528366   130A      3.574795
     131A      3.581524   132A      3.582156   133A      3.670692
     134A      3.671549   135A      3.692924   136A      3.725363
     137A      3.726158   138A      3.780146   139A      3.782514
     140A      3.817737   141A      3.921765   142A      3.922341
     143A      4.045331   144A      4.117025   145A      4.119322
     146A      4.154382   147A      4.156236   148A      4.187337
     149A      4.208606   150A      4.209195   151A      4.210847
     152A      4.215328   153A      4.322571   154A      4.324180
     155A      4.362399   156A      4.432441   157A      4.432925
     158A      4.446315   159A      4.523881   160A      4.525330
     161A      4.588528   162A      4.589198   163A      4.624774
     164A      4.719745   165A      4.780334   166A      4.782778
     167A      4.839879   168A      4.967655   169A      5.006353
     170A      5.007638   171A      5.233777   172A      5.247869
     173A      5.249327   174A      5.361238   175A      5.362737
     176A      5.481674

    Final Occupation by Irrep:
              A
    DOCC [    16 ]
    SOCC [     1 ]

  @DF-UKS Final Energy:  -157.81306286709486

   => Energetics <=

    Nuclear Repulsion Energy =            125.3946372490843544
    One-Electron Energy =                -458.7489185025793859
    Two-Electron Energy =                 195.8483623588975036
    DFT Exchange-Correlation Energy =     -20.3071439724972969
    Empirical Dispersion Energy =           0.0000000000000000
    VV10 Nonlocal Energy =                  0.0000000000000000
    Total Energy =                       -157.8130628670948568

  UHF NO Occupations:
  HONO-2 :   15  A 1.9996009
  HONO-1 :   16  A 1.9989804
  HONO-0 :   17  A 1.0000000
  LUNO+0 :   18  A 0.0010196
  LUNO+1 :   19  A 0.0003991
  LUNO+2 :   20  A 0.0001979
  LUNO+3 :   21  A 0.0001972

Computation Completed

Properties will be evaluated at   0.000000,   0.000000,   0.000000 [a0]

Properties computed using the SCF density matrix

  Nuclear Dipole Moment: [e a0]
     X:     0.8272      Y:     0.0033      Z:    -0.0003

  Electronic Dipole Moment: [e a0]
     X:    -0.7493      Y:    -0.0033      Z:     0.0010

  Dipole Moment: [e a0]
     X:     0.0779      Y:    -0.0000      Z:     0.0008     Total:     0.0779

  Dipole Moment: [D]
     X:     0.1980      Y:    -0.0000      Z:     0.0019     Total:     0.1980

*** tstop() called on n091 at Fri Nov  5 15:16:52 2021
Module time:
	user time   =     494.65 seconds =       8.24 minutes
	system time =       4.47 seconds =       0.07 minutes
	total time  =        125 seconds =       2.08 minutes
Total time:
	user time   =     494.65 seconds =       8.24 minutes
	system time =       4.47 seconds =       0.07 minutes
	total time  =        125 seconds =       2.08 minutes
Grab this energy -157.81306286709486
    Psi4 stopped on: Friday, 05 November 2021 03:16PM
    Psi4 wall time for execution: 0:02:05.50

*** Psi4 exiting successfully. Buy a developer a beer!
