                               Psi4 1.4a2.dev629

  ==> Input File <==

--------------------------------------------------------------------------
import os
memory 14 GB

molecule {
 C   -0.3233313336    0.0054841928    0.0000000000
 C    0.0613939873   -1.4033228502   -2.4198891927
 C    0.0605157598    2.8105249099   -0.0000000000
 C    0.0613939873   -1.4033228502    2.4198891927
 H    2.0894153653   -1.6500517625   -2.8384038748
 H   -0.7636585998   -0.3951180955   -4.0243073458
 H   -0.7684379956   -3.2960504474   -2.3352417502
 H    2.0818397300    3.2977533788   -0.0000000000
 H   -0.7645287737    3.6876497581    1.6726546581
 H   -0.7645287737    3.6876497581   -1.6726546581
 H    2.0894153653   -1.6500517625    2.8384038748
 H   -0.7684379956   -3.2960504474    2.3352417502
 H   -0.7636585998   -0.3951180955    4.0243073458
units bohr
0 2
}

basis {

assign 6-31g_2dfp_

[ 6-31g_2dfp_ ]

spherical

!----------------------------------------------------------------------
! Basis Set Exchange
! Version v0.8.13
! https://www.basissetexchange.org
!----------------------------------------------------------------------
!   Basis set: 6-31G(2df,p)
! Description: 6-31G(2df,p)
!        Role: orbital
!     Version: 0  (Data from the original Basis Set Exchange)
!----------------------------------------------------------------------

****
H     0
S    3   1.00
     18.7311370              0.03349460
      2.8253937              0.23472695
      0.6401217              0.81375733
S    1   1.00
      0.1612778              1.00000000
P    1   1.00
      1.5000000              1.0000000
P    1   1.00
      0.3750000              1.0000000
****
B     0
S    6   1.00
   2068.8823000              0.0018663
    310.6495700              0.0142515
     70.6830330              0.0695516
     19.8610800              0.2325729
      6.2993048              0.4670787
      2.1270270              0.3634314
SP   3   1.00
      4.7279710             -0.1303938              0.0745976
      1.1903377             -0.1307889              0.3078467
      0.3594117              1.1309444              0.7434568
SP   1   1.00
      0.1267512              1.0000000              1.0000000
D    1   1.00
      0.8020000              1.0000000
D    1   1.00
      0.2005000              1.0000000
F    1   1.00
      0.5000000              1.0000000
****
C     0
S    6   1.00
   3047.5249000              0.0018347
    457.3695100              0.0140373
    103.9486900              0.0688426
     29.2101550              0.2321844
      9.2866630              0.4679413
      3.1639270              0.3623120
SP   3   1.00
      7.8682724             -0.1193324              0.0689991
      1.8812885             -0.1608542              0.3164240
      0.5442493              1.1434564              0.7443083
SP   1   1.00
      0.1687144              1.0000000              1.0000000
D    1   1.00
      1.2520000              1.0000000
D    1   1.00
      0.3130000              1.0000000
F    1   1.00
      0.8000000              1.0000000
****
N     0
S    6   1.00
   4173.5110000              0.0018348
    627.4579000              0.0139950
    142.9021000              0.0685870
     40.2343300              0.2322410
     12.8202100              0.4690700
      4.3904370              0.3604550
SP   3   1.00
     11.6263580             -0.1149610              0.0675800
      2.7162800             -0.1691180              0.3239070
      0.7722180              1.1458520              0.7408950
SP   1   1.00
      0.2120313              1.0000000              1.0000000
D    1   1.00
      1.8260000              1.0000000
D    1   1.00
      0.4565000              1.0000000
F    1   1.00
      1.0000000              1.0000000
****
O     0
S    6   1.00
   5484.6717000              0.0018311
    825.2349500              0.0139501
    188.0469600              0.0684451
     52.9645000              0.2327143
     16.8975700              0.4701930
      5.7996353              0.3585209
SP   3   1.00
     15.5396160             -0.1107775              0.0708743
      3.5999336             -0.1480263              0.3397528
      1.0137618              1.1307670              0.7271586
SP   1   1.00
      0.2700058              1.0000000              1.0000000
D    1   1.00
      2.5840000              1.0000000
D    1   1.00
      0.6460000              1.0000000
F    1   1.00
      1.4000000              1.0000000
****
F     0
S    6   1.00
   7001.7130900              0.0018196169
   1051.3660900              0.0139160796
    239.2856900              0.0684053245
     67.3974453              0.233185760
     21.5199573              0.471267439
      7.40310130             0.356618546
SP   3   1.00
     20.8479528             -0.108506975            0.0716287243
      4.80830834            -0.146451658            0.3459121030
      1.34406986             1.128688580            0.7224699570
SP   1   1.00
      0.358151393            1.0000000              1.0000000
D    1   1.00
      3.5000000              1.0000000
D    1   1.00
      0.8750000              1.0000000
F    1   1.00
      1.8500000              1.0000000
****
Al     0
S    6   1.00
  13983.1000000              0.00194267
   2098.7500000              0.0148599
    477.7050000              0.0728494
    134.3600000              0.2468300
     42.8709000              0.4872580
     14.5189000              0.3234960
SP   6   1.00
    239.6680000             -0.00292619             0.00460285
     57.4419000             -0.0374080              0.0331990
     18.2859000             -0.1144870              0.1362820
      6.5991400              0.1156350              0.3304760
      2.4904900              0.6125950              0.4491460
      0.9445400              0.3937990              0.2657040
SP   3   1.00
      1.2779000             -0.2276060             -0.0175130
      0.3975900              0.00144583             0.2445330
      0.1600950              1.0927900              0.8049340
SP   1   1.00
      0.0556577              1.0000000              1.0000000
D    1   1.00
      0.6500000              1.0000000
D    1   1.00
      0.1625000              1.0000000
F    1   1.00
      0.2500000              1.0000000
****
Si     0
S    6   1.00
  16115.9000000              0.00195948
   2425.5800000              0.01492880
    553.8670000              0.07284780
    156.3400000              0.24613000
     50.0683000              0.48591400
     17.0178000              0.32500200
SP   6   1.00
    292.7180000             -0.00278094             0.00443826
     69.8731000             -0.03571460             0.03266790
     22.3363000             -0.11498500             0.13472100
      8.1503900              0.09356340             0.32867800
      3.1345800              0.60301700             0.44964000
      1.2254300              0.41895900             0.26137200
SP   3   1.00
      1.7273800             -0.24463000            -0.01779510
      0.5729220              0.00431572             0.25353900
      0.2221920              1.09818000             0.80066900
SP   1   1.00
      0.0778369              1.00000000             1.00000000
D    1   1.00
      0.9000000              1.0000000
D    1   1.00
      0.2250000              1.0000000
F    1   1.00
      0.3200000              1.0000000
****
P     0
S    6   1.00
  19413.3000000              0.0018516
   2909.4200000              0.0142062
    661.3640000              0.0699995
    185.7590000              0.2400790
     59.1943000              0.4847620
     20.0310000              0.3352000
SP   6   1.00
    339.4780000             -0.00278217             0.00456462
     81.0101000             -0.0360499              0.03369360
     25.8780000             -0.1166310              0.13975500
      9.4522100              0.0968328              0.33936200
      3.6656600              0.6144180              0.45092100
      1.4674600              0.4037980              0.23858600
SP   3   1.00
      2.1562300             -0.2529230             -0.01776530
      0.7489970              0.0328517              0.27405800
      0.2831450              1.0812500              0.78542100
SP   1   1.00
      0.0998317              1.0000000              1.00000000
D    1   1.00
      1.1000000              1.0000000
D    1   1.00
      0.2750000              1.0000000
F    1   1.00
      0.4500000              1.0000000
****
S     0
S    6   1.00
  21917.1000000              0.0018690
   3301.4900000              0.0142300
    754.1460000              0.0696960
    212.7110000              0.2384870
     67.9896000              0.4833070
     23.0515000              0.3380740
SP   6   1.00
    423.7350000             -0.0023767              0.0040610
    100.7100000             -0.0316930              0.0306810
     32.1599000             -0.1133170              0.1304520
     11.8079000              0.0560900              0.3272050
      4.6311000              0.5922550              0.4528510
      1.8702500              0.4550060              0.2560420
SP   3   1.00
      2.6158400             -0.2503740             -0.0145110
      0.9221670              0.0669570              0.3102630
      0.3412870              1.0545100              0.7544830
SP   1   1.00
      0.1171670              1.0000000              1.0000000
D    1   1.00
      1.3000000              1.0000000
D    1   1.00
      0.3250000              1.0000000
F    1   1.00
      0.5500000              1.0000000
****
Cl     0
S    6   1.00
  25180.1000000              0.0018330
   3780.3500000              0.0140340
    860.4740000              0.0690970
    242.1450000              0.2374520
     77.3349000              0.4830340
     26.2470000              0.3398560
SP   6   1.00
    491.7650000             -0.0022974              0.0039894
    116.9840000             -0.0307140              0.0303180
     37.4153000             -0.1125280              0.1298800
     13.7834000              0.0450160              0.3279510
      5.4521500              0.5893530              0.4535270
      2.2258800              0.4652060              0.2521540
SP   3   1.00
      3.1864900             -0.2518300             -0.0142990
      1.1442700              0.0615890              0.3235720
      0.4203770              1.0601800              0.7435070
SP   1   1.00
      0.1426570              1.0000000              1.0000000
D    1   1.00
      1.5000000              1.0000000
D    1   1.00
      0.3750000              1.0000000
F    1   1.00
      0.7000000              1.0000000
****
}

set {
reference uhf
freeze_core true
e_convergence 10
d_convergence 10
dft_spherical_points 1202
dft_radial_points 99
}

e = energy('b3lyp')

print_out('Grab this energy {0}'.format(e))
--------------------------------------------------------------------------

    Molecular point group: cs

    Geometry (in Bohr), charge = 0, multiplicity = 2:

       Center              X                  Y                   Z               Mass
    ------------   -----------------  -----------------  -----------------  -----------------
         C           -0.323333719163     0.003681163436     0.000000000000    12.000000000000
         C            0.061391601737    -1.405125879564    -2.419889192700    12.000000000000
         C            0.060513374237     2.808721880536     0.000000000000    12.000000000000
         C            0.061391601737    -1.405125879564     2.419889192700    12.000000000000
         H            2.089412979737    -1.651854791864    -2.838403874800     1.007825032230
         H           -0.763660985363    -0.396921124864    -4.024307345800     1.007825032230
         H           -0.768440381163    -3.297853476764    -2.335241750200     1.007825032230
         H            2.081837344437     3.295950349436     0.000000000000     1.007825032230
         H           -0.764531159263     3.685846728736     1.672654658100     1.007825032230
         H           -0.764531159263     3.685846728736    -1.672654658100     1.007825032230
         H            2.089412979737    -1.651854791864     2.838403874800     1.007825032230
         H           -0.768440381163    -3.297853476764     2.335241750200     1.007825032230
         H           -0.763660985363    -0.396921124864     4.024307345800     1.007825032230

  Charge       = 0
  Multiplicity = 2
  Basis Set: ANONYMOUS1D4F1BA8
    Blend: 6-31G_2DFP_
  Basis Set: (ANONYMOUS1D4F1BA8 AUX)
    Blend: DEF2-UNIVERSAL-JKFIT

    Orbital Energies [Eh]
    ---------------------

    Alpha Occupied:

       1Ap   -10.180342     1App  -10.167209     2Ap   -10.167179
       3Ap   -10.166657     4Ap    -0.797769     5Ap    -0.686733
       2App   -0.685642     6Ap    -0.530775     7Ap    -0.441126
       8Ap    -0.434850     3App   -0.434495     9Ap    -0.382968
       4App   -0.382230     5App   -0.363614    10Ap    -0.338244
       6App   -0.337746    11Ap    -0.168962

    Alpha Virtual:

      12Ap     0.076070    13Ap     0.133904     7App    0.134388
      14Ap     0.142392     8App    0.142881    15Ap     0.154876
       9App    0.178681    16Ap     0.178883    17Ap     0.203544
      10App    0.214806    18Ap     0.275773    11App    0.276199
      19Ap     0.399083    12App    0.399292    20Ap     0.403429
      21Ap     0.423872    13App    0.424332    22Ap     0.456593
      23Ap     0.495054    14App    0.495720    15App    0.512169
      24Ap     0.513986    25Ap     0.578661    16App    0.578942
      17App    0.591357    26Ap     0.591908    27Ap     0.602602
      28Ap     0.624756    18App    0.631735    29Ap     0.636084
      19App    0.636450    30Ap     0.663382    20App    0.663449
      21App    0.683792    31Ap     0.683933    32Ap     0.734993
      33Ap     0.824181    22App    0.826611    23App    0.853937
      34Ap     0.914766    24App    0.915279    25App    0.944075
      35Ap     0.944548    26App    0.961353    36Ap     0.961395
      37Ap     1.003468    38Ap     1.127269    27App    1.128975
      39Ap     1.142190    40Ap     1.162683    28App    1.163849
      41Ap     1.223346    42Ap     1.274168    29App    1.274836
      43Ap     1.279336    44Ap     1.324094    30App    1.324614
      45Ap     1.355968    46Ap     1.365611    31App    1.366428
      32App    1.392486    47Ap     1.403627    33App    1.404513
      48Ap     1.416963    34App    1.417284    35App    1.427913
      36App    1.491447    49Ap     1.499085    50Ap     1.542392
      37App    1.543262    51Ap     1.572311    38App    1.576686
      52Ap     1.669790    53Ap     1.738275    39App    1.740544
      54Ap     1.768319    40App    1.830334    55Ap     1.832532
      41App    1.971747    56Ap     2.017216    57Ap     2.018542
      42App    2.020607    58Ap     2.050101    43App    2.055279
      59Ap     2.737770    44App    2.739195    60Ap     2.790920
      45App    2.811439    46App    2.889574    61Ap     2.890224
      62Ap     2.895027    63Ap     2.929220    47App    2.929790
      48App    2.959006    64Ap     2.963977    49App    2.964784
      65Ap     3.034043    66Ap     3.070542    50App    3.072068
      51App    3.084361    67Ap     3.167885    52App    3.169725
      68Ap     3.180553    53App    3.284673    69Ap     3.285945
      70Ap     3.326178    54App    3.328164    71Ap     3.375651
      72Ap     3.488864    55App    3.491417    56App    3.514016
      73Ap     3.525247    74Ap     3.567390    57App    3.569014
      58App    3.575673    59App    3.665790    75Ap     3.666931
      76Ap     3.679628    60App    3.693200    77Ap     3.695059
      61App    3.775432    78Ap     3.778064    79Ap     3.789327
      80Ap     3.911209    62App    3.913201    81Ap     4.034474
      82Ap     4.110704    63App    4.111986    83Ap     4.144503
      64App    4.151737    84Ap     4.173260    85Ap     4.200126
      65App    4.203658    86Ap     4.204594    66App    4.211464
      67App    4.315223    87Ap     4.316705    68App    4.358929
      88Ap     4.424094    69App    4.424842    70App    4.443458
      89Ap     4.516247    71App    4.517482    90Ap     4.576705
      72App    4.579814    91Ap     4.617528    92Ap     4.709443
      93Ap     4.773417    73App    4.775787    74App    4.836906
      94Ap     4.962879    95Ap     5.002575    75App    5.003371
      96Ap     5.227924    97Ap     5.243298    76App    5.250293
      77App    5.353194    98Ap     5.357950    78App    5.479389

    Beta Occupied:

       1App  -10.167966     1Ap   -10.167947     2Ap   -10.167413
       3Ap   -10.166519     4Ap    -0.781095     5Ap    -0.684539
       2App   -0.683441     6Ap    -0.511746     7Ap    -0.431218
       3App   -0.430869     8Ap    -0.421824     9Ap    -0.377072
       4App   -0.376296     5App   -0.362597    10Ap    -0.333378
       6App   -0.332859

    Beta Virtual:

      11Ap    -0.025744    12Ap     0.077079    13Ap     0.134728
       7App    0.135347    14Ap     0.144317     8App    0.144695
      15Ap     0.163335     9App    0.182371    16Ap     0.182535
      10App    0.215035    17Ap     0.218926    18Ap     0.282107
      11App    0.282561    19Ap     0.400351    12App    0.400434
      20Ap     0.419799    21Ap     0.426667    13App    0.427161
      22Ap     0.468503    23Ap     0.497315    14App    0.497984
      15App    0.513904    24Ap     0.556327    25Ap     0.584252
      16App    0.584456    17App    0.597570    26Ap     0.598050
      27Ap     0.610024    28Ap     0.628133    18App    0.631912
      29Ap     0.639410    19App    0.639677    30Ap     0.666932
      20App    0.667022    31Ap     0.686483    21App    0.686516
      32Ap     0.757515    33Ap     0.829314    22App    0.831814
      23App    0.855292    34Ap     0.922725    24App    0.923258
      25App    0.945931    35Ap     0.953469    26App    0.966563
      36Ap     0.966791    37Ap     1.008706    38Ap     1.131322
      27App    1.132979    39Ap     1.155557    40Ap     1.167724
      28App    1.168968    41Ap     1.232317    42Ap     1.279763
      29App    1.280434    43Ap     1.285089    44Ap     1.329053
      30App    1.329635    45Ap     1.365370    46Ap     1.370752
      31App    1.371777    32App    1.393549    47Ap     1.407150
      33App    1.407934    48Ap     1.422056    34App    1.422287
      35App    1.428183    36App    1.492498    49Ap     1.509526
      50Ap     1.546644    37App    1.547818    51Ap     1.580347
      38App    1.584400    52Ap     1.674636    53Ap     1.744057
      39App    1.746283    54Ap     1.779101    40App    1.834237
      55Ap     1.836341    41App    1.972607    56Ap     2.023908
      42App    2.027010    57Ap     2.039587    58Ap     2.056886
      43App    2.061960    59Ap     2.746047    44App    2.747590
      45App    2.811851    60Ap     2.816055    46App    2.902372
      61Ap     2.902852    62Ap     2.924669    63Ap     2.931855
      47App    2.932134    48App    2.960069    64Ap     2.968595
      49App    2.969257    65Ap     3.041975    66Ap     3.080399
      50App    3.082005    51App    3.086210    67Ap     3.183714
      52App    3.185393    68Ap     3.188226    53App    3.289565
      69Ap     3.290654    70Ap     3.329996    54App    3.331956
      71Ap     3.383471    72Ap     3.491632    55App    3.494098
      56App    3.512395    73Ap     3.528305    57App    3.574591
      74Ap     3.580693    58App    3.583327    59App    3.670495
      75Ap     3.671731    76Ap     3.692930    60App    3.724887
      77Ap     3.726604    61App    3.779965    78Ap     3.782676
      79Ap     3.817776    80Ap     3.921013    62App    3.923033
      81Ap     4.045360    82Ap     4.117300    63App    4.118991
      83Ap     4.151990    64App    4.158700    84Ap     4.187320
      85Ap     4.206769    65App    4.209490    86Ap     4.211892
      66App    4.216013    67App    4.322770    87Ap     4.324034
      68App    4.362295    88Ap     4.432393    69App    4.432974
      70App    4.446339    89Ap     4.524075    71App    4.525233
      90Ap     4.587273    72App    4.590446    91Ap     4.624719
      92Ap     4.719788    93Ap     4.780367    73App    4.782743
      74App    4.839824    94Ap     4.967675    95Ap     5.006599
      75App    5.007426    96Ap     5.233640    97Ap     5.245091
      76App    5.252072    77App    5.359706    98Ap     5.364394
      78App    5.481710

    Final Occupation by Irrep:
             Ap   App
    DOCC [    10,    6 ]
    SOCC [     1,    0 ]

  @DF-UKS Final Energy:  -157.81304988140272

   => Energetics <=

    Nuclear Repulsion Energy =            125.3949106484325569
    One-Electron Energy =                -458.7494283002683915
    Two-Electron Energy =                 195.8486186466395793
    DFT Exchange-Correlation Energy =     -20.3071508762064319
    Empirical Dispersion Energy =           0.0000000000000000
    VV10 Nonlocal Energy =                  0.0000000000000000
    Total Energy =                       -157.8130498814027192

  UHF NO Occupations:
  HONO-2 :    9 Ap 1.9996008
  HONO-1 :   10 Ap 1.9989804
  HONO-0 :   11 Ap 1.0000000
  LUNO+0 :   12 Ap 0.0010196
  LUNO+1 :   13 Ap 0.0003992
  LUNO+2 :    7App 0.0001979
  LUNO+3 :   14 Ap 0.0001971

Computation Completed

Properties will be evaluated at   0.000000,   0.000000,   0.000000 [a0]

Properties computed using the SCF density matrix

  Nuclear Dipole Moment: [e a0]
     X:     0.8272      Y:    -0.0127      Z:     0.0000

  Electronic Dipole Moment: [e a0]
     X:    -0.7493      Y:     0.0159      Z:     0.0000

  Dipole Moment: [e a0]
     X:     0.0779      Y:     0.0032      Z:     0.0000     Total:     0.0780

  Dipole Moment: [D]
     X:     0.1980      Y:     0.0081      Z:     0.0000     Total:     0.1982

*** tstop() called on n089 at Fri Nov  5 15:14:26 2021
Module time:
	user time   =     508.57 seconds =       8.48 minutes
	system time =       4.64 seconds =       0.08 minutes
	total time  =        129 seconds =       2.15 minutes
Total time:
	user time   =     508.57 seconds =       8.48 minutes
	system time =       4.64 seconds =       0.08 minutes
	total time  =        129 seconds =       2.15 minutes
Grab this energy -157.81304988140272
    Psi4 stopped on: Friday, 05 November 2021 03:14PM
    Psi4 wall time for execution: 0:02:09.05

*** Psi4 exiting successfully. Buy a developer a beer!
