                               Psi4 1.4a2.dev629

  ==> Input File <==

--------------------------------------------------------------------------
import os
memory 14 GB

molecule {
 C   -0.3223283768   -0.0000020915   -0.0000000000
 C    0.0620163422   -1.3999806220   -2.4248268744
 C    0.0618967842    2.7999667515    0.0000000000
 C    0.0620163422   -1.3999806220    2.4248268744
 H    2.0835723923   -1.6441347557   -2.8475061226
 H   -0.7643293784   -0.3866466180   -4.0272442291
 H   -0.7644933904   -3.2943140159   -2.3485053023
 H    2.0834333190    3.2881773786    0.0000000000
 H   -0.7645707672    3.6809928354    1.6787457101
 H   -0.7645707672    3.6809928354   -1.6787457101
 H    2.0835723923   -1.6441347557    2.8475061226
 H   -0.7644933904   -3.2943140159    2.3485053023
 H   -0.7643293784   -0.3866466180    4.0272442291
units bohr
0 2
}

basis {

assign 6-31g_2dfp_

[ 6-31g_2dfp_ ]

spherical

!----------------------------------------------------------------------
! Basis Set Exchange
! Version v0.8.13
! https://www.basissetexchange.org
!----------------------------------------------------------------------
!   Basis set: 6-31G(2df,p)
! Description: 6-31G(2df,p)
!        Role: orbital
!     Version: 0  (Data from the original Basis Set Exchange)
!----------------------------------------------------------------------

****
H     0
S    3   1.00
     18.7311370              0.03349460
      2.8253937              0.23472695
      0.6401217              0.81375733
S    1   1.00
      0.1612778              1.00000000
P    1   1.00
      1.5000000              1.0000000
P    1   1.00
      0.3750000              1.0000000
****
B     0
S    6   1.00
   2068.8823000              0.0018663
    310.6495700              0.0142515
     70.6830330              0.0695516
     19.8610800              0.2325729
      6.2993048              0.4670787
      2.1270270              0.3634314
SP   3   1.00
      4.7279710             -0.1303938              0.0745976
      1.1903377             -0.1307889              0.3078467
      0.3594117              1.1309444              0.7434568
SP   1   1.00
      0.1267512              1.0000000              1.0000000
D    1   1.00
      0.8020000              1.0000000
D    1   1.00
      0.2005000              1.0000000
F    1   1.00
      0.5000000              1.0000000
****
C     0
S    6   1.00
   3047.5249000              0.0018347
    457.3695100              0.0140373
    103.9486900              0.0688426
     29.2101550              0.2321844
      9.2866630              0.4679413
      3.1639270              0.3623120
SP   3   1.00
      7.8682724             -0.1193324              0.0689991
      1.8812885             -0.1608542              0.3164240
      0.5442493              1.1434564              0.7443083
SP   1   1.00
      0.1687144              1.0000000              1.0000000
D    1   1.00
      1.2520000              1.0000000
D    1   1.00
      0.3130000              1.0000000
F    1   1.00
      0.8000000              1.0000000
****
N     0
S    6   1.00
   4173.5110000              0.0018348
    627.4579000              0.0139950
    142.9021000              0.0685870
     40.2343300              0.2322410
     12.8202100              0.4690700
      4.3904370              0.3604550
SP   3   1.00
     11.6263580             -0.1149610              0.0675800
      2.7162800             -0.1691180              0.3239070
      0.7722180              1.1458520              0.7408950
SP   1   1.00
      0.2120313              1.0000000              1.0000000
D    1   1.00
      1.8260000              1.0000000
D    1   1.00
      0.4565000              1.0000000
F    1   1.00
      1.0000000              1.0000000
****
O     0
S    6   1.00
   5484.6717000              0.0018311
    825.2349500              0.0139501
    188.0469600              0.0684451
     52.9645000              0.2327143
     16.8975700              0.4701930
      5.7996353              0.3585209
SP   3   1.00
     15.5396160             -0.1107775              0.0708743
      3.5999336             -0.1480263              0.3397528
      1.0137618              1.1307670              0.7271586
SP   1   1.00
      0.2700058              1.0000000              1.0000000
D    1   1.00
      2.5840000              1.0000000
D    1   1.00
      0.6460000              1.0000000
F    1   1.00
      1.4000000              1.0000000
****
F     0
S    6   1.00
   7001.7130900              0.0018196169
   1051.3660900              0.0139160796
    239.2856900              0.0684053245
     67.3974453              0.233185760
     21.5199573              0.471267439
      7.40310130             0.356618546
SP   3   1.00
     20.8479528             -0.108506975            0.0716287243
      4.80830834            -0.146451658            0.3459121030
      1.34406986             1.128688580            0.7224699570
SP   1   1.00
      0.358151393            1.0000000              1.0000000
D    1   1.00
      3.5000000              1.0000000
D    1   1.00
      0.8750000              1.0000000
F    1   1.00
      1.8500000              1.0000000
****
Al     0
S    6   1.00
  13983.1000000              0.00194267
   2098.7500000              0.0148599
    477.7050000              0.0728494
    134.3600000              0.2468300
     42.8709000              0.4872580
     14.5189000              0.3234960
SP   6   1.00
    239.6680000             -0.00292619             0.00460285
     57.4419000             -0.0374080              0.0331990
     18.2859000             -0.1144870              0.1362820
      6.5991400              0.1156350              0.3304760
      2.4904900              0.6125950              0.4491460
      0.9445400              0.3937990              0.2657040
SP   3   1.00
      1.2779000             -0.2276060             -0.0175130
      0.3975900              0.00144583             0.2445330
      0.1600950              1.0927900              0.8049340
SP   1   1.00
      0.0556577              1.0000000              1.0000000
D    1   1.00
      0.6500000              1.0000000
D    1   1.00
      0.1625000              1.0000000
F    1   1.00
      0.2500000              1.0000000
****
Si     0
S    6   1.00
  16115.9000000              0.00195948
   2425.5800000              0.01492880
    553.8670000              0.07284780
    156.3400000              0.24613000
     50.0683000              0.48591400
     17.0178000              0.32500200
SP   6   1.00
    292.7180000             -0.00278094             0.00443826
     69.8731000             -0.03571460             0.03266790
     22.3363000             -0.11498500             0.13472100
      8.1503900              0.09356340             0.32867800
      3.1345800              0.60301700             0.44964000
      1.2254300              0.41895900             0.26137200
SP   3   1.00
      1.7273800             -0.24463000            -0.01779510
      0.5729220              0.00431572             0.25353900
      0.2221920              1.09818000             0.80066900
SP   1   1.00
      0.0778369              1.00000000             1.00000000
D    1   1.00
      0.9000000              1.0000000
D    1   1.00
      0.2250000              1.0000000
F    1   1.00
      0.3200000              1.0000000
****
P     0
S    6   1.00
  19413.3000000              0.0018516
   2909.4200000              0.0142062
    661.3640000              0.0699995
    185.7590000              0.2400790
     59.1943000              0.4847620
     20.0310000              0.3352000
SP   6   1.00
    339.4780000             -0.00278217             0.00456462
     81.0101000             -0.0360499              0.03369360
     25.8780000             -0.1166310              0.13975500
      9.4522100              0.0968328              0.33936200
      3.6656600              0.6144180              0.45092100
      1.4674600              0.4037980              0.23858600
SP   3   1.00
      2.1562300             -0.2529230             -0.01776530
      0.7489970              0.0328517              0.27405800
      0.2831450              1.0812500              0.78542100
SP   1   1.00
      0.0998317              1.0000000              1.00000000
D    1   1.00
      1.1000000              1.0000000
D    1   1.00
      0.2750000              1.0000000
F    1   1.00
      0.4500000              1.0000000
****
S     0
S    6   1.00
  21917.1000000              0.0018690
   3301.4900000              0.0142300
    754.1460000              0.0696960
    212.7110000              0.2384870
     67.9896000              0.4833070
     23.0515000              0.3380740
SP   6   1.00
    423.7350000             -0.0023767              0.0040610
    100.7100000             -0.0316930              0.0306810
     32.1599000             -0.1133170              0.1304520
     11.8079000              0.0560900              0.3272050
      4.6311000              0.5922550              0.4528510
      1.8702500              0.4550060              0.2560420
SP   3   1.00
      2.6158400             -0.2503740             -0.0145110
      0.9221670              0.0669570              0.3102630
      0.3412870              1.0545100              0.7544830
SP   1   1.00
      0.1171670              1.0000000              1.0000000
D    1   1.00
      1.3000000              1.0000000
D    1   1.00
      0.3250000              1.0000000
F    1   1.00
      0.5500000              1.0000000
****
Cl     0
S    6   1.00
  25180.1000000              0.0018330
   3780.3500000              0.0140340
    860.4740000              0.0690970
    242.1450000              0.2374520
     77.3349000              0.4830340
     26.2470000              0.3398560
SP   6   1.00
    491.7650000             -0.0022974              0.0039894
    116.9840000             -0.0307140              0.0303180
     37.4153000             -0.1125280              0.1298800
     13.7834000              0.0450160              0.3279510
      5.4521500              0.5893530              0.4535270
      2.2258800              0.4652060              0.2521540
SP   3   1.00
      3.1864900             -0.2518300             -0.0142990
      1.1442700              0.0615890              0.3235720
      0.4203770              1.0601800              0.7435070
SP   1   1.00
      0.1426570              1.0000000              1.0000000
D    1   1.00
      1.5000000              1.0000000
D    1   1.00
      0.3750000              1.0000000
F    1   1.00
      0.7000000              1.0000000
****
}

set {
reference uhf
freeze_core true
e_convergence 10
d_convergence 10
dft_spherical_points 1202
dft_radial_points 99
}

e = energy('b3lyp')

print_out('Grab this energy {0}'.format(e))
--------------------------------------------------------------------------

    Molecular point group: cs

    Geometry (in Bohr), charge = 0, multiplicity = 2:

       Center              X                  Y                   Z               Mass
    ------------   -----------------  -----------------  -----------------  -----------------
         C           -0.323029674389    -0.000002320081     0.000000000000    12.000000000000
         C            0.061315044611    -1.399980850581    -2.424826874400    12.000000000000
         C            0.061195486611     2.799966522919     0.000000000000    12.000000000000
         C            0.061315044611    -1.399980850581     2.424826874400    12.000000000000
         H            2.082871094711    -1.644134984281    -2.847506122600     1.007825032230
         H           -0.765030675989    -0.386646846581    -4.027244229100     1.007825032230
         H           -0.765194687989    -3.294314244481    -2.348505302300     1.007825032230
         H            2.082732021411     3.288177150019     0.000000000000     1.007825032230
         H           -0.765272064789     3.680992606819     1.678745710100     1.007825032230
         H           -0.765272064789     3.680992606819    -1.678745710100     1.007825032230
         H            2.082871094711    -1.644134984281     2.847506122600     1.007825032230
         H           -0.765194687989    -3.294314244481     2.348505302300     1.007825032230
         H           -0.765030675989    -0.386646846581     4.027244229100     1.007825032230

  Charge       = 0
  Multiplicity = 2
  Basis Set: ANONYMOUS0456BB23
    Blend: 6-31G_2DFP_
  Basis Set: (ANONYMOUS0456BB23 AUX)
    Blend: DEF2-UNIVERSAL-JKFIT

    Orbital Energies [Eh]
    ---------------------

    Alpha Occupied:

       1Ap   -10.180232     2Ap   -10.167079     1App  -10.167079
       3Ap   -10.167034     4Ap    -0.798061     5Ap    -0.686203
       2App   -0.686203     6Ap    -0.530953     7Ap    -0.441229
       3App   -0.434697     8Ap    -0.434697     9Ap    -0.382597
       4App   -0.382596     5App   -0.363232     6App   -0.338105
      10Ap    -0.338105    11Ap    -0.168945

    Alpha Virtual:

      12Ap     0.075979    13Ap     0.134090     7App    0.134091
      14Ap     0.142428     8App    0.142429    15Ap     0.155151
      16Ap     0.178791     9App    0.178791    17Ap     0.203878
      10App    0.214405    11App    0.276251    18Ap     0.276253
      19Ap     0.399340    12App    0.399344    20Ap     0.403336
      13App    0.423855    21Ap     0.423855    22Ap     0.456852
      23Ap     0.495201    14App    0.495202    15App    0.512223
      24Ap     0.514075    25Ap     0.578937    16App    0.578946
      17App    0.591800    26Ap     0.591802    27Ap     0.603275
      28Ap     0.624143    18App    0.631160    19App    0.635932
      29Ap     0.635936    30Ap     0.664020    20App    0.664020
      31Ap     0.683590    21App    0.683591    32Ap     0.734800
      22App    0.825458    33Ap     0.825461    23App    0.854331
      24App    0.915203    34Ap     0.915209    25App    0.943885
      35Ap     0.944784    26App    0.961319    36Ap     0.961335
      37Ap     1.003470    38Ap     1.127932    27App    1.127945
      39Ap     1.143360    40Ap     1.162386    28App    1.162399
      41Ap     1.223335    42Ap     1.274857    29App    1.274860
      43Ap     1.279680    30App    1.324763    44Ap     1.324766
      45Ap     1.355792    31App    1.366249    46Ap     1.366254
      32App    1.392012    47Ap     1.404356    33App    1.404358
      34App    1.416128    48Ap     1.416135    35App    1.427860
      36App    1.492040    49Ap     1.499452    37App    1.543364
      50Ap     1.543366    51Ap     1.574172    38App    1.574174
      52Ap     1.667774    53Ap     1.740768    39App    1.740780
      54Ap     1.770145    40App    1.829574    55Ap     1.829574
      41App    1.971311    56Ap     2.018179    57Ap     2.019637
      42App    2.019642    43App    2.054487    58Ap     2.054488
      44App    2.738341    59Ap     2.738342    60Ap     2.791539
      45App    2.811058    61Ap     2.890434    46App    2.890440
      62Ap     2.895681    63Ap     2.929128    47App    2.929136
      48App    2.959083    64Ap     2.964767    49App    2.964781
      65Ap     3.034880    50App    3.071260    66Ap     3.071274
      51App    3.083360    67Ap     3.169004    52App    3.169012
      68Ap     3.181235    53App    3.285075    69Ap     3.285076
      70Ap     3.326776    54App    3.326781    71Ap     3.375344
      55App    3.490473    72Ap     3.490493    56App    3.515381
      73Ap     3.524480    57App    3.569025    74Ap     3.569045
      58App    3.575836    75Ap     3.665988    59App    3.665996
      76Ap     3.678477    60App    3.693814    77Ap     3.693830
      78Ap     3.776433    61App    3.776459    79Ap     3.789618
      80Ap     3.912768    62App    3.912775    81Ap     4.034540
      82Ap     4.111123    63App    4.111128    83Ap     4.148687
      64App    4.148695    84Ap     4.175584    65App    4.202901
      85Ap     4.202904    86Ap     4.203690    66App    4.212341
      87Ap     4.316295    67App    4.316316    68App    4.357131
      88Ap     4.424013    69App    4.424016    70App    4.441233
      71App    4.517845    89Ap     4.517846    72App    4.578309
      90Ap     4.578321    91Ap     4.617991    92Ap     4.711306
      93Ap     4.775271    73App    4.775278    74App    4.836851
      94Ap     4.961249    75App    5.003372    95Ap     5.003385
      96Ap     5.230267    76App    5.243533    97Ap     5.243533
      98Ap     5.357649    77App    5.357662    78App    5.478625

    Beta Occupied:

       1Ap   -10.167833     1App  -10.167833     2Ap   -10.167806
       3Ap   -10.166414     4Ap    -0.781364     5Ap    -0.683988
       2App   -0.683987     6Ap    -0.511922     3App   -0.431024
       7Ap    -0.431024     8Ap    -0.421943     9Ap    -0.376692
       4App   -0.376690     5App   -0.362203     6App   -0.333246
      10Ap    -0.333246

    Beta Virtual:

      11Ap    -0.025785    12Ap     0.076976    13Ap     0.134921
       7App    0.134922    14Ap     0.144323     8App    0.144324
      15Ap     0.163633    16Ap     0.182505     9App    0.182505
      10App    0.214643    17Ap     0.219213    11App    0.282575
      18Ap     0.282577    19Ap     0.400513    12App    0.400518
      20Ap     0.419696    13App    0.426667    21Ap     0.426668
      22Ap     0.468937    23Ap     0.497459    14App    0.497460
      15App    0.513960    24Ap     0.556428    25Ap     0.584457
      16App    0.584465    17App    0.597980    26Ap     0.597981
      27Ap     0.610552    28Ap     0.627700    18App    0.631320
      19App    0.639274    29Ap     0.639278    30Ap     0.667554
      20App    0.667555    31Ap     0.686248    21App    0.686250
      32Ap     0.757251    22App    0.830621    33Ap     0.830624
      23App    0.855688    24App    0.923153    34Ap     0.923159
      25App    0.945737    35Ap     0.953676    26App    0.966668
      36Ap     0.966684    37Ap     1.008740    38Ap     1.131917
      27App    1.131929    39Ap     1.156698    40Ap     1.167474
      28App    1.167486    41Ap     1.232266    42Ap     1.280509
      29App    1.280513    43Ap     1.285466    30App    1.329728
      44Ap     1.329730    45Ap     1.365239    31App    1.371361
      46Ap     1.371365    32App    1.393062    47Ap     1.407906
      33App    1.407909    34App    1.421217    48Ap     1.421224
      35App    1.428109    36App    1.493127    49Ap     1.509908
      50Ap     1.547763    37App    1.547764    38App    1.582044
      51Ap     1.582044    52Ap     1.672566    53Ap     1.746532
      39App    1.746543    54Ap     1.780977    40App    1.833453
      55Ap     1.833454    41App    1.972191    56Ap     2.026239
      42App    2.026244    57Ap     2.039567    43App    2.061042
      58Ap     2.061042    44App    2.746636    59Ap     2.746638
      45App    2.811466    60Ap     2.816678    61Ap     2.903108
      46App    2.903113    62Ap     2.925628    63Ap     2.931635
      47App    2.931644    48App    2.960145    64Ap     2.969378
      49App    2.969392    65Ap     3.042645    50App    3.081229
      66Ap     3.081240    51App    3.085184    67Ap     3.184651
      52App    3.184656    68Ap     3.188896    69Ap     3.289892
      53App    3.289892    70Ap     3.330611    54App    3.330616
      71Ap     3.383221    55App    3.493252    72Ap     3.493272
      56App    3.513743    73Ap     3.527503    57App    3.575707
      58App    3.582119    74Ap     3.582141    75Ap     3.670643
      59App    3.670654    76Ap     3.691796    60App    3.725563
      77Ap     3.725579    78Ap     3.781089    61App    3.781115
      79Ap     3.818084    80Ap     3.922488    62App    3.922496
      81Ap     4.045286    82Ap     4.118030    63App    4.118032
      83Ap     4.155850    64App    4.155859    84Ap     4.189670
      65App    4.208727    85Ap     4.208731    86Ap     4.211763
      66App    4.216707    87Ap     4.323702    67App    4.323723
      68App    4.360559    88Ap     4.432298    69App    4.432301
      70App    4.444164    71App    4.525662    89Ap     4.525663
      72App    4.588971    90Ap     4.588983    91Ap     4.625297
      92Ap     4.721536    93Ap     4.782272    73App    4.782279
      74App    4.839776    94Ap     4.966056    75App    5.007409
      95Ap     5.007422    96Ap     5.236034    76App    5.245341
      97Ap     5.245341    98Ap     5.364185    77App    5.364198
      78App    5.480967

    Final Occupation by Irrep:
             Ap   App
    DOCC [    10,    6 ]
    SOCC [     1,    0 ]

  @DF-UKS Final Energy:  -157.81307964420915

   => Energetics <=

    Nuclear Repulsion Energy =            125.4279664579380693
    One-Electron Energy =                -458.8146815786520847
    Two-Electron Energy =                 195.8807768149289359
    DFT Exchange-Correlation Energy =     -20.3071413384240707
    Empirical Dispersion Energy =           0.0000000000000000
    VV10 Nonlocal Energy =                  0.0000000000000000
    Total Energy =                       -157.8130796442091537

  UHF NO Occupations:
  HONO-2 :    9 Ap 1.9996016
  HONO-1 :   10 Ap 1.9989836
  HONO-0 :   11 Ap 1.0000000
  LUNO+0 :   12 Ap 0.0010164
  LUNO+1 :   13 Ap 0.0003984
  LUNO+2 :    7App 0.0001968
  LUNO+3 :   14 Ap 0.0001968

Computation Completed

Properties will be evaluated at   0.000000,   0.000000,   0.000000 [a0]

Properties computed using the SCF density matrix

  Nuclear Dipole Moment: [e a0]
     X:     0.8223      Y:    -0.0000      Z:     0.0000

  Electronic Dipole Moment: [e a0]
     X:    -0.7413      Y:     0.0000      Z:     0.0000

  Dipole Moment: [e a0]
     X:     0.0810      Y:     0.0000      Z:     0.0000     Total:     0.0810

  Dipole Moment: [D]
     X:     0.2058      Y:     0.0000      Z:     0.0000     Total:     0.2058

*** tstop() called on n066 at Fri Nov  5 13:22:36 2021
Module time:
	user time   =     541.49 seconds =       9.02 minutes
	system time =      11.84 seconds =       0.20 minutes
	total time  =        139 seconds =       2.32 minutes
Total time:
	user time   =     541.49 seconds =       9.02 minutes
	system time =      11.84 seconds =       0.20 minutes
	total time  =        139 seconds =       2.32 minutes
Grab this energy -157.81307964420915
    Psi4 stopped on: Friday, 05 November 2021 01:22PM
    Psi4 wall time for execution: 0:02:19.16

*** Psi4 exiting successfully. Buy a developer a beer!
