                               Psi4 1.4a2.dev629

  ==> Input File <==

--------------------------------------------------------------------------
import os
memory 14 GB

molecule {
 C   -0.3219029018   -0.0000020879   -0.0000000000
 C    0.0601015180   -1.4001045506   -2.4250413471
 C    0.0599818843    2.8002143790   -0.0000000000
 C    0.0601015180   -1.4001045506    2.4250413471
 H    2.0869346615   -1.6443264581   -2.8478372947
 H   -0.7651243704   -0.3885072160   -4.0258768715
 H   -0.7652876562   -3.2921989981   -2.3494330282
 H    2.0867957751    3.2885601578    0.0000000000
 H   -0.7653654701    3.6807388415    1.6764502897
 H   -0.7653654701    3.6807388415   -1.6764502897
 H    2.0869346615   -1.6443264581    2.8478372947
 H   -0.7652876562   -3.2921989981    2.3494330282
 H   -0.7651243704   -0.3885072160    4.0258768715
units bohr
0 2
}

basis {

assign 6-31g_2dfp_

[ 6-31g_2dfp_ ]

spherical

!----------------------------------------------------------------------
! Basis Set Exchange
! Version v0.8.13
! https://www.basissetexchange.org
!----------------------------------------------------------------------
!   Basis set: 6-31G(2df,p)
! Description: 6-31G(2df,p)
!        Role: orbital
!     Version: 0  (Data from the original Basis Set Exchange)
!----------------------------------------------------------------------

****
H     0
S    3   1.00
     18.7311370              0.03349460
      2.8253937              0.23472695
      0.6401217              0.81375733
S    1   1.00
      0.1612778              1.00000000
P    1   1.00
      1.5000000              1.0000000
P    1   1.00
      0.3750000              1.0000000
****
B     0
S    6   1.00
   2068.8823000              0.0018663
    310.6495700              0.0142515
     70.6830330              0.0695516
     19.8610800              0.2325729
      6.2993048              0.4670787
      2.1270270              0.3634314
SP   3   1.00
      4.7279710             -0.1303938              0.0745976
      1.1903377             -0.1307889              0.3078467
      0.3594117              1.1309444              0.7434568
SP   1   1.00
      0.1267512              1.0000000              1.0000000
D    1   1.00
      0.8020000              1.0000000
D    1   1.00
      0.2005000              1.0000000
F    1   1.00
      0.5000000              1.0000000
****
C     0
S    6   1.00
   3047.5249000              0.0018347
    457.3695100              0.0140373
    103.9486900              0.0688426
     29.2101550              0.2321844
      9.2866630              0.4679413
      3.1639270              0.3623120
SP   3   1.00
      7.8682724             -0.1193324              0.0689991
      1.8812885             -0.1608542              0.3164240
      0.5442493              1.1434564              0.7443083
SP   1   1.00
      0.1687144              1.0000000              1.0000000
D    1   1.00
      1.2520000              1.0000000
D    1   1.00
      0.3130000              1.0000000
F    1   1.00
      0.8000000              1.0000000
****
N     0
S    6   1.00
   4173.5110000              0.0018348
    627.4579000              0.0139950
    142.9021000              0.0685870
     40.2343300              0.2322410
     12.8202100              0.4690700
      4.3904370              0.3604550
SP   3   1.00
     11.6263580             -0.1149610              0.0675800
      2.7162800             -0.1691180              0.3239070
      0.7722180              1.1458520              0.7408950
SP   1   1.00
      0.2120313              1.0000000              1.0000000
D    1   1.00
      1.8260000              1.0000000
D    1   1.00
      0.4565000              1.0000000
F    1   1.00
      1.0000000              1.0000000
****
O     0
S    6   1.00
   5484.6717000              0.0018311
    825.2349500              0.0139501
    188.0469600              0.0684451
     52.9645000              0.2327143
     16.8975700              0.4701930
      5.7996353              0.3585209
SP   3   1.00
     15.5396160             -0.1107775              0.0708743
      3.5999336             -0.1480263              0.3397528
      1.0137618              1.1307670              0.7271586
SP   1   1.00
      0.2700058              1.0000000              1.0000000
D    1   1.00
      2.5840000              1.0000000
D    1   1.00
      0.6460000              1.0000000
F    1   1.00
      1.4000000              1.0000000
****
F     0
S    6   1.00
   7001.7130900              0.0018196169
   1051.3660900              0.0139160796
    239.2856900              0.0684053245
     67.3974453              0.233185760
     21.5199573              0.471267439
      7.40310130             0.356618546
SP   3   1.00
     20.8479528             -0.108506975            0.0716287243
      4.80830834            -0.146451658            0.3459121030
      1.34406986             1.128688580            0.7224699570
SP   1   1.00
      0.358151393            1.0000000              1.0000000
D    1   1.00
      3.5000000              1.0000000
D    1   1.00
      0.8750000              1.0000000
F    1   1.00
      1.8500000              1.0000000
****
Al     0
S    6   1.00
  13983.1000000              0.00194267
   2098.7500000              0.0148599
    477.7050000              0.0728494
    134.3600000              0.2468300
     42.8709000              0.4872580
     14.5189000              0.3234960
SP   6   1.00
    239.6680000             -0.00292619             0.00460285
     57.4419000             -0.0374080              0.0331990
     18.2859000             -0.1144870              0.1362820
      6.5991400              0.1156350              0.3304760
      2.4904900              0.6125950              0.4491460
      0.9445400              0.3937990              0.2657040
SP   3   1.00
      1.2779000             -0.2276060             -0.0175130
      0.3975900              0.00144583             0.2445330
      0.1600950              1.0927900              0.8049340
SP   1   1.00
      0.0556577              1.0000000              1.0000000
D    1   1.00
      0.6500000              1.0000000
D    1   1.00
      0.1625000              1.0000000
F    1   1.00
      0.2500000              1.0000000
****
Si     0
S    6   1.00
  16115.9000000              0.00195948
   2425.5800000              0.01492880
    553.8670000              0.07284780
    156.3400000              0.24613000
     50.0683000              0.48591400
     17.0178000              0.32500200
SP   6   1.00
    292.7180000             -0.00278094             0.00443826
     69.8731000             -0.03571460             0.03266790
     22.3363000             -0.11498500             0.13472100
      8.1503900              0.09356340             0.32867800
      3.1345800              0.60301700             0.44964000
      1.2254300              0.41895900             0.26137200
SP   3   1.00
      1.7273800             -0.24463000            -0.01779510
      0.5729220              0.00431572             0.25353900
      0.2221920              1.09818000             0.80066900
SP   1   1.00
      0.0778369              1.00000000             1.00000000
D    1   1.00
      0.9000000              1.0000000
D    1   1.00
      0.2250000              1.0000000
F    1   1.00
      0.3200000              1.0000000
****
P     0
S    6   1.00
  19413.3000000              0.0018516
   2909.4200000              0.0142062
    661.3640000              0.0699995
    185.7590000              0.2400790
     59.1943000              0.4847620
     20.0310000              0.3352000
SP   6   1.00
    339.4780000             -0.00278217             0.00456462
     81.0101000             -0.0360499              0.03369360
     25.8780000             -0.1166310              0.13975500
      9.4522100              0.0968328              0.33936200
      3.6656600              0.6144180              0.45092100
      1.4674600              0.4037980              0.23858600
SP   3   1.00
      2.1562300             -0.2529230             -0.01776530
      0.7489970              0.0328517              0.27405800
      0.2831450              1.0812500              0.78542100
SP   1   1.00
      0.0998317              1.0000000              1.00000000
D    1   1.00
      1.1000000              1.0000000
D    1   1.00
      0.2750000              1.0000000
F    1   1.00
      0.4500000              1.0000000
****
S     0
S    6   1.00
  21917.1000000              0.0018690
   3301.4900000              0.0142300
    754.1460000              0.0696960
    212.7110000              0.2384870
     67.9896000              0.4833070
     23.0515000              0.3380740
SP   6   1.00
    423.7350000             -0.0023767              0.0040610
    100.7100000             -0.0316930              0.0306810
     32.1599000             -0.1133170              0.1304520
     11.8079000              0.0560900              0.3272050
      4.6311000              0.5922550              0.4528510
      1.8702500              0.4550060              0.2560420
SP   3   1.00
      2.6158400             -0.2503740             -0.0145110
      0.9221670              0.0669570              0.3102630
      0.3412870              1.0545100              0.7544830
SP   1   1.00
      0.1171670              1.0000000              1.0000000
D    1   1.00
      1.3000000              1.0000000
D    1   1.00
      0.3250000              1.0000000
F    1   1.00
      0.5500000              1.0000000
****
Cl     0
S    6   1.00
  25180.1000000              0.0018330
   3780.3500000              0.0140340
    860.4740000              0.0690970
    242.1450000              0.2374520
     77.3349000              0.4830340
     26.2470000              0.3398560
SP   6   1.00
    491.7650000             -0.0022974              0.0039894
    116.9840000             -0.0307140              0.0303180
     37.4153000             -0.1125280              0.1298800
     13.7834000              0.0450160              0.3279510
      5.4521500              0.5893530              0.4535270
      2.2258800              0.4652060              0.2521540
SP   3   1.00
      3.1864900             -0.2518300             -0.0142990
      1.1442700              0.0615890              0.3235720
      0.4203770              1.0601800              0.7435070
SP   1   1.00
      0.1426570              1.0000000              1.0000000
D    1   1.00
      1.5000000              1.0000000
D    1   1.00
      0.3750000              1.0000000
F    1   1.00
      0.7000000              1.0000000
****
}

set {
reference uhf
freeze_core true
e_convergence 10
d_convergence 10
dft_spherical_points 1202
dft_radial_points 99
}

e = energy('b3lyp')

print_out('Grab this energy {0}'.format(e))
--------------------------------------------------------------------------

    Molecular point group: cs

    Geometry (in Bohr), charge = 0, multiplicity = 2:

       Center              X                  Y                   Z               Mass
    ------------   -----------------  -----------------  -----------------  -----------------
         C           -0.321579707556    -0.000002272934     0.000000000000    12.000000000000
         C            0.060424712244    -1.400104735634    -2.425041347100    12.000000000000
         C            0.060305078544     2.800214193966     0.000000000000    12.000000000000
         C            0.060424712244    -1.400104735634     2.425041347100    12.000000000000
         H            2.087257855744    -1.644326643134    -2.847837294700     1.007825032230
         H           -0.764801176156    -0.388507401034    -4.025876871500     1.007825032230
         H           -0.764964461956    -3.292199183134    -2.349433028200     1.007825032230
         H            2.087118969344     3.288559972766     0.000000000000     1.007825032230
         H           -0.765042275856     3.680738656466     1.676450289700     1.007825032230
         H           -0.765042275856     3.680738656466    -1.676450289700     1.007825032230
         H            2.087257855744    -1.644326643134     2.847837294700     1.007825032230
         H           -0.764964461956    -3.292199183134     2.349433028200     1.007825032230
         H           -0.764801176156    -0.388507401034     4.025876871500     1.007825032230

  Charge       = 0
  Multiplicity = 2
  Basis Set: ANONYMOUS116757AD
    Blend: 6-31G_2DFP_
  Basis Set: (ANONYMOUS116757AD AUX)
    Blend: DEF2-UNIVERSAL-JKFIT

    Orbital Energies [Eh]
    ---------------------

    Alpha Occupied:

       1Ap   -10.180225     2Ap   -10.167091     1App  -10.167091
       3Ap   -10.167045     4Ap    -0.798038     5Ap    -0.686214
       2App   -0.686213     6Ap    -0.530936     7Ap    -0.441077
       3App   -0.434803     8Ap    -0.434802     9Ap    -0.382355
       4App   -0.382353     5App   -0.363536     6App   -0.338251
      10Ap    -0.338250    11Ap    -0.168799

    Alpha Virtual:

      12Ap     0.076061    13Ap     0.134101     7App    0.134102
      14Ap     0.142518     8App    0.142519    15Ap     0.154905
      16Ap     0.178544     9App    0.178544    17Ap     0.203811
      10App    0.214726    11App    0.276398    18Ap     0.276400
      19Ap     0.399241    12App    0.399246    20Ap     0.403333
      13App    0.424071    21Ap     0.424072    22Ap     0.456680
      23Ap     0.495404    14App    0.495405    15App    0.512060
      24Ap     0.514020    25Ap     0.578641    16App    0.578650
      17App    0.591507    26Ap     0.591508    27Ap     0.602309
      28Ap     0.624724    18App    0.631606    19App    0.636460
      29Ap     0.636463    30Ap     0.663368    20App    0.663369
      31Ap     0.683946    21App    0.683948    32Ap     0.735058
      22App    0.825482    33Ap     0.825485    23App    0.854050
      24App    0.915045    34Ap     0.915051    25App    0.944125
      35Ap     0.944877    26App    0.961200    36Ap     0.961217
      37Ap     1.003284    38Ap     1.128087    27App    1.128100
      39Ap     1.142620    40Ap     1.162223    28App    1.162236
      41Ap     1.223916    42Ap     1.274682    29App    1.274685
      43Ap     1.279277    30App    1.324807    44Ap     1.324809
      45Ap     1.356092    31App    1.366569    46Ap     1.366573
      32App    1.391954    47Ap     1.403284    33App    1.403286
      34App    1.416854    48Ap     1.416861    35App    1.427610
      36App    1.492199    49Ap     1.498103    37App    1.542935
      50Ap     1.542938    51Ap     1.574830    38App    1.574832
      52Ap     1.669308    53Ap     1.740152    39App    1.740163
      54Ap     1.768238    40App    1.831357    55Ap     1.831358
      41App    1.972590    56Ap     2.019090    57Ap     2.019488
      42App    2.019492    58Ap     2.052685    43App    2.052685
      44App    2.738855    59Ap     2.738856    60Ap     2.790945
      45App    2.811546    61Ap     2.890309    46App    2.890315
      62Ap     2.895037    63Ap     2.929311    47App    2.929320
      48App    2.959013    64Ap     2.964449    49App    2.964463
      65Ap     3.033830    50App    3.072070    66Ap     3.072084
      51App    3.084828    67Ap     3.168761    52App    3.168769
      68Ap     3.181214    53App    3.284183    69Ap     3.284183
      70Ap     3.327047    54App    3.327053    71Ap     3.375349
      55App    3.490466    72Ap     3.490486    56App    3.514343
      73Ap     3.525206    57App    3.568915    74Ap     3.568935
      58App    3.574384    75Ap     3.666168    59App    3.666176
      76Ap     3.679311    60App    3.693945    77Ap     3.693962
      78Ap     3.777133    61App    3.777160    79Ap     3.790089
      80Ap     3.913346    62App    3.913353    81Ap     4.035327
      82Ap     4.111329    63App    4.111333    83Ap     4.148153
      64App    4.148161    84Ap     4.173969    65App    4.203470
      85Ap     4.203473    86Ap     4.203883    66App    4.211146
      87Ap     4.315627    67App    4.315647    68App    4.357856
      88Ap     4.423448    69App    4.423451    70App    4.441725
      71App    4.516873    89Ap     4.516873    72App    4.578869
      90Ap     4.578882    91Ap     4.618402    92Ap     4.710413
      93Ap     4.775532    73App    4.775540    74App    4.839417
      94Ap     4.961456    75App    5.001920    95Ap     5.001932
      96Ap     5.227624    76App    5.246636    97Ap     5.246636
      98Ap     5.355935    77App    5.355948    78App    5.480935

    Beta Occupied:

       1Ap   -10.167848     1App  -10.167848     2Ap   -10.167821
       3Ap   -10.166417     4Ap    -0.781344     5Ap    -0.684013
       2App   -0.684012     6Ap    -0.511962     3App   -0.431164
       7Ap    -0.431164     8Ap    -0.421701     9Ap    -0.376414
       4App   -0.376412     5App   -0.362517     6App   -0.333385
      10Ap    -0.333384

    Beta Virtual:

      11Ap    -0.025812    12Ap     0.077079    13Ap     0.135010
       7App    0.135011    14Ap     0.144388     8App    0.144388
      15Ap     0.163418    16Ap     0.182229     9App    0.182230
      10App    0.214958    17Ap     0.219166    11App    0.282714
      18Ap     0.282716    19Ap     0.400418    12App    0.400422
      20Ap     0.419814    13App    0.426881    21Ap     0.426882
      22Ap     0.468652    23Ap     0.497668    14App    0.497669
      15App    0.513808    24Ap     0.556334    25Ap     0.584204
      16App    0.584213    17App    0.597671    26Ap     0.597672
      27Ap     0.609754    28Ap     0.628112    18App    0.631764
      19App    0.639757    29Ap     0.639761    30Ap     0.666931
      20App    0.666932    31Ap     0.686598    21App    0.686599
      32Ap     0.757484    22App    0.830662    33Ap     0.830665
      23App    0.855420    24App    0.923003    34Ap     0.923010
      25App    0.945972    35Ap     0.953825    26App    0.966548
      36Ap     0.966564    37Ap     1.008495    38Ap     1.132101
      27App    1.132113    39Ap     1.156069    40Ap     1.167288
      28App    1.167301    41Ap     1.232834    42Ap     1.280295
      29App    1.280299    43Ap     1.284998    30App    1.329810
      44Ap     1.329812    45Ap     1.365544    31App    1.371753
      46Ap     1.371758    32App    1.393026    47Ap     1.406786
      33App    1.406789    34App    1.421926    48Ap     1.421933
      35App    1.427861    36App    1.493262    49Ap     1.508562
      50Ap     1.547367    37App    1.547368    38App    1.582684
      51Ap     1.582684    52Ap     1.674134    53Ap     1.745912
      39App    1.745924    54Ap     1.779080    40App    1.835246
      55Ap     1.835247    41App    1.973457    56Ap     2.025957
      42App    2.025961    57Ap     2.040464    58Ap     2.059339
      43App    2.059340    44App    2.747159    59Ap     2.747161
      45App    2.811948    60Ap     2.816066    61Ap     2.902913
      46App    2.902918    62Ap     2.924802    63Ap     2.931833
      47App    2.931842    48App    2.960073    64Ap     2.969014
      49App    2.969028    65Ap     3.041847    50App    3.081986
      66Ap     3.081998    51App    3.086656    67Ap     3.184524
      52App    3.184529    68Ap     3.188812    69Ap     3.289069
      53App    3.289069    70Ap     3.330838    54App    3.330844
      71Ap     3.383190    55App    3.493187    72Ap     3.493207
      56App    3.512700    73Ap     3.528206    57App    3.574247
      58App    3.582139    74Ap     3.582161    75Ap     3.670754
      59App    3.670764    76Ap     3.692609    60App    3.725684
      77Ap     3.725700    78Ap     3.781680    61App    3.781706
      79Ap     3.818591    80Ap     3.923161    62App    3.923169
      81Ap     4.046106    82Ap     4.118257    63App    4.118259
      83Ap     4.155293    64App    4.155302    84Ap     4.188124
      65App    4.209406    85Ap     4.209409    86Ap     4.211879
      66App    4.215658    87Ap     4.322955    67App    4.322975
      68App    4.361239    88Ap     4.431772    69App    4.431775
      70App    4.444603    71App    4.524744    89Ap     4.524745
      72App    4.589456    90Ap     4.589468    91Ap     4.625623
      92Ap     4.720735    93Ap     4.782469    73App    4.782477
      74App    4.842320    94Ap     4.966276    75App    5.005995
      95Ap     5.006008    96Ap     5.233355    76App    5.248430
      97Ap     5.248430    98Ap     5.362436    77App    5.362449
      78App    5.483258

    Final Occupation by Irrep:
             Ap   App
    DOCC [    10,    6 ]
    SOCC [     1,    0 ]

  @DF-UKS Final Energy:  -157.81310179998158

   => Energetics <=

    Nuclear Repulsion Energy =            125.4249779699204908
    One-Electron Energy =                -458.8085568367768019
    Two-Electron Energy =                 195.8775719391582868
    DFT Exchange-Correlation Energy =     -20.3070948722835745
    Empirical Dispersion Energy =           0.0000000000000000
    VV10 Nonlocal Energy =                  0.0000000000000000
    Total Energy =                       -157.8131017999815811

  UHF NO Occupations:
  HONO-2 :    9 Ap 1.9995978
  HONO-1 :   10 Ap 1.9989812
  HONO-0 :   11 Ap 1.0000000
  LUNO+0 :   12 Ap 0.0010188
  LUNO+1 :   13 Ap 0.0004022
  LUNO+2 :    7App 0.0001967
  LUNO+3 :   14 Ap 0.0001967

Computation Completed

Properties will be evaluated at   0.000000,   0.000000,   0.000000 [a0]

Properties computed using the SCF density matrix

  Nuclear Dipole Moment: [e a0]
     X:     0.8295      Y:    -0.0000      Z:     0.0000

  Electronic Dipole Moment: [e a0]
     X:    -0.7525      Y:     0.0000      Z:     0.0000

  Dipole Moment: [e a0]
     X:     0.0770      Y:     0.0000      Z:     0.0000     Total:     0.0770

  Dipole Moment: [D]
     X:     0.1957      Y:     0.0000      Z:     0.0000     Total:     0.1957

*** tstop() called on n080 at Fri Nov  5 11:31:24 2021
Module time:
	user time   =     499.19 seconds =       8.32 minutes
	system time =       4.57 seconds =       0.08 minutes
	total time  =        127 seconds =       2.12 minutes
Total time:
	user time   =     499.19 seconds =       8.32 minutes
	system time =       4.57 seconds =       0.08 minutes
	total time  =        127 seconds =       2.12 minutes
Grab this energy -157.81310179998158
    Psi4 stopped on: Friday, 05 November 2021 11:31AM
    Psi4 wall time for execution: 0:02:06.70

*** Psi4 exiting successfully. Buy a developer a beer!
