                               Psi4 1.4a2.dev629

  ==> Input File <==

--------------------------------------------------------------------------
import os
memory 14 GB

molecule {
 C   -0.3233380339   -0.0053452220    0.0000017717
 C    0.0610667939   -1.4016829476   -2.4259464941
 C    0.0611684824    2.8017041638    0.0000484330
 C    0.0610654520   -1.4017634645    2.4258983807
 H    2.0870496179   -1.6391625612   -2.8499337265
 H   -0.7686645244   -0.3895130435   -4.0253768219
 H   -0.7622502602   -3.2926557535   -2.3470116713
 H    2.0865559505    3.2887077532    0.0046520495
 H   -0.7697057757    3.6813133636    1.6741134702
 H   -0.7616923409    3.6808562977   -1.6780968200
 H    2.0870510181   -1.6472340471    2.8452888618
 H   -0.7702748220   -3.2894196813    2.3493930121
 H   -0.7606394345   -0.3858291711    4.0269695548
units bohr
0 2
}

basis {

assign 6-31g_2dfp_

[ 6-31g_2dfp_ ]

spherical

!----------------------------------------------------------------------
! Basis Set Exchange
! Version v0.8.13
! https://www.basissetexchange.org
!----------------------------------------------------------------------
!   Basis set: 6-31G(2df,p)
! Description: 6-31G(2df,p)
!        Role: orbital
!     Version: 0  (Data from the original Basis Set Exchange)
!----------------------------------------------------------------------

****
H     0
S    3   1.00
     18.7311370              0.03349460
      2.8253937              0.23472695
      0.6401217              0.81375733
S    1   1.00
      0.1612778              1.00000000
P    1   1.00
      1.5000000              1.0000000
P    1   1.00
      0.3750000              1.0000000
****
B     0
S    6   1.00
   2068.8823000              0.0018663
    310.6495700              0.0142515
     70.6830330              0.0695516
     19.8610800              0.2325729
      6.2993048              0.4670787
      2.1270270              0.3634314
SP   3   1.00
      4.7279710             -0.1303938              0.0745976
      1.1903377             -0.1307889              0.3078467
      0.3594117              1.1309444              0.7434568
SP   1   1.00
      0.1267512              1.0000000              1.0000000
D    1   1.00
      0.8020000              1.0000000
D    1   1.00
      0.2005000              1.0000000
F    1   1.00
      0.5000000              1.0000000
****
C     0
S    6   1.00
   3047.5249000              0.0018347
    457.3695100              0.0140373
    103.9486900              0.0688426
     29.2101550              0.2321844
      9.2866630              0.4679413
      3.1639270              0.3623120
SP   3   1.00
      7.8682724             -0.1193324              0.0689991
      1.8812885             -0.1608542              0.3164240
      0.5442493              1.1434564              0.7443083
SP   1   1.00
      0.1687144              1.0000000              1.0000000
D    1   1.00
      1.2520000              1.0000000
D    1   1.00
      0.3130000              1.0000000
F    1   1.00
      0.8000000              1.0000000
****
N     0
S    6   1.00
   4173.5110000              0.0018348
    627.4579000              0.0139950
    142.9021000              0.0685870
     40.2343300              0.2322410
     12.8202100              0.4690700
      4.3904370              0.3604550
SP   3   1.00
     11.6263580             -0.1149610              0.0675800
      2.7162800             -0.1691180              0.3239070
      0.7722180              1.1458520              0.7408950
SP   1   1.00
      0.2120313              1.0000000              1.0000000
D    1   1.00
      1.8260000              1.0000000
D    1   1.00
      0.4565000              1.0000000
F    1   1.00
      1.0000000              1.0000000
****
O     0
S    6   1.00
   5484.6717000              0.0018311
    825.2349500              0.0139501
    188.0469600              0.0684451
     52.9645000              0.2327143
     16.8975700              0.4701930
      5.7996353              0.3585209
SP   3   1.00
     15.5396160             -0.1107775              0.0708743
      3.5999336             -0.1480263              0.3397528
      1.0137618              1.1307670              0.7271586
SP   1   1.00
      0.2700058              1.0000000              1.0000000
D    1   1.00
      2.5840000              1.0000000
D    1   1.00
      0.6460000              1.0000000
F    1   1.00
      1.4000000              1.0000000
****
F     0
S    6   1.00
   7001.7130900              0.0018196169
   1051.3660900              0.0139160796
    239.2856900              0.0684053245
     67.3974453              0.233185760
     21.5199573              0.471267439
      7.40310130             0.356618546
SP   3   1.00
     20.8479528             -0.108506975            0.0716287243
      4.80830834            -0.146451658            0.3459121030
      1.34406986             1.128688580            0.7224699570
SP   1   1.00
      0.358151393            1.0000000              1.0000000
D    1   1.00
      3.5000000              1.0000000
D    1   1.00
      0.8750000              1.0000000
F    1   1.00
      1.8500000              1.0000000
****
Al     0
S    6   1.00
  13983.1000000              0.00194267
   2098.7500000              0.0148599
    477.7050000              0.0728494
    134.3600000              0.2468300
     42.8709000              0.4872580
     14.5189000              0.3234960
SP   6   1.00
    239.6680000             -0.00292619             0.00460285
     57.4419000             -0.0374080              0.0331990
     18.2859000             -0.1144870              0.1362820
      6.5991400              0.1156350              0.3304760
      2.4904900              0.6125950              0.4491460
      0.9445400              0.3937990              0.2657040
SP   3   1.00
      1.2779000             -0.2276060             -0.0175130
      0.3975900              0.00144583             0.2445330
      0.1600950              1.0927900              0.8049340
SP   1   1.00
      0.0556577              1.0000000              1.0000000
D    1   1.00
      0.6500000              1.0000000
D    1   1.00
      0.1625000              1.0000000
F    1   1.00
      0.2500000              1.0000000
****
Si     0
S    6   1.00
  16115.9000000              0.00195948
   2425.5800000              0.01492880
    553.8670000              0.07284780
    156.3400000              0.24613000
     50.0683000              0.48591400
     17.0178000              0.32500200
SP   6   1.00
    292.7180000             -0.00278094             0.00443826
     69.8731000             -0.03571460             0.03266790
     22.3363000             -0.11498500             0.13472100
      8.1503900              0.09356340             0.32867800
      3.1345800              0.60301700             0.44964000
      1.2254300              0.41895900             0.26137200
SP   3   1.00
      1.7273800             -0.24463000            -0.01779510
      0.5729220              0.00431572             0.25353900
      0.2221920              1.09818000             0.80066900
SP   1   1.00
      0.0778369              1.00000000             1.00000000
D    1   1.00
      0.9000000              1.0000000
D    1   1.00
      0.2250000              1.0000000
F    1   1.00
      0.3200000              1.0000000
****
P     0
S    6   1.00
  19413.3000000              0.0018516
   2909.4200000              0.0142062
    661.3640000              0.0699995
    185.7590000              0.2400790
     59.1943000              0.4847620
     20.0310000              0.3352000
SP   6   1.00
    339.4780000             -0.00278217             0.00456462
     81.0101000             -0.0360499              0.03369360
     25.8780000             -0.1166310              0.13975500
      9.4522100              0.0968328              0.33936200
      3.6656600              0.6144180              0.45092100
      1.4674600              0.4037980              0.23858600
SP   3   1.00
      2.1562300             -0.2529230             -0.01776530
      0.7489970              0.0328517              0.27405800
      0.2831450              1.0812500              0.78542100
SP   1   1.00
      0.0998317              1.0000000              1.00000000
D    1   1.00
      1.1000000              1.0000000
D    1   1.00
      0.2750000              1.0000000
F    1   1.00
      0.4500000              1.0000000
****
S     0
S    6   1.00
  21917.1000000              0.0018690
   3301.4900000              0.0142300
    754.1460000              0.0696960
    212.7110000              0.2384870
     67.9896000              0.4833070
     23.0515000              0.3380740
SP   6   1.00
    423.7350000             -0.0023767              0.0040610
    100.7100000             -0.0316930              0.0306810
     32.1599000             -0.1133170              0.1304520
     11.8079000              0.0560900              0.3272050
      4.6311000              0.5922550              0.4528510
      1.8702500              0.4550060              0.2560420
SP   3   1.00
      2.6158400             -0.2503740             -0.0145110
      0.9221670              0.0669570              0.3102630
      0.3412870              1.0545100              0.7544830
SP   1   1.00
      0.1171670              1.0000000              1.0000000
D    1   1.00
      1.3000000              1.0000000
D    1   1.00
      0.3250000              1.0000000
F    1   1.00
      0.5500000              1.0000000
****
Cl     0
S    6   1.00
  25180.1000000              0.0018330
   3780.3500000              0.0140340
    860.4740000              0.0690970
    242.1450000              0.2374520
     77.3349000              0.4830340
     26.2470000              0.3398560
SP   6   1.00
    491.7650000             -0.0022974              0.0039894
    116.9840000             -0.0307140              0.0303180
     37.4153000             -0.1125280              0.1298800
     13.7834000              0.0450160              0.3279510
      5.4521500              0.5893530              0.4535270
      2.2258800              0.4652060              0.2521540
SP   3   1.00
      3.1864900             -0.2518300             -0.0142990
      1.1442700              0.0615890              0.3235720
      0.4203770              1.0601800              0.7435070
SP   1   1.00
      0.1426570              1.0000000              1.0000000
D    1   1.00
      1.5000000              1.0000000
D    1   1.00
      0.3750000              1.0000000
F    1   1.00
      0.7000000              1.0000000
****
}

set {
reference uhf
freeze_core true
e_convergence 10
d_convergence 10
dft_spherical_points 1202
dft_radial_points 99
}

e = energy('b3lyp')

print_out('Grab this energy {0}'.format(e))
--------------------------------------------------------------------------

    Molecular point group: c1

    Geometry (in Bohr), charge = 0, multiplicity = 2:

       Center              X                  Y                   Z               Mass
    ------------   -----------------  -----------------  -----------------  -----------------
         C           -0.323338549940    -0.003979694812     0.000001368901    12.000000000000
         C            0.061066277860    -1.400317420412    -2.425946896899    12.000000000000
         C            0.061167966360     2.803069690988     0.000048030201    12.000000000000
         C            0.061064935960    -1.400397937312     2.425897977901    12.000000000000
         H            2.087049101860    -1.637797034012    -2.849934129299     1.007825032230
         H           -0.768665040440    -0.388147516312    -4.025377224699     1.007825032230
         H           -0.762250776240    -3.291290226312    -2.347012074099     1.007825032230
         H            2.086555434460     3.290073280388     0.004651646701     1.007825032230
         H           -0.769706291740     3.682678890788     1.674113067401     1.007825032230
         H           -0.761692856940     3.682221824888    -1.678097222799     1.007825032230
         H            2.087050502060    -1.645868519912     2.845288459001     1.007825032230
         H           -0.770275338040    -3.288054154112     2.349392609301     1.007825032230
         H           -0.760639950540    -0.384463643912     4.026969152001     1.007825032230

  Charge       = 0
  Multiplicity = 2
  Basis Set: ANONYMOUS087FED83
    Blend: 6-31G_2DFP_
  Basis Set: (ANONYMOUS087FED83 AUX)
    Blend: DEF2-UNIVERSAL-JKFIT

    Orbital Energies [Eh]
    ---------------------

    Alpha Occupied:

       1A    -10.180341     2A    -10.167055     3A    -10.167013
       4A    -10.166976     5A     -0.797769     6A     -0.686376
       7A     -0.685997     8A     -0.530775     9A     -0.441131
      10A     -0.434879    11A     -0.434458    12A     -0.382718
      13A     -0.382484    14A     -0.363609    15A     -0.338518
      16A     -0.337478    17A     -0.168960

    Alpha Virtual:

      18A      0.076072    19A      0.134142    20A      0.134170
      21A      0.142451    22A      0.142803    23A      0.154880
      24A      0.178771    25A      0.178784    26A      0.203543
      27A      0.214802    28A      0.275698    29A      0.276272
      30A      0.399103    31A      0.399355    32A      0.403345
      33A      0.424097    34A      0.424098    35A      0.456593
      36A      0.495340    37A      0.495438    38A      0.512147
      39A      0.513991    40A      0.578616    41A      0.579013
      42A      0.591638    43A      0.591647    44A      0.602572
      45A      0.624751    46A      0.631777    47A      0.636110
      48A      0.636397    49A      0.663345    50A      0.663480
      51A      0.683803    52A      0.683900    53A      0.734994
      54A      0.825301    55A      0.825515    56A      0.853914
      57A      0.914908    58A      0.915131    59A      0.944013
      60A      0.944723    61A      0.961130    62A      0.961464
      63A      1.003465    64A      1.127817    65A      1.128364
      66A      1.142266    67A      1.162873    68A      1.163662
      69A      1.223328    70A      1.274022    71A      1.274954
      72A      1.279348    73A      1.324262    74A      1.324453
      75A      1.355979    76A      1.365791    77A      1.366316
      78A      1.392457    79A      1.403998    80A      1.404097
      81A      1.416798    82A      1.417433    83A      1.427921
      84A      1.491463    85A      1.499103    86A      1.542826
      87A      1.542836    88A      1.574425    89A      1.574463
      90A      1.669823    91A      1.739221    92A      1.739624
      93A      1.768313    94A      1.831134    95A      1.831649
      96A      1.971728    97A      2.018299    98A      2.018473
      99A      2.019624   100A      2.052116   101A      2.053173
     102A      2.738249   103A      2.738725   104A      2.790918
     105A      2.811424   106A      2.889389   107A      2.890513
     108A      2.894940   109A      2.929102   110A      2.929891
     111A      2.958989   112A      2.964235   113A      2.964522
     114A      3.034000   115A      3.070794   116A      3.071785
     117A      3.084349   118A      3.168723   119A      3.168787
     120A      3.180655   121A      3.285014   122A      3.285609
     123A      3.326778   124A      3.327535   125A      3.375608
     126A      3.489640   127A      3.490660   128A      3.514008
     129A      3.525343   130A      3.568151   131A      3.568628
     132A      3.575153   133A      3.666082   134A      3.666686
     135A      3.679660   136A      3.694097   137A      3.694129
     138A      3.776025   139A      3.777555   140A      3.789168
     141A      3.911762   142A      3.912685   143A      4.034439
     144A      4.111046   145A      4.111691   146A      4.147150
     147A      4.149095   148A      4.173260   149A      4.202072
     150A      4.203249   151A      4.203464   152A      4.210877
     153A      4.315405   154A      4.316538   155A      4.358979
     156A      4.424392   157A      4.424504   158A      4.443438
     159A      4.516701   160A      4.516978   161A      4.578115
     162A      4.578133   163A      4.617838   164A      4.709456
     165A      4.774052   166A      4.775152   167A      4.836890
     168A      4.962824   169A      5.002702   170A      5.003253
     171A      5.228044   172A      5.246792   173A      5.246842
     174A      5.354937   175A      5.356065   176A      5.479346

    Beta Occupied:

       1A    -10.167807     2A    -10.167768     3A    -10.167749
       4A    -10.166519     5A     -0.781094     6A     -0.684166
       7A     -0.683812     8A     -0.511747     9A     -0.431256
      10A     -0.430832    11A     -0.421818    12A     -0.376762
      13A     -0.376610    14A     -0.362592    15A     -0.333651
      16A     -0.332591

    Beta Virtual:

      17A     -0.025742    18A      0.077081    19A      0.135043
      20A      0.135049    21A      0.144332    22A      0.144664
      23A      0.163339    24A      0.182430    25A      0.182467
      26A      0.215031    27A      0.218927    28A      0.282081
      29A      0.282585    30A      0.400275    31A      0.400522
      32A      0.419792    33A      0.426898    34A      0.426919
      35A      0.468500    36A      0.497599    37A      0.497701
      38A      0.513895    39A      0.556322    40A      0.584145
      41A      0.584587    42A      0.597815    43A      0.597826
      44A      0.609996    45A      0.628124    46A      0.631932
      47A      0.639384    48A      0.639697    49A      0.666916
      50A      0.667037    51A      0.686436    52A      0.686537
      53A      0.757517    54A      0.830473    55A      0.830679
      56A      0.855268    57A      0.922853    58A      0.923129
      59A      0.945944    60A      0.953558    61A      0.966429
      62A      0.966778    63A      1.008705    64A      1.131889
      65A      1.132366    66A      1.155627    67A      1.167951
      68A      1.168729    69A      1.232300    70A      1.279672
      71A      1.280500    72A      1.285100    73A      1.329263
      74A      1.329430    75A      1.365388    76A      1.371084
      77A      1.371512    78A      1.393522    79A      1.407410
      80A      1.407613    81A      1.421853    82A      1.422476
      83A      1.428193    84A      1.492526    85A      1.509532
      86A      1.547227    87A      1.547250    88A      1.582310
      89A      1.582322    90A      1.674671    91A      1.744979
      92A      1.745389    93A      1.779093    94A      1.834976
      95A      1.835518    96A      1.972588    97A      2.024888
      98A      2.026005    99A      2.039677   100A      2.058848
     101A      2.059876   102A      2.746555   103A      2.747091
     104A      2.811789   105A      2.816101   106A      2.902164
     107A      2.903112   108A      2.924648   109A      2.931530
     110A      2.932426   111A      2.960054   112A      2.968779
     113A      2.969065   114A      3.041935   115A      3.080780
     116A      3.081619   117A      3.086165   118A      3.184334
     119A      3.184567   120A      3.188448   121A      3.289853
     122A      3.290367   123A      3.330580   124A      3.331342
     125A      3.383426   126A      3.492361   127A      3.493394
     128A      3.512383   129A      3.528384   130A      3.575006
     131A      3.581547   132A      3.581926   133A      3.670903
     134A      3.671350   135A      3.692954   136A      3.725607
     137A      3.725890   138A      3.780582   139A      3.782072
     140A      3.817684   141A      3.921586   142A      3.922501
     143A      4.045326   144A      4.117910   145A      4.118461
     146A      4.154382   147A      4.156279   148A      4.187320
     149A      4.208446   150A      4.209381   151A      4.210792
     152A      4.215358   153A      4.322783   154A      4.324041
     155A      4.362342   156A      4.432614   157A      4.432707
     158A      4.446326   159A      4.524444   160A      4.524815
     161A      4.588689   162A      4.588739   163A      4.625053
     164A      4.719803   165A      4.780970   166A      4.782141
     167A      4.839807   168A      4.967616   169A      5.006755
     170A      5.007280   171A      5.233760   172A      5.248581
     173A      5.248621   174A      5.361392   175A      5.362572
     176A      5.481668

    Final Occupation by Irrep:
              A
    DOCC [    16 ]
    SOCC [     1 ]

  @DF-UKS Final Energy:  -157.81306549506135

   => Energetics <=

    Nuclear Repulsion Energy =            125.3946664447031338
    One-Electron Energy =                -458.7489871448943859
    Two-Electron Energy =                 195.8484002953589993
    DFT Exchange-Correlation Energy =     -20.3071450902291133
    Empirical Dispersion Energy =           0.0000000000000000
    VV10 Nonlocal Energy =                  0.0000000000000000
    Total Energy =                       -157.8130654950613518

  UHF NO Occupations:
  HONO-2 :   15  A 1.9996009
  HONO-1 :   16  A 1.9989805
  HONO-0 :   17  A 1.0000000
  LUNO+0 :   18  A 0.0010195
  LUNO+1 :   19  A 0.0003991
  LUNO+2 :   20  A 0.0001986
  LUNO+3 :   21  A 0.0001965

Computation Completed

Properties will be evaluated at   0.000000,   0.000000,   0.000000 [a0]

Properties computed using the SCF density matrix

  Nuclear Dipole Moment: [e a0]
     X:     0.8272      Y:     0.0096      Z:    -0.0000

  Electronic Dipole Moment: [e a0]
     X:    -0.7493      Y:    -0.0108      Z:     0.0000

  Dipole Moment: [e a0]
     X:     0.0779      Y:    -0.0012      Z:     0.0000     Total:     0.0779

  Dipole Moment: [D]
     X:     0.1980      Y:    -0.0031      Z:     0.0000     Total:     0.1981

*** tstop() called on n091 at Fri Nov  5 13:49:44 2021
Module time:
	user time   =     580.69 seconds =       9.68 minutes
	system time =       5.41 seconds =       0.09 minutes
	total time  =        147 seconds =       2.45 minutes
Total time:
	user time   =     580.69 seconds =       9.68 minutes
	system time =       5.41 seconds =       0.09 minutes
	total time  =        147 seconds =       2.45 minutes
Grab this energy -157.81306549506135
    Psi4 stopped on: Friday, 05 November 2021 01:49PM
    Psi4 wall time for execution: 0:02:27.31

*** Psi4 exiting successfully. Buy a developer a beer!
