                               Psi4 1.4a2.dev629

  ==> Input File <==

--------------------------------------------------------------------------
import os
memory 14 GB

molecule {
 C   -0.3233315836    0.0002511280   -0.0049993344
 C    0.0611776378   -1.4070733495   -2.4306358525
 C    0.0599094156    2.8018686566    0.0062274187
 C    0.0622182234   -1.3948257286    2.4218807614
 H    2.0878832572   -1.6558038155   -2.8533480303
 H   -0.7632801790   -0.3956521771   -4.0301431502
 H   -0.7678770485   -3.2970552865   -2.3490977977
 H    2.0835427196    3.2819905439    0.0111093612
 H   -0.7700430426    3.6759730350    1.6860476584
 H   -0.7645311157    3.6911553123   -1.6671358276
 H    2.0892314981   -1.6382146527    2.8451963164
 H   -0.7632935329   -3.2855180536    2.3486712583
 H   -0.7642141260   -0.3771199260    4.0162272183
units bohr
0 2
}

basis {

assign 6-31g_2dfp_

[ 6-31g_2dfp_ ]

spherical

!----------------------------------------------------------------------
! Basis Set Exchange
! Version v0.8.13
! https://www.basissetexchange.org
!----------------------------------------------------------------------
!   Basis set: 6-31G(2df,p)
! Description: 6-31G(2df,p)
!        Role: orbital
!     Version: 0  (Data from the original Basis Set Exchange)
!----------------------------------------------------------------------

****
H     0
S    3   1.00
     18.7311370              0.03349460
      2.8253937              0.23472695
      0.6401217              0.81375733
S    1   1.00
      0.1612778              1.00000000
P    1   1.00
      1.5000000              1.0000000
P    1   1.00
      0.3750000              1.0000000
****
B     0
S    6   1.00
   2068.8823000              0.0018663
    310.6495700              0.0142515
     70.6830330              0.0695516
     19.8610800              0.2325729
      6.2993048              0.4670787
      2.1270270              0.3634314
SP   3   1.00
      4.7279710             -0.1303938              0.0745976
      1.1903377             -0.1307889              0.3078467
      0.3594117              1.1309444              0.7434568
SP   1   1.00
      0.1267512              1.0000000              1.0000000
D    1   1.00
      0.8020000              1.0000000
D    1   1.00
      0.2005000              1.0000000
F    1   1.00
      0.5000000              1.0000000
****
C     0
S    6   1.00
   3047.5249000              0.0018347
    457.3695100              0.0140373
    103.9486900              0.0688426
     29.2101550              0.2321844
      9.2866630              0.4679413
      3.1639270              0.3623120
SP   3   1.00
      7.8682724             -0.1193324              0.0689991
      1.8812885             -0.1608542              0.3164240
      0.5442493              1.1434564              0.7443083
SP   1   1.00
      0.1687144              1.0000000              1.0000000
D    1   1.00
      1.2520000              1.0000000
D    1   1.00
      0.3130000              1.0000000
F    1   1.00
      0.8000000              1.0000000
****
N     0
S    6   1.00
   4173.5110000              0.0018348
    627.4579000              0.0139950
    142.9021000              0.0685870
     40.2343300              0.2322410
     12.8202100              0.4690700
      4.3904370              0.3604550
SP   3   1.00
     11.6263580             -0.1149610              0.0675800
      2.7162800             -0.1691180              0.3239070
      0.7722180              1.1458520              0.7408950
SP   1   1.00
      0.2120313              1.0000000              1.0000000
D    1   1.00
      1.8260000              1.0000000
D    1   1.00
      0.4565000              1.0000000
F    1   1.00
      1.0000000              1.0000000
****
O     0
S    6   1.00
   5484.6717000              0.0018311
    825.2349500              0.0139501
    188.0469600              0.0684451
     52.9645000              0.2327143
     16.8975700              0.4701930
      5.7996353              0.3585209
SP   3   1.00
     15.5396160             -0.1107775              0.0708743
      3.5999336             -0.1480263              0.3397528
      1.0137618              1.1307670              0.7271586
SP   1   1.00
      0.2700058              1.0000000              1.0000000
D    1   1.00
      2.5840000              1.0000000
D    1   1.00
      0.6460000              1.0000000
F    1   1.00
      1.4000000              1.0000000
****
F     0
S    6   1.00
   7001.7130900              0.0018196169
   1051.3660900              0.0139160796
    239.2856900              0.0684053245
     67.3974453              0.233185760
     21.5199573              0.471267439
      7.40310130             0.356618546
SP   3   1.00
     20.8479528             -0.108506975            0.0716287243
      4.80830834            -0.146451658            0.3459121030
      1.34406986             1.128688580            0.7224699570
SP   1   1.00
      0.358151393            1.0000000              1.0000000
D    1   1.00
      3.5000000              1.0000000
D    1   1.00
      0.8750000              1.0000000
F    1   1.00
      1.8500000              1.0000000
****
Al     0
S    6   1.00
  13983.1000000              0.00194267
   2098.7500000              0.0148599
    477.7050000              0.0728494
    134.3600000              0.2468300
     42.8709000              0.4872580
     14.5189000              0.3234960
SP   6   1.00
    239.6680000             -0.00292619             0.00460285
     57.4419000             -0.0374080              0.0331990
     18.2859000             -0.1144870              0.1362820
      6.5991400              0.1156350              0.3304760
      2.4904900              0.6125950              0.4491460
      0.9445400              0.3937990              0.2657040
SP   3   1.00
      1.2779000             -0.2276060             -0.0175130
      0.3975900              0.00144583             0.2445330
      0.1600950              1.0927900              0.8049340
SP   1   1.00
      0.0556577              1.0000000              1.0000000
D    1   1.00
      0.6500000              1.0000000
D    1   1.00
      0.1625000              1.0000000
F    1   1.00
      0.2500000              1.0000000
****
Si     0
S    6   1.00
  16115.9000000              0.00195948
   2425.5800000              0.01492880
    553.8670000              0.07284780
    156.3400000              0.24613000
     50.0683000              0.48591400
     17.0178000              0.32500200
SP   6   1.00
    292.7180000             -0.00278094             0.00443826
     69.8731000             -0.03571460             0.03266790
     22.3363000             -0.11498500             0.13472100
      8.1503900              0.09356340             0.32867800
      3.1345800              0.60301700             0.44964000
      1.2254300              0.41895900             0.26137200
SP   3   1.00
      1.7273800             -0.24463000            -0.01779510
      0.5729220              0.00431572             0.25353900
      0.2221920              1.09818000             0.80066900
SP   1   1.00
      0.0778369              1.00000000             1.00000000
D    1   1.00
      0.9000000              1.0000000
D    1   1.00
      0.2250000              1.0000000
F    1   1.00
      0.3200000              1.0000000
****
P     0
S    6   1.00
  19413.3000000              0.0018516
   2909.4200000              0.0142062
    661.3640000              0.0699995
    185.7590000              0.2400790
     59.1943000              0.4847620
     20.0310000              0.3352000
SP   6   1.00
    339.4780000             -0.00278217             0.00456462
     81.0101000             -0.0360499              0.03369360
     25.8780000             -0.1166310              0.13975500
      9.4522100              0.0968328              0.33936200
      3.6656600              0.6144180              0.45092100
      1.4674600              0.4037980              0.23858600
SP   3   1.00
      2.1562300             -0.2529230             -0.01776530
      0.7489970              0.0328517              0.27405800
      0.2831450              1.0812500              0.78542100
SP   1   1.00
      0.0998317              1.0000000              1.00000000
D    1   1.00
      1.1000000              1.0000000
D    1   1.00
      0.2750000              1.0000000
F    1   1.00
      0.4500000              1.0000000
****
S     0
S    6   1.00
  21917.1000000              0.0018690
   3301.4900000              0.0142300
    754.1460000              0.0696960
    212.7110000              0.2384870
     67.9896000              0.4833070
     23.0515000              0.3380740
SP   6   1.00
    423.7350000             -0.0023767              0.0040610
    100.7100000             -0.0316930              0.0306810
     32.1599000             -0.1133170              0.1304520
     11.8079000              0.0560900              0.3272050
      4.6311000              0.5922550              0.4528510
      1.8702500              0.4550060              0.2560420
SP   3   1.00
      2.6158400             -0.2503740             -0.0145110
      0.9221670              0.0669570              0.3102630
      0.3412870              1.0545100              0.7544830
SP   1   1.00
      0.1171670              1.0000000              1.0000000
D    1   1.00
      1.3000000              1.0000000
D    1   1.00
      0.3250000              1.0000000
F    1   1.00
      0.5500000              1.0000000
****
Cl     0
S    6   1.00
  25180.1000000              0.0018330
   3780.3500000              0.0140340
    860.4740000              0.0690970
    242.1450000              0.2374520
     77.3349000              0.4830340
     26.2470000              0.3398560
SP   6   1.00
    491.7650000             -0.0022974              0.0039894
    116.9840000             -0.0307140              0.0303180
     37.4153000             -0.1125280              0.1298800
     13.7834000              0.0450160              0.3279510
      5.4521500              0.5893530              0.4535270
      2.2258800              0.4652060              0.2521540
SP   3   1.00
      3.1864900             -0.2518300             -0.0142990
      1.1442700              0.0615890              0.3235720
      0.4203770              1.0601800              0.7435070
SP   1   1.00
      0.1426570              1.0000000              1.0000000
D    1   1.00
      1.5000000              1.0000000
D    1   1.00
      0.3750000              1.0000000
F    1   1.00
      0.7000000              1.0000000
****
}

set {
reference uhf
freeze_core true
e_convergence 10
d_convergence 10
dft_spherical_points 1202
dft_radial_points 99
}

e = energy('b3lyp')

print_out('Grab this energy {0}'.format(e))
--------------------------------------------------------------------------

    Molecular point group: c1

    Geometry (in Bohr), charge = 0, multiplicity = 2:

       Center              X                  Y                   Z               Mass
    ------------   -----------------  -----------------  -----------------  -----------------
         C           -0.323334218092     0.000209047702    -0.003549578676    12.000000000000
         C            0.061175003308    -1.407115429798    -2.429186096776    12.000000000000
         C            0.059906781108     2.801826576302     0.007677174424    12.000000000000
         C            0.062215588908    -1.394867808898     2.423330517124    12.000000000000
         H            2.087880622708    -1.655845895798    -2.851898274576     1.007825032230
         H           -0.763282813492    -0.395694257398    -4.028693394476     1.007825032230
         H           -0.767879682992    -3.297097366798    -2.347648041976     1.007825032230
         H            2.083540085108     3.281948463602     0.012559116924     1.007825032230
         H           -0.770045677092     3.675930954702     1.687497414124     1.007825032230
         H           -0.764533750192     3.691113232002    -1.665686071876     1.007825032230
         H            2.089228863608    -1.638256732998     2.846646072124     1.007825032230
         H           -0.763296167392    -3.285560133898     2.350121014024     1.007825032230
         H           -0.764216760492    -0.377162006298     4.017676974024     1.007825032230

  Charge       = 0
  Multiplicity = 2
  Basis Set: ANONYMOUS57C04330
    Blend: 6-31G_2DFP_
  Basis Set: (ANONYMOUS57C04330 AUX)
    Blend: DEF2-UNIVERSAL-JKFIT

    Orbital Energies [Eh]
    ---------------------

    Alpha Occupied:

       1A    -10.180342     2A    -10.167270     3A    -10.167049
       4A    -10.166727     5A     -0.797770     6A     -0.686408
       7A     -0.685964     8A     -0.530776     9A     -0.441128
      10A     -0.434949    11A     -0.434394    12A     -0.382864
      13A     -0.382331    14A     -0.363610    15A     -0.338310
      16A     -0.337685    17A     -0.168961

    Alpha Virtual:

      18A      0.076072    19A      0.133910    20A      0.134399
      21A      0.142378    22A      0.142876    23A      0.154881
      24A      0.178517    25A      0.179037    26A      0.203548
      27A      0.214807    28A      0.275816    29A      0.276155
      30A      0.399025    31A      0.399363    32A      0.403416
      33A      0.423934    34A      0.424271    35A      0.456597
      36A      0.494983    37A      0.495786    38A      0.512173
      39A      0.513989    40A      0.578524    41A      0.579073
      42A      0.591378    43A      0.591876    44A      0.602607
      45A      0.624768    46A      0.631742    47A      0.635952
      48A      0.636575    49A      0.663194    50A      0.663635
      51A      0.683587    52A      0.684123    53A      0.734992
      54A      0.824580    55A      0.826219    56A      0.853914
      57A      0.914620    58A      0.915431    59A      0.944030
      60A      0.944523    61A      0.961085    62A      0.961728
      63A      1.003468    64A      1.126884    65A      1.129355
      66A      1.142197    67A      1.162763    68A      1.163783
      69A      1.223333    70A      1.273972    71A      1.275003
      72A      1.279373    73A      1.324241    74A      1.324462
      75A      1.355975    76A      1.365295    77A      1.366771
      78A      1.392429    79A      1.403140    80A      1.405022
      81A      1.416511    82A      1.417715    83A      1.427944
      84A      1.491442    85A      1.499046    86A      1.542484
      87A      1.543200    88A      1.572576    89A      1.576440
      90A      1.669825    91A      1.738315    92A      1.740472
      93A      1.768360    94A      1.830741    95A      1.832071
      96A      1.971718    97A      2.017619    98A      2.018281
      99A      2.020469   100A      2.050085   101A      2.055293
     102A      2.738223   103A      2.738750   104A      2.790924
     105A      2.811442   106A      2.889723   107A      2.890145
     108A      2.894979   109A      2.929138   110A      2.929846
     111A      2.958986   112A      2.963466   113A      2.965324
     114A      3.034005   115A      3.070097   116A      3.072444
     117A      3.084385   118A      3.168008   119A      3.169602
     120A      3.180553   121A      3.284597   122A      3.286018
     123A      3.325882   124A      3.328461   125A      3.375664
     126A      3.488960   127A      3.491284   128A      3.514029
     129A      3.525309   130A      3.566995   131A      3.569562
     132A      3.575459   133A      3.665947   134A      3.666804
     135A      3.679668   136A      3.693305   137A      3.694890
     138A      3.775971   139A      3.777531   140A      3.789345
     141A      3.910803   142A      3.913665   143A      4.034467
     144A      4.109995   145A      4.112761   146A      4.146451
     147A      4.149737   148A      4.173233   149A      4.201109
     150A      4.202873   151A      4.204801   152A      4.210939
     153A      4.315767   154A      4.316130   155A      4.359000
     156A      4.424272   157A      4.424540   158A      4.443524
     159A      4.515819   160A      4.517860   161A      4.577188
     162A      4.579359   163A      4.617585   164A      4.709391
     165A      4.773165   166A      4.776053   167A      4.836951
     168A      4.962862   169A      5.001849   170A      5.004076
     171A      5.228051   172A      5.246257   173A      5.247390
     174A      5.354801   175A      5.356213   176A      5.479328

    Beta Occupied:

       1A    -10.168028     2A    -10.167804     3A    -10.167493
       4A    -10.166519     5A     -0.781095     6A     -0.684214
       7A     -0.683763     8A     -0.511747     9A     -0.431333
      10A     -0.430753    11A     -0.421825    12A     -0.376959
      13A     -0.376405    14A     -0.362594    15A     -0.333431
      16A     -0.332810

    Beta Virtual:

      17A     -0.025743    18A      0.077081    19A      0.134791
      20A      0.135298    21A      0.144271    22A      0.144725
      23A      0.163340    24A      0.182177    25A      0.182720
      26A      0.215037    27A      0.218929    28A      0.282152
      29A      0.282516    30A      0.400226    31A      0.400560
      32A      0.419800    33A      0.426732    34A      0.427096
      35A      0.468507    36A      0.497244    37A      0.498051
      38A      0.513909    39A      0.556329    40A      0.584098
      41A      0.584604    42A      0.597550    43A      0.598064
      44A      0.610020    45A      0.628151    46A      0.631911
      47A      0.639220    48A      0.639867    49A      0.666730
      50A      0.667224    51A      0.686180    52A      0.686801
      53A      0.757515    54A      0.829738    55A      0.831398
      56A      0.855268    57A      0.922602    58A      0.923391
      59A      0.945897    60A      0.953429    61A      0.966346
      62A      0.967076    63A      1.008706    64A      1.130935
      65A      1.133362    66A      1.155561    67A      1.167807
      68A      1.168898    69A      1.232302    70A      1.279567
      71A      1.280605    72A      1.285125    73A      1.329215
      74A      1.329466    75A      1.365377    76A      1.370436
      77A      1.372125    78A      1.393492    79A      1.406631
      80A      1.408468    81A      1.421544    82A      1.422759
      83A      1.428230    84A      1.492494    85A      1.509487
      86A      1.546786    87A      1.547718    88A      1.580560
      89A      1.584196    90A      1.674671    91A      1.744085
      92A      1.746229    93A      1.779136    94A      1.834586
      95A      1.835937    96A      1.972581    97A      2.023965
      98A      2.026931    99A      2.039639   100A      2.056886
     101A      2.061930   102A      2.746513   103A      2.747132
     104A      2.811854   105A      2.816059   106A      2.902432
     107A      2.902837   108A      2.924655   109A      2.931668
     110A      2.932286   111A      2.960056   112A      2.968041
     113A      2.969829   114A      3.041940   115A      3.079878
     116A      3.082325   117A      3.086370   118A      3.183863
     119A      3.185230   120A      3.188237   121A      3.289455
     122A      3.290763   123A      3.329688   124A      3.332266
     125A      3.383480   126A      3.491713   127A      3.493982
     128A      3.512406   129A      3.528362   130A      3.574606
     131A      3.581023   132A      3.582919   133A      3.670700
     134A      3.671548   135A      3.692956   136A      3.725160
     137A      3.726306   138A      3.780493   139A      3.782150
     140A      3.817794   141A      3.920619   142A      3.923482
     143A      4.045355   144A      4.116821   145A      4.119567
     146A      4.153712   147A      4.156896   148A      4.187292
     149A      4.207132   150A      4.210534   151A      4.210936
     152A      4.215436   153A      4.323236   154A      4.323543
     155A      4.362362   156A      4.432489   157A      4.432707
     158A      4.446458   159A      4.523684   160A      4.525568
     161A      4.587709   162A      4.590040   163A      4.624778
     164A      4.719736   165A      4.780073   166A      4.783051
     167A      4.839871   168A      4.967655   169A      5.005897
     170A      5.008108   171A      5.233763   172A      5.248044
     173A      5.249174   174A      5.361264   175A      5.362711
     176A      5.481649

    Final Occupation by Irrep:
              A
    DOCC [    16 ]
    SOCC [     1 ]

  @DF-UKS Final Energy:  -157.81305865836237

   => Energetics <=

    Nuclear Repulsion Energy =            125.3948605424483844
    One-Electron Energy =                -458.7493557524545622
    Two-Electron Energy =                 195.8485829425206930
    DFT Exchange-Correlation Energy =     -20.3071463908768948
    Empirical Dispersion Energy =           0.0000000000000000
    VV10 Nonlocal Energy =                  0.0000000000000000
    Total Energy =                       -157.8130586583623653

  UHF NO Occupations:
  HONO-2 :   15  A 1.9996009
  HONO-1 :   16  A 1.9989804
  HONO-0 :   17  A 1.0000000
  LUNO+0 :   18  A 0.0010196
  LUNO+1 :   19  A 0.0003991
  LUNO+2 :   20  A 0.0001979
  LUNO+3 :   21  A 0.0001972

Computation Completed

Properties will be evaluated at   0.000000,   0.000000,   0.000000 [a0]

Properties computed using the SCF density matrix

  Nuclear Dipole Moment: [e a0]
     X:     0.8272      Y:    -0.0003      Z:     0.0102

  Electronic Dipole Moment: [e a0]
     X:    -0.7493      Y:     0.0011      Z:    -0.0109

  Dipole Moment: [e a0]
     X:     0.0779      Y:     0.0008      Z:    -0.0007     Total:     0.0779

  Dipole Moment: [D]
     X:     0.1980      Y:     0.0019      Z:    -0.0019     Total:     0.1980

*** tstop() called on n036 at Fri Nov  5 15:26:15 2021
Module time:
	user time   =     633.05 seconds =      10.55 minutes
	system time =      11.96 seconds =       0.20 minutes
	total time  =        162 seconds =       2.70 minutes
Total time:
	user time   =     633.05 seconds =      10.55 minutes
	system time =      11.96 seconds =       0.20 minutes
	total time  =        162 seconds =       2.70 minutes
Grab this energy -157.81305865836237
    Psi4 stopped on: Friday, 05 November 2021 03:26PM
    Psi4 wall time for execution: 0:02:42.16

*** Psi4 exiting successfully. Buy a developer a beer!
