                               Psi4 1.4a2.dev629

  ==> Input File <==

--------------------------------------------------------------------------
import os
memory 14 GB

molecule {
 C   -0.3243654880    0.0002223380    0.0000000000
 C    0.0601630384   -1.4011596313   -2.4277051933
 C    0.0597923069    2.7996434582    0.0000000000
 C    0.0601630384   -1.4011596313    2.4277051933
 H    2.0902891271   -1.6442760035   -2.8474249016
 H   -0.7664776722   -0.3899736797   -4.0238099560
 H   -0.7665355076   -3.2898036114   -2.3495717304
 H    2.0900265255    3.2892118475   -0.0000000000
 H   -0.7664695962    3.6806619473    1.6739937661
 H   -0.7664695962    3.6806619473   -1.6739937661
 H    2.0902891271   -1.6442760035    2.8474249016
 H   -0.7665355076   -3.2898036114    2.3495717304
 H   -0.7664776722   -0.3899736797    4.0238099560
units bohr
0 2
}

basis {

assign 6-31g_2dfp_

[ 6-31g_2dfp_ ]

spherical

!----------------------------------------------------------------------
! Basis Set Exchange
! Version v0.8.13
! https://www.basissetexchange.org
!----------------------------------------------------------------------
!   Basis set: 6-31G(2df,p)
! Description: 6-31G(2df,p)
!        Role: orbital
!     Version: 0  (Data from the original Basis Set Exchange)
!----------------------------------------------------------------------

****
H     0
S    3   1.00
     18.7311370              0.03349460
      2.8253937              0.23472695
      0.6401217              0.81375733
S    1   1.00
      0.1612778              1.00000000
P    1   1.00
      1.5000000              1.0000000
P    1   1.00
      0.3750000              1.0000000
****
B     0
S    6   1.00
   2068.8823000              0.0018663
    310.6495700              0.0142515
     70.6830330              0.0695516
     19.8610800              0.2325729
      6.2993048              0.4670787
      2.1270270              0.3634314
SP   3   1.00
      4.7279710             -0.1303938              0.0745976
      1.1903377             -0.1307889              0.3078467
      0.3594117              1.1309444              0.7434568
SP   1   1.00
      0.1267512              1.0000000              1.0000000
D    1   1.00
      0.8020000              1.0000000
D    1   1.00
      0.2005000              1.0000000
F    1   1.00
      0.5000000              1.0000000
****
C     0
S    6   1.00
   3047.5249000              0.0018347
    457.3695100              0.0140373
    103.9486900              0.0688426
     29.2101550              0.2321844
      9.2866630              0.4679413
      3.1639270              0.3623120
SP   3   1.00
      7.8682724             -0.1193324              0.0689991
      1.8812885             -0.1608542              0.3164240
      0.5442493              1.1434564              0.7443083
SP   1   1.00
      0.1687144              1.0000000              1.0000000
D    1   1.00
      1.2520000              1.0000000
D    1   1.00
      0.3130000              1.0000000
F    1   1.00
      0.8000000              1.0000000
****
N     0
S    6   1.00
   4173.5110000              0.0018348
    627.4579000              0.0139950
    142.9021000              0.0685870
     40.2343300              0.2322410
     12.8202100              0.4690700
      4.3904370              0.3604550
SP   3   1.00
     11.6263580             -0.1149610              0.0675800
      2.7162800             -0.1691180              0.3239070
      0.7722180              1.1458520              0.7408950
SP   1   1.00
      0.2120313              1.0000000              1.0000000
D    1   1.00
      1.8260000              1.0000000
D    1   1.00
      0.4565000              1.0000000
F    1   1.00
      1.0000000              1.0000000
****
O     0
S    6   1.00
   5484.6717000              0.0018311
    825.2349500              0.0139501
    188.0469600              0.0684451
     52.9645000              0.2327143
     16.8975700              0.4701930
      5.7996353              0.3585209
SP   3   1.00
     15.5396160             -0.1107775              0.0708743
      3.5999336             -0.1480263              0.3397528
      1.0137618              1.1307670              0.7271586
SP   1   1.00
      0.2700058              1.0000000              1.0000000
D    1   1.00
      2.5840000              1.0000000
D    1   1.00
      0.6460000              1.0000000
F    1   1.00
      1.4000000              1.0000000
****
F     0
S    6   1.00
   7001.7130900              0.0018196169
   1051.3660900              0.0139160796
    239.2856900              0.0684053245
     67.3974453              0.233185760
     21.5199573              0.471267439
      7.40310130             0.356618546
SP   3   1.00
     20.8479528             -0.108506975            0.0716287243
      4.80830834            -0.146451658            0.3459121030
      1.34406986             1.128688580            0.7224699570
SP   1   1.00
      0.358151393            1.0000000              1.0000000
D    1   1.00
      3.5000000              1.0000000
D    1   1.00
      0.8750000              1.0000000
F    1   1.00
      1.8500000              1.0000000
****
Al     0
S    6   1.00
  13983.1000000              0.00194267
   2098.7500000              0.0148599
    477.7050000              0.0728494
    134.3600000              0.2468300
     42.8709000              0.4872580
     14.5189000              0.3234960
SP   6   1.00
    239.6680000             -0.00292619             0.00460285
     57.4419000             -0.0374080              0.0331990
     18.2859000             -0.1144870              0.1362820
      6.5991400              0.1156350              0.3304760
      2.4904900              0.6125950              0.4491460
      0.9445400              0.3937990              0.2657040
SP   3   1.00
      1.2779000             -0.2276060             -0.0175130
      0.3975900              0.00144583             0.2445330
      0.1600950              1.0927900              0.8049340
SP   1   1.00
      0.0556577              1.0000000              1.0000000
D    1   1.00
      0.6500000              1.0000000
D    1   1.00
      0.1625000              1.0000000
F    1   1.00
      0.2500000              1.0000000
****
Si     0
S    6   1.00
  16115.9000000              0.00195948
   2425.5800000              0.01492880
    553.8670000              0.07284780
    156.3400000              0.24613000
     50.0683000              0.48591400
     17.0178000              0.32500200
SP   6   1.00
    292.7180000             -0.00278094             0.00443826
     69.8731000             -0.03571460             0.03266790
     22.3363000             -0.11498500             0.13472100
      8.1503900              0.09356340             0.32867800
      3.1345800              0.60301700             0.44964000
      1.2254300              0.41895900             0.26137200
SP   3   1.00
      1.7273800             -0.24463000            -0.01779510
      0.5729220              0.00431572             0.25353900
      0.2221920              1.09818000             0.80066900
SP   1   1.00
      0.0778369              1.00000000             1.00000000
D    1   1.00
      0.9000000              1.0000000
D    1   1.00
      0.2250000              1.0000000
F    1   1.00
      0.3200000              1.0000000
****
P     0
S    6   1.00
  19413.3000000              0.0018516
   2909.4200000              0.0142062
    661.3640000              0.0699995
    185.7590000              0.2400790
     59.1943000              0.4847620
     20.0310000              0.3352000
SP   6   1.00
    339.4780000             -0.00278217             0.00456462
     81.0101000             -0.0360499              0.03369360
     25.8780000             -0.1166310              0.13975500
      9.4522100              0.0968328              0.33936200
      3.6656600              0.6144180              0.45092100
      1.4674600              0.4037980              0.23858600
SP   3   1.00
      2.1562300             -0.2529230             -0.01776530
      0.7489970              0.0328517              0.27405800
      0.2831450              1.0812500              0.78542100
SP   1   1.00
      0.0998317              1.0000000              1.00000000
D    1   1.00
      1.1000000              1.0000000
D    1   1.00
      0.2750000              1.0000000
F    1   1.00
      0.4500000              1.0000000
****
S     0
S    6   1.00
  21917.1000000              0.0018690
   3301.4900000              0.0142300
    754.1460000              0.0696960
    212.7110000              0.2384870
     67.9896000              0.4833070
     23.0515000              0.3380740
SP   6   1.00
    423.7350000             -0.0023767              0.0040610
    100.7100000             -0.0316930              0.0306810
     32.1599000             -0.1133170              0.1304520
     11.8079000              0.0560900              0.3272050
      4.6311000              0.5922550              0.4528510
      1.8702500              0.4550060              0.2560420
SP   3   1.00
      2.6158400             -0.2503740             -0.0145110
      0.9221670              0.0669570              0.3102630
      0.3412870              1.0545100              0.7544830
SP   1   1.00
      0.1171670              1.0000000              1.0000000
D    1   1.00
      1.3000000              1.0000000
D    1   1.00
      0.3250000              1.0000000
F    1   1.00
      0.5500000              1.0000000
****
Cl     0
S    6   1.00
  25180.1000000              0.0018330
   3780.3500000              0.0140340
    860.4740000              0.0690970
    242.1450000              0.2374520
     77.3349000              0.4830340
     26.2470000              0.3398560
SP   6   1.00
    491.7650000             -0.0022974              0.0039894
    116.9840000             -0.0307140              0.0303180
     37.4153000             -0.1125280              0.1298800
     13.7834000              0.0450160              0.3279510
      5.4521500              0.5893530              0.4535270
      2.2258800              0.4652060              0.2521540
SP   3   1.00
      3.1864900             -0.2518300             -0.0142990
      1.1442700              0.0615890              0.3235720
      0.4203770              1.0601800              0.7435070
SP   1   1.00
      0.1426570              1.0000000              1.0000000
D    1   1.00
      1.5000000              1.0000000
D    1   1.00
      0.3750000              1.0000000
F    1   1.00
      0.7000000              1.0000000
****
}

set {
reference uhf
freeze_core true
e_convergence 10
d_convergence 10
dft_spherical_points 1202
dft_radial_points 99
}

e = energy('b3lyp')

print_out('Grab this energy {0}'.format(e))
--------------------------------------------------------------------------

    Molecular point group: cs

    Geometry (in Bohr), charge = 0, multiplicity = 2:

       Center              X                  Y                   Z               Mass
    ------------   -----------------  -----------------  -----------------  -----------------
         C           -0.323555166492     0.000695322660     0.000000000000    12.000000000000
         C            0.060973359908    -1.400686646640    -2.427705193300    12.000000000000
         C            0.060602628408     2.800116442860     0.000000000000    12.000000000000
         C            0.060973359908    -1.400686646640     2.427705193300    12.000000000000
         H            2.091099448608    -1.643803018840    -2.847424901600     1.007825032230
         H           -0.765667350692    -0.389500695040    -4.023809956000     1.007825032230
         H           -0.765725186092    -3.289330626740    -2.349571730400     1.007825032230
         H            2.090836847008     3.289684832160     0.000000000000     1.007825032230
         H           -0.765659274692     3.681134931960     1.673993766100     1.007825032230
         H           -0.765659274692     3.681134931960    -1.673993766100     1.007825032230
         H            2.091099448608    -1.643803018840     2.847424901600     1.007825032230
         H           -0.765725186092    -3.289330626740     2.349571730400     1.007825032230
         H           -0.765667350692    -0.389500695040     4.023809956000     1.007825032230

  Charge       = 0
  Multiplicity = 2
  Basis Set: ANONYMOUSBD7877C1
    Blend: 6-31G_2DFP_
  Basis Set: (ANONYMOUSBD7877C1 AUX)
    Blend: DEF2-UNIVERSAL-JKFIT

    Orbital Energies [Eh]
    ---------------------

    Alpha Occupied:

       1Ap   -10.180401     2Ap   -10.167066     1App  -10.167012
       3Ap   -10.166976     4Ap    -0.797729     2App   -0.686205
       5Ap    -0.686159     6Ap    -0.530770     7Ap    -0.441025
       8Ap    -0.434798     3App   -0.434634     4App   -0.382551
       9Ap    -0.382371     5App   -0.363791    10Ap    -0.338262
       6App   -0.337844    11Ap    -0.168999

    Alpha Virtual:

      12Ap     0.076157    13Ap     0.134124     7App    0.134170
       8App    0.142635    14Ap     0.142771    15Ap     0.154712
      16Ap     0.178523     9App    0.178686    17Ap     0.203503
      10App    0.215076    11App    0.275735    18Ap     0.276188
      12App    0.399100    19Ap     0.399115    20Ap     0.403258
      13App    0.424242    21Ap     0.424330    22Ap     0.456518
      14App    0.495548    23Ap     0.495590    15App    0.512042
      24Ap     0.513827    16App    0.578615    25Ap     0.578669
      26Ap     0.591316    17App    0.591426    27Ap     0.601821
      28Ap     0.625274    18App    0.632160    19App    0.636455
      29Ap     0.636787    20App    0.662863    30Ap     0.662989
      31Ap     0.684080    21App    0.684126    32Ap     0.735056
      33Ap     0.825321    22App    0.825427    23App    0.853637
      24App    0.914785    34Ap     0.914821    25App    0.944414
      35Ap     0.944753    36Ap     0.961172    26App    0.961220
      37Ap     1.003264    27App    1.128293    38Ap     1.128421
      39Ap     1.141508    28App    1.163252    40Ap     1.163819
      41Ap     1.223739    29App    1.273951    42Ap     1.274536
      43Ap     1.279210    30App    1.324074    44Ap     1.324209
      45Ap     1.356510    31App    1.365818    46Ap     1.366134
      32App    1.392394    47Ap     1.402821    33App    1.403220
      34App    1.417914    48Ap     1.418267    35App    1.427709
      36App    1.491480    49Ap     1.498153    37App    1.542396
      50Ap     1.542530    38App    1.574620    51Ap     1.575000
      52Ap     1.671083    53Ap     1.738444    39App    1.738714
      54Ap     1.766458    55Ap     1.832292    40App    1.833300
      41App    1.972745    56Ap     2.018185    42App    2.018484
      57Ap     2.019590    43App    2.050729    58Ap     2.052093
      59Ap     2.738684    44App    2.738925    60Ap     2.790533
      45App    2.811882    46App    2.889507    61Ap     2.889648
      62Ap     2.894605    47App    2.929645    63Ap     2.929761
      48App    2.958863    49App    2.963887    64Ap     2.964030
      65Ap     3.033320    66Ap     3.071125    50App    3.071383
      51App    3.085759    52App    3.168468    67Ap     3.168825
      68Ap     3.180561    53App    3.285205    69Ap     3.285235
      54App    3.327612    70Ap     3.327969    71Ap     3.375781
      55App    3.489596    72Ap     3.490268    56App    3.512803
      73Ap     3.526534    57App    3.567894    74Ap     3.568082
      58App    3.574317    75Ap     3.665289    59App    3.666706
      76Ap     3.680270    77Ap     3.694221    60App    3.694426
      61App    3.777048    78Ap     3.777391    79Ap     3.788335
      62App    3.912045    80Ap     3.913534    81Ap     4.034875
      63App    4.111163    82Ap     4.111476    64App    4.147222
      83Ap     4.147790    84Ap     4.171471    85Ap     4.202591
      65App    4.203498    86Ap     4.204430    66App    4.209668
      67App    4.314804    87Ap     4.316239    68App    4.360218
      69App    4.422721    88Ap     4.424657    70App    4.443768
      71App    4.515524    89Ap     4.516852    72App    4.578943
      90Ap     4.578990    91Ap     4.617400    92Ap     4.708937
      93Ap     4.774396    73App    4.775022    74App    4.838277
      94Ap     4.963136    95Ap     5.000980    75App    5.002349
      96Ap     5.225326    76App    5.249608    97Ap     5.250013
      77App    5.353495    98Ap     5.353612    78App    5.481308

    Beta Occupied:

       1Ap   -10.167826     1App  -10.167765     2Ap   -10.167747
       3Ap   -10.166584     4Ap    -0.781061     2App   -0.684026
       5Ap    -0.683969     6Ap    -0.511790     7Ap    -0.431195
       3App   -0.431028     8Ap    -0.421664     4App   -0.376631
       9Ap    -0.376411     5App   -0.362784    10Ap    -0.333381
       6App   -0.332962

    Beta Virtual:

      11Ap    -0.025873    12Ap     0.077183    13Ap     0.135107
       7App    0.135109     8App    0.144497    14Ap     0.144598
      15Ap     0.163192    16Ap     0.182177     9App    0.182317
      10App    0.215298    17Ap     0.218884    11App    0.282096
      18Ap     0.282532    12App    0.400275    19Ap     0.400285
      20Ap     0.419799    13App    0.427052    21Ap     0.427142
      22Ap     0.468327    14App    0.497811    23Ap     0.497867
      15App    0.513785    24Ap     0.556133    16App    0.584187
      25Ap     0.584253    26Ap     0.597487    17App    0.597597
      27Ap     0.609367    28Ap     0.628525    18App    0.632316
      19App    0.639706    29Ap     0.640030    20App    0.666451
      30Ap     0.666590    31Ap     0.686715    21App    0.686737
      32Ap     0.757576    33Ap     0.830505    22App    0.830622
      23App    0.854999    24App    0.922771    34Ap     0.922813
      25App    0.946242    35Ap     0.953731    36Ap     0.966447
      26App    0.966489    37Ap     1.008465    27App    1.132361
      38Ap     1.132486    39Ap     1.154960    28App    1.168282
      40Ap     1.168888    41Ap     1.232695    29App    1.279523
      42Ap     1.280114    43Ap     1.284907    30App    1.329125
      44Ap     1.329231    45Ap     1.365907    31App    1.371160
      46Ap     1.371422    32App    1.393469    47Ap     1.406279
      33App    1.406577    34App    1.422940    48Ap     1.423267
      35App    1.427992    36App    1.492502    49Ap     1.508604
      37App    1.546827    50Ap     1.546976    38App    1.582468
      51Ap     1.582863    52Ap     1.675981    53Ap     1.744196
      39App    1.744474    54Ap     1.777227    55Ap     1.836158
      40App    1.837146    41App    1.973591    42App    2.024732
      56Ap     2.025832    57Ap     2.039570    43App    2.057570
      58Ap     2.058940    59Ap     2.747051    44App    2.747247
      45App    2.812296    60Ap     2.815631    46App    2.902191
      61Ap     2.902295    62Ap     2.924106    47App    2.932143
      63Ap     2.932231    48App    2.959922    49App    2.968381
      64Ap     2.968553    65Ap     3.041470    66Ap     3.081027
      50App    3.081273    51App    3.087578    52App    3.184223
      67Ap     3.184554    68Ap     3.188275    69Ap     3.290038
      53App    3.290062    54App    3.331388    70Ap     3.331730
      71Ap     3.383574    55App    3.492263    72Ap     3.492980
      56App    3.511167    73Ap     3.529565    57App    3.574167
      58App    3.581391    74Ap     3.581612    75Ap     3.669928
      59App    3.671389    76Ap     3.693539    77Ap     3.725826
      60App    3.726068    61App    3.781469    78Ap     3.781895
      79Ap     3.816908    62App    3.921968    80Ap     3.923356
      81Ap     4.045825    63App    4.117878    82Ap     4.118397
      64App    4.154519    83Ap     4.154897    84Ap     4.185554
      65App    4.209543    85Ap     4.210058    86Ap     4.210939
      66App    4.214267    67App    4.322150    87Ap     4.323644
      68App    4.363536    69App    4.430943    88Ap     4.432839
      70App    4.446624    71App    4.523352    89Ap     4.524672
      72App    4.589488    90Ap     4.589565    91Ap     4.624501
      92Ap     4.719398    93Ap     4.781320    73App    4.781906
      74App    4.841184    94Ap     4.967944    95Ap     5.005060
      75App    5.006400    96Ap     5.231006    76App    5.251386
      97Ap     5.251777    77App    5.359926    98Ap     5.360085
      78App    5.483617

    Final Occupation by Irrep:
             Ap   App
    DOCC [    10,    6 ]
    SOCC [     1,    0 ]

  @DF-UKS Final Energy:  -157.81305850029656

   => Energetics <=

    Nuclear Repulsion Energy =            125.3892910756721761
    One-Electron Energy =                -458.7381848371466617
    Two-Electron Energy =                 195.8428719083920271
    DFT Exchange-Correlation Energy =     -20.3070366472141295
    Empirical Dispersion Energy =           0.0000000000000000
    VV10 Nonlocal Energy =                  0.0000000000000000
    Total Energy =                       -157.8130585002965631

  UHF NO Occupations:
  HONO-2 :    9 Ap 1.9995985
  HONO-1 :   10 Ap 1.9989796
  HONO-0 :   11 Ap 1.0000000
  LUNO+0 :   12 Ap 0.0010204
  LUNO+1 :   13 Ap 0.0004015
  LUNO+2 :    7App 0.0001979
  LUNO+3 :   14 Ap 0.0001972

Computation Completed

Properties will be evaluated at   0.000000,   0.000000,   0.000000 [a0]

Properties computed using the SCF density matrix

  Nuclear Dipole Moment: [e a0]
     X:     0.8329      Y:     0.0033      Z:     0.0000

  Electronic Dipole Moment: [e a0]
     X:    -0.7582      Y:    -0.0034      Z:     0.0000

  Dipole Moment: [e a0]
     X:     0.0747      Y:    -0.0001      Z:     0.0000     Total:     0.0747

  Dipole Moment: [D]
     X:     0.1899      Y:    -0.0002      Z:     0.0000     Total:     0.1899

*** tstop() called on n031 at Fri Nov  5 13:00:01 2021
Module time:
	user time   =     636.66 seconds =      10.61 minutes
	system time =      11.93 seconds =       0.20 minutes
	total time  =        163 seconds =       2.72 minutes
Total time:
	user time   =     636.66 seconds =      10.61 minutes
	system time =      11.93 seconds =       0.20 minutes
	total time  =        163 seconds =       2.72 minutes
Grab this energy -157.81305850029656
    Psi4 stopped on: Friday, 05 November 2021 01:00PM
    Psi4 wall time for execution: 0:02:43.10

*** Psi4 exiting successfully. Buy a developer a beer!
