                               Psi4 1.4a2.dev629

  ==> Input File <==

--------------------------------------------------------------------------
import os
memory 14 GB

molecule {
 C   -0.3233370293    0.0030177229    0.0000000000
 C    0.0608448113   -1.4016735327   -2.4266351874
 C    0.0616139183    2.8005204861   -0.0000000000
 C    0.0608448113   -1.4016735327    2.4266351874
 H    2.0868597824   -1.6416294052   -2.8514660224
 H   -0.7666136194   -0.3905599880   -4.0294919408
 H   -0.7646510982   -3.2902811655   -2.3442714911
 H    2.0869399912    3.2836142947   -0.0000000000
 H   -0.7653522546    3.6805556827    1.6756395152
 H   -0.7653522546    3.6805556827   -1.6756395152
 H    2.0868597824   -1.6416294052    2.8514660224
 H   -0.7646510982   -3.2902811655    2.3442714911
 H   -0.7666136194   -0.3905599880    4.0294919408
units bohr
0 2
}

basis {

assign 6-31g_2dfp_

[ 6-31g_2dfp_ ]

spherical

!----------------------------------------------------------------------
! Basis Set Exchange
! Version v0.8.13
! https://www.basissetexchange.org
!----------------------------------------------------------------------
!   Basis set: 6-31G(2df,p)
! Description: 6-31G(2df,p)
!        Role: orbital
!     Version: 0  (Data from the original Basis Set Exchange)
!----------------------------------------------------------------------

****
H     0
S    3   1.00
     18.7311370              0.03349460
      2.8253937              0.23472695
      0.6401217              0.81375733
S    1   1.00
      0.1612778              1.00000000
P    1   1.00
      1.5000000              1.0000000
P    1   1.00
      0.3750000              1.0000000
****
B     0
S    6   1.00
   2068.8823000              0.0018663
    310.6495700              0.0142515
     70.6830330              0.0695516
     19.8610800              0.2325729
      6.2993048              0.4670787
      2.1270270              0.3634314
SP   3   1.00
      4.7279710             -0.1303938              0.0745976
      1.1903377             -0.1307889              0.3078467
      0.3594117              1.1309444              0.7434568
SP   1   1.00
      0.1267512              1.0000000              1.0000000
D    1   1.00
      0.8020000              1.0000000
D    1   1.00
      0.2005000              1.0000000
F    1   1.00
      0.5000000              1.0000000
****
C     0
S    6   1.00
   3047.5249000              0.0018347
    457.3695100              0.0140373
    103.9486900              0.0688426
     29.2101550              0.2321844
      9.2866630              0.4679413
      3.1639270              0.3623120
SP   3   1.00
      7.8682724             -0.1193324              0.0689991
      1.8812885             -0.1608542              0.3164240
      0.5442493              1.1434564              0.7443083
SP   1   1.00
      0.1687144              1.0000000              1.0000000
D    1   1.00
      1.2520000              1.0000000
D    1   1.00
      0.3130000              1.0000000
F    1   1.00
      0.8000000              1.0000000
****
N     0
S    6   1.00
   4173.5110000              0.0018348
    627.4579000              0.0139950
    142.9021000              0.0685870
     40.2343300              0.2322410
     12.8202100              0.4690700
      4.3904370              0.3604550
SP   3   1.00
     11.6263580             -0.1149610              0.0675800
      2.7162800             -0.1691180              0.3239070
      0.7722180              1.1458520              0.7408950
SP   1   1.00
      0.2120313              1.0000000              1.0000000
D    1   1.00
      1.8260000              1.0000000
D    1   1.00
      0.4565000              1.0000000
F    1   1.00
      1.0000000              1.0000000
****
O     0
S    6   1.00
   5484.6717000              0.0018311
    825.2349500              0.0139501
    188.0469600              0.0684451
     52.9645000              0.2327143
     16.8975700              0.4701930
      5.7996353              0.3585209
SP   3   1.00
     15.5396160             -0.1107775              0.0708743
      3.5999336             -0.1480263              0.3397528
      1.0137618              1.1307670              0.7271586
SP   1   1.00
      0.2700058              1.0000000              1.0000000
D    1   1.00
      2.5840000              1.0000000
D    1   1.00
      0.6460000              1.0000000
F    1   1.00
      1.4000000              1.0000000
****
F     0
S    6   1.00
   7001.7130900              0.0018196169
   1051.3660900              0.0139160796
    239.2856900              0.0684053245
     67.3974453              0.233185760
     21.5199573              0.471267439
      7.40310130             0.356618546
SP   3   1.00
     20.8479528             -0.108506975            0.0716287243
      4.80830834            -0.146451658            0.3459121030
      1.34406986             1.128688580            0.7224699570
SP   1   1.00
      0.358151393            1.0000000              1.0000000
D    1   1.00
      3.5000000              1.0000000
D    1   1.00
      0.8750000              1.0000000
F    1   1.00
      1.8500000              1.0000000
****
Al     0
S    6   1.00
  13983.1000000              0.00194267
   2098.7500000              0.0148599
    477.7050000              0.0728494
    134.3600000              0.2468300
     42.8709000              0.4872580
     14.5189000              0.3234960
SP   6   1.00
    239.6680000             -0.00292619             0.00460285
     57.4419000             -0.0374080              0.0331990
     18.2859000             -0.1144870              0.1362820
      6.5991400              0.1156350              0.3304760
      2.4904900              0.6125950              0.4491460
      0.9445400              0.3937990              0.2657040
SP   3   1.00
      1.2779000             -0.2276060             -0.0175130
      0.3975900              0.00144583             0.2445330
      0.1600950              1.0927900              0.8049340
SP   1   1.00
      0.0556577              1.0000000              1.0000000
D    1   1.00
      0.6500000              1.0000000
D    1   1.00
      0.1625000              1.0000000
F    1   1.00
      0.2500000              1.0000000
****
Si     0
S    6   1.00
  16115.9000000              0.00195948
   2425.5800000              0.01492880
    553.8670000              0.07284780
    156.3400000              0.24613000
     50.0683000              0.48591400
     17.0178000              0.32500200
SP   6   1.00
    292.7180000             -0.00278094             0.00443826
     69.8731000             -0.03571460             0.03266790
     22.3363000             -0.11498500             0.13472100
      8.1503900              0.09356340             0.32867800
      3.1345800              0.60301700             0.44964000
      1.2254300              0.41895900             0.26137200
SP   3   1.00
      1.7273800             -0.24463000            -0.01779510
      0.5729220              0.00431572             0.25353900
      0.2221920              1.09818000             0.80066900
SP   1   1.00
      0.0778369              1.00000000             1.00000000
D    1   1.00
      0.9000000              1.0000000
D    1   1.00
      0.2250000              1.0000000
F    1   1.00
      0.3200000              1.0000000
****
P     0
S    6   1.00
  19413.3000000              0.0018516
   2909.4200000              0.0142062
    661.3640000              0.0699995
    185.7590000              0.2400790
     59.1943000              0.4847620
     20.0310000              0.3352000
SP   6   1.00
    339.4780000             -0.00278217             0.00456462
     81.0101000             -0.0360499              0.03369360
     25.8780000             -0.1166310              0.13975500
      9.4522100              0.0968328              0.33936200
      3.6656600              0.6144180              0.45092100
      1.4674600              0.4037980              0.23858600
SP   3   1.00
      2.1562300             -0.2529230             -0.01776530
      0.7489970              0.0328517              0.27405800
      0.2831450              1.0812500              0.78542100
SP   1   1.00
      0.0998317              1.0000000              1.00000000
D    1   1.00
      1.1000000              1.0000000
D    1   1.00
      0.2750000              1.0000000
F    1   1.00
      0.4500000              1.0000000
****
S     0
S    6   1.00
  21917.1000000              0.0018690
   3301.4900000              0.0142300
    754.1460000              0.0696960
    212.7110000              0.2384870
     67.9896000              0.4833070
     23.0515000              0.3380740
SP   6   1.00
    423.7350000             -0.0023767              0.0040610
    100.7100000             -0.0316930              0.0306810
     32.1599000             -0.1133170              0.1304520
     11.8079000              0.0560900              0.3272050
      4.6311000              0.5922550              0.4528510
      1.8702500              0.4550060              0.2560420
SP   3   1.00
      2.6158400             -0.2503740             -0.0145110
      0.9221670              0.0669570              0.3102630
      0.3412870              1.0545100              0.7544830
SP   1   1.00
      0.1171670              1.0000000              1.0000000
D    1   1.00
      1.3000000              1.0000000
D    1   1.00
      0.3250000              1.0000000
F    1   1.00
      0.5500000              1.0000000
****
Cl     0
S    6   1.00
  25180.1000000              0.0018330
   3780.3500000              0.0140340
    860.4740000              0.0690970
    242.1450000              0.2374520
     77.3349000              0.4830340
     26.2470000              0.3398560
SP   6   1.00
    491.7650000             -0.0022974              0.0039894
    116.9840000             -0.0307140              0.0303180
     37.4153000             -0.1125280              0.1298800
     13.7834000              0.0450160              0.3279510
      5.4521500              0.5893530              0.4535270
      2.2258800              0.4652060              0.2521540
SP   3   1.00
      3.1864900             -0.2518300             -0.0142990
      1.1442700              0.0615890              0.3235720
      0.4203770              1.0601800              0.7435070
SP   1   1.00
      0.1426570              1.0000000              1.0000000
D    1   1.00
      1.5000000              1.0000000
D    1   1.00
      0.3750000              1.0000000
F    1   1.00
      0.7000000              1.0000000
****
}

set {
reference uhf
freeze_core true
e_convergence 10
d_convergence 10
dft_spherical_points 1202
dft_radial_points 99
}

e = energy('b3lyp')

print_out('Grab this energy {0}'.format(e))
--------------------------------------------------------------------------

    Molecular point group: cs

    Geometry (in Bohr), charge = 0, multiplicity = 2:

       Center              X                  Y                   Z               Mass
    ------------   -----------------  -----------------  -----------------  -----------------
         C           -0.323338280560     0.002981336629     0.000000000000    12.000000000000
         C            0.060843560040    -1.401709918971    -2.426635187400    12.000000000000
         C            0.061612667040     2.800484099829     0.000000000000    12.000000000000
         C            0.060843560040    -1.401709918971     2.426635187400    12.000000000000
         H            2.086858531140    -1.641665791471    -2.851466022400     1.007825032230
         H           -0.766614870660    -0.390596374271    -4.029491940800     1.007825032230
         H           -0.764652349460    -3.290317551771    -2.344271491100     1.007825032230
         H            2.086938739940     3.283577908429     0.000000000000     1.007825032230
         H           -0.765353505860     3.680519296429     1.675639515200     1.007825032230
         H           -0.765353505860     3.680519296429    -1.675639515200     1.007825032230
         H            2.086858531140    -1.641665791471     2.851466022400     1.007825032230
         H           -0.764652349460    -3.290317551771     2.344271491100     1.007825032230
         H           -0.766614870660    -0.390596374271     4.029491940800     1.007825032230

  Charge       = 0
  Multiplicity = 2
  Basis Set: ANONYMOUS289E0775
    Blend: 6-31G_2DFP_
  Basis Set: (ANONYMOUS289E0775 AUX)
    Blend: DEF2-UNIVERSAL-JKFIT

    Orbital Energies [Eh]
    ---------------------

    Alpha Occupied:

       1Ap   -10.180342     1App  -10.167106     2Ap   -10.167078
       3Ap   -10.166861     4Ap    -0.797767     5Ap    -0.686388
       2App   -0.685986     6Ap    -0.530776     7Ap    -0.441136
       8Ap    -0.434723     3App   -0.434611     9Ap    -0.382671
       4App   -0.382530     5App   -0.363607    10Ap    -0.338358
       6App   -0.337639    11Ap    -0.168960

    Alpha Virtual:

      12Ap     0.076073     7App    0.134087    13Ap     0.134225
       8App    0.142623    14Ap     0.142627    15Ap     0.154879
      16Ap     0.178689     9App    0.178865    17Ap     0.203546
      10App    0.214807    11App    0.275590    18Ap     0.276381
      12App    0.399086    19Ap     0.399363    20Ap     0.403351
      21Ap     0.424041    13App    0.424156    22Ap     0.456592
      23Ap     0.495295    14App    0.495484    15App    0.512159
      24Ap     0.513979    16App    0.578488    25Ap     0.579141
      17App    0.591320    26Ap     0.591938    27Ap     0.602580
      28Ap     0.624750    18App    0.631778    19App    0.636208
      29Ap     0.636308    20App    0.663355    30Ap     0.663468
      21App    0.683839    31Ap     0.683870    32Ap     0.734994
      33Ap     0.825189    22App    0.825624    23App    0.853915
      24App    0.914990    34Ap     0.915047    25App    0.944123
      35Ap     0.944618    36Ap     0.960677    26App    0.961913
      37Ap     1.003459    38Ap     1.127862    27App    1.128343
      39Ap     1.142213    40Ap     1.163148    28App    1.163410
      41Ap     1.223329    29App    1.274154    42Ap     1.274826
      43Ap     1.279349    30App    1.324300    44Ap     1.324409
      45Ap     1.355995    46Ap     1.365986    31App    1.366126
      32App    1.392400    33App    1.403538    47Ap     1.404608
      34App    1.416456    48Ap     1.417767    35App    1.427905
      36App    1.491498    49Ap     1.499081    50Ap     1.542722
      37App    1.542934    51Ap     1.574120    38App    1.574775
      52Ap     1.669821    39App    1.738944    53Ap     1.739871
      54Ap     1.768339    40App    1.830975    55Ap     1.831840
      41App    1.971733    56Ap     2.017579    57Ap     2.019289
      42App    2.019523    43App    2.052433    58Ap     2.052852
      59Ap     2.738251    44App    2.738716    60Ap     2.790927
      45App    2.811415    46App    2.889038    61Ap     2.890827
      62Ap     2.895001    47App    2.929311    63Ap     2.929683
      48App    2.958992    64Ap     2.963922    49App    2.964832
      65Ap     3.034010    50App    3.071276    66Ap     3.071295
      51App    3.084349    52App    3.168704    67Ap     3.168841
      68Ap     3.180612    53App    3.285052    69Ap     3.285580
      54App    3.326881    70Ap     3.327440    71Ap     3.375618
      55App    3.489907    72Ap     3.490356    56App    3.514040
      73Ap     3.525318    57App    3.568035    74Ap     3.568616
      58App    3.575285    59App    3.666338    75Ap     3.666386
      76Ap     3.679595    60App    3.693715    77Ap     3.694629
      78Ap     3.775567    61App    3.778060    79Ap     3.789160
      62App    3.911610    80Ap     3.912845    81Ap     4.034439
      63App    4.110324    82Ap     4.112401    64App    4.147060
      83Ap     4.149176    84Ap     4.173263    85Ap     4.202643
      65App    4.202982    86Ap     4.203165    66App    4.210856
      67App    4.314355    87Ap     4.317522    68App    4.359007
      88Ap     4.423636    69App    4.425263    70App    4.443448
      71App    4.516233    89Ap     4.517424    72App    4.577669
      90Ap     4.578869    91Ap     4.617511    92Ap     4.709471
      93Ap     4.773442    73App    4.775777    74App    4.836946
      94Ap     4.962843    75App    5.002863    95Ap     5.003045
      96Ap     5.228015    97Ap     5.246626    76App    5.247032
      77App    5.354766    98Ap     5.356241    78App    5.479374

    Beta Occupied:

       1App  -10.167859     1Ap   -10.167841     2Ap   -10.167624
       3Ap   -10.166519     4Ap    -0.781093     5Ap    -0.684181
       2App   -0.683798     6Ap    -0.511747     7Ap    -0.431097
       3App   -0.430998     8Ap    -0.421815     9Ap    -0.376759
       4App   -0.376614     5App   -0.362589    10Ap    -0.333476
       6App   -0.332767

    Beta Virtual:

      11Ap    -0.025742    12Ap     0.077082     7App    0.134973
      13Ap     0.135119    14Ap     0.144478     8App    0.144513
      15Ap     0.163338    16Ap     0.182391     9App    0.182507
      10App    0.215037    17Ap     0.218928    11App    0.281962
      18Ap     0.282705    12App    0.400256    19Ap     0.400540
      20Ap     0.419782    21Ap     0.426858    13App    0.426969
      22Ap     0.468500    23Ap     0.497562    14App    0.497739
      15App    0.513895    24Ap     0.556324    16App    0.584036
      25Ap     0.584692    17App    0.597505    26Ap     0.598115
      27Ap     0.609998    28Ap     0.628131    18App    0.631935
      19App    0.639477    29Ap     0.639608    20App    0.666916
      30Ap     0.667034    21App    0.686454    31Ap     0.686524
      32Ap     0.757517    33Ap     0.830338    22App    0.830812
      23App    0.855268    34Ap     0.922984    24App    0.922995
      25App    0.945961    35Ap     0.953543    36Ap     0.966033
      26App    0.967174    37Ap     1.008699    38Ap     1.131828
      27App    1.132435    39Ap     1.155583    40Ap     1.168302
      28App    1.168411    41Ap     1.232301    29App    1.279726
      42Ap     1.280446    43Ap     1.285103    30App    1.329262
      44Ap     1.329426    45Ap     1.365412    46Ap     1.371174
      31App    1.371425    32App    1.393467    33App    1.406959
      47Ap     1.408107    34App    1.421529    48Ap     1.422793
      35App    1.428176    36App    1.492547    49Ap     1.509524
      50Ap     1.547139    37App    1.547332    51Ap     1.582003
      38App    1.582636    52Ap     1.674669    39App    1.744699
      53Ap     1.745644    54Ap     1.779111    40App    1.834831
      55Ap     1.835696    41App    1.972593    56Ap     2.024937
      42App    2.025923    57Ap     2.039708    43App    2.059141
      58Ap     2.059578    59Ap     2.746598    44App    2.747041
      45App    2.811829    60Ap     2.816061    46App    2.901796
      61Ap     2.903488    62Ap     2.924664    47App    2.931772
      63Ap     2.932185    48App    2.960056    64Ap     2.968496
      49App    2.969345    65Ap     3.041944    50App    3.081169
      66Ap     3.081222    51App    3.086165    52App    3.184445
      67Ap     3.184560    68Ap     3.188335    53App    3.289857
      69Ap     3.290372    54App    3.330715    70Ap     3.331216
      71Ap     3.383437    55App    3.492633    72Ap     3.493084
      56App    3.512410    73Ap     3.528369    57App    3.574841
      58App    3.581589    74Ap     3.582034    59App    3.670791
      75Ap     3.671485    76Ap     3.692913    77Ap     3.725707
      60App    3.725825    78Ap     3.780202    61App    3.782482
      79Ap     3.817703    62App    3.921423    80Ap     3.922666
      81Ap     4.045327    63App    4.117251    82Ap     4.119109
      64App    4.154278    83Ap     4.156372    84Ap     4.187322
      65App    4.208890    85Ap     4.209117    86Ap     4.210626
      66App    4.215330    67App    4.321733    87Ap     4.325018
      68App    4.362376    88Ap     4.431903    69App    4.433430
      70App    4.446329    71App    4.524048    89Ap     4.525188
      72App    4.588295    90Ap     4.589440    91Ap     4.624709
      92Ap     4.719816    93Ap     4.780459    73App    4.782665
      74App    4.839866    94Ap     4.967638    75App    5.006894
      95Ap     5.007093    96Ap     5.233728    97Ap     5.248398
      76App    5.248832    77App    5.361206    98Ap     5.362762
      78App    5.481695

    Final Occupation by Irrep:
             Ap   App
    DOCC [    10,    6 ]
    SOCC [     1,    0 ]

  @DF-UKS Final Energy:  -157.81306419598130

   => Energetics <=

    Nuclear Repulsion Energy =            125.3946484708855849
    One-Electron Energy =                -458.7489436953114250
    Two-Electron Energy =                 195.8483758558270438
    DFT Exchange-Correlation Energy =     -20.3071448273824835
    Empirical Dispersion Energy =           0.0000000000000000
    VV10 Nonlocal Energy =                  0.0000000000000000
    Total Energy =                       -157.8130641959812976

  UHF NO Occupations:
  HONO-2 :    9 Ap 1.9996009
  HONO-1 :   10 Ap 1.9989805
  HONO-0 :   11 Ap 1.0000000
  LUNO+0 :   12 Ap 0.0010195
  LUNO+1 :   13 Ap 0.0003991
  LUNO+2 :    7App 0.0001983
  LUNO+3 :   14 Ap 0.0001968

Computation Completed

Properties will be evaluated at   0.000000,   0.000000,   0.000000 [a0]

Properties computed using the SCF density matrix

  Nuclear Dipole Moment: [e a0]
     X:     0.8272      Y:    -0.0003      Z:    -0.0000

  Electronic Dipole Moment: [e a0]
     X:    -0.7493      Y:     0.0003      Z:     0.0000

  Dipole Moment: [e a0]
     X:     0.0779      Y:     0.0001      Z:    -0.0000     Total:     0.0779

  Dipole Moment: [D]
     X:     0.1980      Y:     0.0002      Z:    -0.0000     Total:     0.1980

*** tstop() called on n054 at Fri Nov  5 11:54:21 2021
Module time:
	user time   =     538.31 seconds =       8.97 minutes
	system time =      11.94 seconds =       0.20 minutes
	total time  =        138 seconds =       2.30 minutes
Total time:
	user time   =     538.31 seconds =       8.97 minutes
	system time =      11.94 seconds =       0.20 minutes
	total time  =        138 seconds =       2.30 minutes
Grab this energy -157.8130641959813
    Psi4 stopped on: Friday, 05 November 2021 11:54AM
    Psi4 wall time for execution: 0:02:18.38

*** Psi4 exiting successfully. Buy a developer a beer!
