                               Psi4 1.4a2.dev629

  ==> Input File <==

--------------------------------------------------------------------------
import os
memory 14 GB

molecule {
 C   -0.3233376274    0.0053435660    0.0000019318
 C    0.0612139195   -1.3991973218   -2.4273145200
 C    0.0608735251    2.8018177991    0.0009662754
 C    0.0612152029   -1.4008711850    2.4263488146
 H    2.0868188028   -1.6427464602   -2.8485674173
 H   -0.7637961589   -0.3900459783   -4.0234553183
 H   -0.7672340760   -3.2947399803   -2.3493234876
 H    2.0870369085    3.2875030187    0.0026016504
 H   -0.7632294239    3.6789166578    1.6751285119
 H   -0.7679553189    3.6799310958   -1.6786522033
 H    2.0868168954   -1.6472522306    2.8459647938
 H   -0.7625095149   -3.2911782236    2.3502034662
 H   -0.7685210110   -0.3875050712    4.0260975023
units bohr
0 2
}

basis {

assign 6-31g_2dfp_

[ 6-31g_2dfp_ ]

spherical

!----------------------------------------------------------------------
! Basis Set Exchange
! Version v0.8.13
! https://www.basissetexchange.org
!----------------------------------------------------------------------
!   Basis set: 6-31G(2df,p)
! Description: 6-31G(2df,p)
!        Role: orbital
!     Version: 0  (Data from the original Basis Set Exchange)
!----------------------------------------------------------------------

****
H     0
S    3   1.00
     18.7311370              0.03349460
      2.8253937              0.23472695
      0.6401217              0.81375733
S    1   1.00
      0.1612778              1.00000000
P    1   1.00
      1.5000000              1.0000000
P    1   1.00
      0.3750000              1.0000000
****
B     0
S    6   1.00
   2068.8823000              0.0018663
    310.6495700              0.0142515
     70.6830330              0.0695516
     19.8610800              0.2325729
      6.2993048              0.4670787
      2.1270270              0.3634314
SP   3   1.00
      4.7279710             -0.1303938              0.0745976
      1.1903377             -0.1307889              0.3078467
      0.3594117              1.1309444              0.7434568
SP   1   1.00
      0.1267512              1.0000000              1.0000000
D    1   1.00
      0.8020000              1.0000000
D    1   1.00
      0.2005000              1.0000000
F    1   1.00
      0.5000000              1.0000000
****
C     0
S    6   1.00
   3047.5249000              0.0018347
    457.3695100              0.0140373
    103.9486900              0.0688426
     29.2101550              0.2321844
      9.2866630              0.4679413
      3.1639270              0.3623120
SP   3   1.00
      7.8682724             -0.1193324              0.0689991
      1.8812885             -0.1608542              0.3164240
      0.5442493              1.1434564              0.7443083
SP   1   1.00
      0.1687144              1.0000000              1.0000000
D    1   1.00
      1.2520000              1.0000000
D    1   1.00
      0.3130000              1.0000000
F    1   1.00
      0.8000000              1.0000000
****
N     0
S    6   1.00
   4173.5110000              0.0018348
    627.4579000              0.0139950
    142.9021000              0.0685870
     40.2343300              0.2322410
     12.8202100              0.4690700
      4.3904370              0.3604550
SP   3   1.00
     11.6263580             -0.1149610              0.0675800
      2.7162800             -0.1691180              0.3239070
      0.7722180              1.1458520              0.7408950
SP   1   1.00
      0.2120313              1.0000000              1.0000000
D    1   1.00
      1.8260000              1.0000000
D    1   1.00
      0.4565000              1.0000000
F    1   1.00
      1.0000000              1.0000000
****
O     0
S    6   1.00
   5484.6717000              0.0018311
    825.2349500              0.0139501
    188.0469600              0.0684451
     52.9645000              0.2327143
     16.8975700              0.4701930
      5.7996353              0.3585209
SP   3   1.00
     15.5396160             -0.1107775              0.0708743
      3.5999336             -0.1480263              0.3397528
      1.0137618              1.1307670              0.7271586
SP   1   1.00
      0.2700058              1.0000000              1.0000000
D    1   1.00
      2.5840000              1.0000000
D    1   1.00
      0.6460000              1.0000000
F    1   1.00
      1.4000000              1.0000000
****
F     0
S    6   1.00
   7001.7130900              0.0018196169
   1051.3660900              0.0139160796
    239.2856900              0.0684053245
     67.3974453              0.233185760
     21.5199573              0.471267439
      7.40310130             0.356618546
SP   3   1.00
     20.8479528             -0.108506975            0.0716287243
      4.80830834            -0.146451658            0.3459121030
      1.34406986             1.128688580            0.7224699570
SP   1   1.00
      0.358151393            1.0000000              1.0000000
D    1   1.00
      3.5000000              1.0000000
D    1   1.00
      0.8750000              1.0000000
F    1   1.00
      1.8500000              1.0000000
****
Al     0
S    6   1.00
  13983.1000000              0.00194267
   2098.7500000              0.0148599
    477.7050000              0.0728494
    134.3600000              0.2468300
     42.8709000              0.4872580
     14.5189000              0.3234960
SP   6   1.00
    239.6680000             -0.00292619             0.00460285
     57.4419000             -0.0374080              0.0331990
     18.2859000             -0.1144870              0.1362820
      6.5991400              0.1156350              0.3304760
      2.4904900              0.6125950              0.4491460
      0.9445400              0.3937990              0.2657040
SP   3   1.00
      1.2779000             -0.2276060             -0.0175130
      0.3975900              0.00144583             0.2445330
      0.1600950              1.0927900              0.8049340
SP   1   1.00
      0.0556577              1.0000000              1.0000000
D    1   1.00
      0.6500000              1.0000000
D    1   1.00
      0.1625000              1.0000000
F    1   1.00
      0.2500000              1.0000000
****
Si     0
S    6   1.00
  16115.9000000              0.00195948
   2425.5800000              0.01492880
    553.8670000              0.07284780
    156.3400000              0.24613000
     50.0683000              0.48591400
     17.0178000              0.32500200
SP   6   1.00
    292.7180000             -0.00278094             0.00443826
     69.8731000             -0.03571460             0.03266790
     22.3363000             -0.11498500             0.13472100
      8.1503900              0.09356340             0.32867800
      3.1345800              0.60301700             0.44964000
      1.2254300              0.41895900             0.26137200
SP   3   1.00
      1.7273800             -0.24463000            -0.01779510
      0.5729220              0.00431572             0.25353900
      0.2221920              1.09818000             0.80066900
SP   1   1.00
      0.0778369              1.00000000             1.00000000
D    1   1.00
      0.9000000              1.0000000
D    1   1.00
      0.2250000              1.0000000
F    1   1.00
      0.3200000              1.0000000
****
P     0
S    6   1.00
  19413.3000000              0.0018516
   2909.4200000              0.0142062
    661.3640000              0.0699995
    185.7590000              0.2400790
     59.1943000              0.4847620
     20.0310000              0.3352000
SP   6   1.00
    339.4780000             -0.00278217             0.00456462
     81.0101000             -0.0360499              0.03369360
     25.8780000             -0.1166310              0.13975500
      9.4522100              0.0968328              0.33936200
      3.6656600              0.6144180              0.45092100
      1.4674600              0.4037980              0.23858600
SP   3   1.00
      2.1562300             -0.2529230             -0.01776530
      0.7489970              0.0328517              0.27405800
      0.2831450              1.0812500              0.78542100
SP   1   1.00
      0.0998317              1.0000000              1.00000000
D    1   1.00
      1.1000000              1.0000000
D    1   1.00
      0.2750000              1.0000000
F    1   1.00
      0.4500000              1.0000000
****
S     0
S    6   1.00
  21917.1000000              0.0018690
   3301.4900000              0.0142300
    754.1460000              0.0696960
    212.7110000              0.2384870
     67.9896000              0.4833070
     23.0515000              0.3380740
SP   6   1.00
    423.7350000             -0.0023767              0.0040610
    100.7100000             -0.0316930              0.0306810
     32.1599000             -0.1133170              0.1304520
     11.8079000              0.0560900              0.3272050
      4.6311000              0.5922550              0.4528510
      1.8702500              0.4550060              0.2560420
SP   3   1.00
      2.6158400             -0.2503740             -0.0145110
      0.9221670              0.0669570              0.3102630
      0.3412870              1.0545100              0.7544830
SP   1   1.00
      0.1171670              1.0000000              1.0000000
D    1   1.00
      1.3000000              1.0000000
D    1   1.00
      0.3250000              1.0000000
F    1   1.00
      0.5500000              1.0000000
****
Cl     0
S    6   1.00
  25180.1000000              0.0018330
   3780.3500000              0.0140340
    860.4740000              0.0690970
    242.1450000              0.2374520
     77.3349000              0.4830340
     26.2470000              0.3398560
SP   6   1.00
    491.7650000             -0.0022974              0.0039894
    116.9840000             -0.0307140              0.0303180
     37.4153000             -0.1125280              0.1298800
     13.7834000              0.0450160              0.3279510
      5.4521500              0.5893530              0.4535270
      2.2258800              0.4652060              0.2521540
SP   3   1.00
      3.1864900             -0.2518300             -0.0142990
      1.1442700              0.0615890              0.3235720
      0.4203770              1.0601800              0.7435070
SP   1   1.00
      0.1426570              1.0000000              1.0000000
D    1   1.00
      1.5000000              1.0000000
D    1   1.00
      0.3750000              1.0000000
F    1   1.00
      0.7000000              1.0000000
****
}

set {
reference uhf
freeze_core true
e_convergence 10
d_convergence 10
dft_spherical_points 1202
dft_radial_points 99
}

e = energy('b3lyp')

print_out('Grab this energy {0}'.format(e))
--------------------------------------------------------------------------

    Molecular point group: c1

    Geometry (in Bohr), charge = 0, multiplicity = 2:

       Center              X                  Y                   Z               Mass
    ------------   -----------------  -----------------  -----------------  -----------------
         C           -0.323338591387     0.003977859766     0.000001449937    12.000000000000
         C            0.061212955513    -1.400563028034    -2.427315001863    12.000000000000
         C            0.060872561113     2.800452092866     0.000965793537    12.000000000000
         C            0.061214238913    -1.402236891234     2.426348332737    12.000000000000
         H            2.086817838813    -1.644112166434    -2.848567899163     1.007825032230
         H           -0.763797122887    -0.391411684534    -4.023455800163     1.007825032230
         H           -0.767235039987    -3.296105686534    -2.349323969463     1.007825032230
         H            2.087035944513     3.286137312466     0.002601168537     1.007825032230
         H           -0.763230387887     3.677550951566     1.675128030037     1.007825032230
         H           -0.767956282887     3.678565389566    -1.678652685163     1.007825032230
         H            2.086815931413    -1.648617936834     2.845964311937     1.007825032230
         H           -0.762510478887    -3.292543929834     2.350202984337     1.007825032230
         H           -0.768521974987    -0.388870777434     4.026097020437     1.007825032230

  Charge       = 0
  Multiplicity = 2
  Basis Set: ANONYMOUS9BBC5C87
    Blend: 6-31G_2DFP_
  Basis Set: (ANONYMOUS9BBC5C87 AUX)
    Blend: DEF2-UNIVERSAL-JKFIT

    Orbital Energies [Eh]
    ---------------------

    Alpha Occupied:

       1A    -10.180342     2A    -10.167047     3A    -10.167026
       4A    -10.166971     5A     -0.797769     6A     -0.686376
       7A     -0.685999     8A     -0.530777     9A     -0.441130
      10A     -0.434887    11A     -0.434452    12A     -0.382716
      13A     -0.382485    14A     -0.363608    15A     -0.338517
      16A     -0.337478    17A     -0.168960

    Alpha Virtual:

      18A      0.076071    19A      0.134129    20A      0.134160
      21A      0.142459    22A      0.142809    23A      0.154878
      24A      0.178774    25A      0.178788    26A      0.203542
      27A      0.214805    28A      0.275695    29A      0.276275
      30A      0.399106    31A      0.399351    32A      0.403344
      33A      0.424096    34A      0.424098    35A      0.456591
      36A      0.495342    37A      0.495437    38A      0.512159
      39A      0.513978    40A      0.578623    41A      0.579005
      42A      0.591637    43A      0.591646    44A      0.602572
      45A      0.624707    46A      0.631827    47A      0.636088
      48A      0.636408    49A      0.663347    50A      0.663479
      51A      0.683812    52A      0.683914    53A      0.734994
      54A      0.825297    55A      0.825515    56A      0.853915
      57A      0.914909    58A      0.915137    59A      0.944100
      60A      0.944645    61A      0.961107    62A      0.961472
      63A      1.003457    64A      1.127873    65A      1.128309
      66A      1.142261    67A      1.162887    68A      1.163648
      69A      1.223326    70A      1.274024    71A      1.274962
      72A      1.279347    73A      1.324247    74A      1.324438
      75A      1.355987    76A      1.365779    77A      1.366332
      78A      1.392455    79A      1.403994    80A      1.404100
      81A      1.416804    82A      1.417437    83A      1.427924
      84A      1.491454    85A      1.499102    86A      1.542823
      87A      1.542832    88A      1.574427    89A      1.574477
      90A      1.669833    91A      1.739211    92A      1.739614
      93A      1.768308    94A      1.831138    95A      1.831662
      96A      1.971703    97A      2.018299    98A      2.018522
      99A      2.019621   100A      2.052118   101A      2.053189
     102A      2.738245   103A      2.738723   104A      2.790924
     105A      2.811426   106A      2.889392   107A      2.890509
     108A      2.894935   109A      2.929109   110A      2.929880
     111A      2.958989   112A      2.964223   113A      2.964552
     114A      3.033988   115A      3.070780   116A      3.071812
     117A      3.084368   118A      3.168653   119A      3.168857
     120A      3.180661   121A      3.285004   122A      3.285603
     123A      3.326780   124A      3.327555   125A      3.375603
     126A      3.489610   127A      3.490697   128A      3.514013
     129A      3.525346   130A      3.568164   131A      3.568615
     132A      3.575139   133A      3.666067   134A      3.666690
     135A      3.679678   136A      3.694086   137A      3.694139
     138A      3.776086   139A      3.777495   140A      3.789171
     141A      3.911767   142A      3.912693   143A      4.034426
     144A      4.110986   145A      4.111615   146A      4.147185
     147A      4.149149   148A      4.173134   149A      4.202330
     150A      4.202645   151A      4.203816   152A      4.211036
     153A      4.315405   154A      4.316523   155A      4.358974
     156A      4.424385   157A      4.424522   158A      4.443452
     159A      4.516721   160A      4.516969   161A      4.577839
     162A      4.578413   163A      4.617833   164A      4.709467
     165A      4.774046   166A      4.775187   167A      4.836888
     168A      4.962838   169A      5.002743   170A      5.003224
     171A      5.228027   172A      5.246712   173A      5.246777
     174A      5.355035   175A      5.356145   176A      5.479380

    Beta Occupied:

       1A    -10.167798     2A    -10.167784     3A    -10.167741
       4A    -10.166519     5A     -0.781094     6A     -0.684167
       7A     -0.683814     8A     -0.511749     9A     -0.431254
      10A     -0.430836    11A     -0.421818    12A     -0.376760
      13A     -0.376612    14A     -0.362591    15A     -0.333650
      16A     -0.332591

    Beta Virtual:

      17A     -0.025743    18A      0.077080    19A      0.135029
      20A      0.135040    21A      0.144340    22A      0.144670
      23A      0.163338    24A      0.182433    25A      0.182470
      26A      0.215027    27A      0.218932    28A      0.282077
      29A      0.282588    30A      0.400279    31A      0.400518
      32A      0.419791    33A      0.426897    34A      0.426919
      35A      0.468498    36A      0.497600    37A      0.497701
      38A      0.513896    39A      0.556320    40A      0.584150
      41A      0.584580    42A      0.597812    43A      0.597829
      44A      0.609995    45A      0.628052    46A      0.632014
      47A      0.639360    48A      0.639710    49A      0.666917
      50A      0.667038    51A      0.686445    52A      0.686550
      53A      0.757517    54A      0.830470    55A      0.830680
      56A      0.855268    57A      0.922853    58A      0.923134
      59A      0.945959    60A      0.953551    61A      0.966405
      62A      0.966786    63A      1.008697    64A      1.131926
      65A      1.132333    66A      1.155621    67A      1.167965
      68A      1.168714    69A      1.232298    70A      1.279675
      71A      1.280506    72A      1.285099    73A      1.329247
      74A      1.329415    75A      1.365401    76A      1.371072
      77A      1.371529    78A      1.393515    79A      1.407402
      80A      1.407620    81A      1.421861    82A      1.422478
      83A      1.428196    84A      1.492515    85A      1.509533
      86A      1.547228    87A      1.547245    88A      1.582317
      89A      1.582327    90A      1.674679    91A      1.744968
      92A      1.745379    93A      1.779089    94A      1.834979
      95A      1.835532    96A      1.972576    97A      2.024889
      98A      2.026010    99A      2.039704   100A      2.058846
     101A      2.059896   102A      2.746550   103A      2.747090
     104A      2.811834   105A      2.816064   106A      2.902166
     107A      2.903108   108A      2.924642   109A      2.931536
     110A      2.932417   111A      2.960055   112A      2.968770
     113A      2.969092   114A      3.041919   115A      3.080768
     116A      3.081644   117A      3.086188   118A      3.184377
     119A      3.184520   120A      3.188456   121A      3.289843
     122A      3.290360   123A      3.330584   124A      3.331362
     125A      3.383422   126A      3.492327   127A      3.493435
     128A      3.512386   129A      3.528387   130A      3.574995
     131A      3.581552   132A      3.581918   133A      3.670887
     134A      3.671359   135A      3.692970   136A      3.725596
     137A      3.725898   138A      3.780620   139A      3.782039
     140A      3.817683   141A      3.921586   142A      3.922514
     143A      4.045314   144A      4.117841   145A      4.118383
     146A      4.154427   147A      4.156341   148A      4.187147
     149A      4.208584   150A      4.209181   151A      4.210834
     152A      4.215585   153A      4.322782   154A      4.324030
     155A      4.362337   156A      4.432597   157A      4.432733
     158A      4.446340   159A      4.524465   160A      4.524805
     161A      4.588420   162A      4.589011   163A      4.625048
     164A      4.719814   165A      4.780962   166A      4.782177
     167A      4.839805   168A      4.967631   169A      5.006800
     170A      5.007248   171A      5.233743   172A      5.248506
     173A      5.248561   174A      5.361485   175A      5.362648
     176A      5.481702

    Final Occupation by Irrep:
              A
    DOCC [    16 ]
    SOCC [     1 ]

  @DF-UKS Final Energy:  -157.81305283444752

   => Energetics <=

    Nuclear Repulsion Energy =            125.3947207772166195
    One-Electron Energy =                -458.7490564378314275
    Two-Electron Energy =                 195.8484320555577369
    DFT Exchange-Correlation Energy =     -20.3071492293904328
    Empirical Dispersion Energy =           0.0000000000000000
    VV10 Nonlocal Energy =                  0.0000000000000000
    Total Energy =                       -157.8130528344475181

  UHF NO Occupations:
  HONO-2 :   15  A 1.9996009
  HONO-1 :   16  A 1.9989805
  HONO-0 :   17  A 1.0000000
  LUNO+0 :   18  A 0.0010195
  LUNO+1 :   19  A 0.0003991
  LUNO+2 :   20  A 0.0001986
  LUNO+3 :   21  A 0.0001965

Computation Completed

Properties will be evaluated at   0.000000,   0.000000,   0.000000 [a0]

Properties computed using the SCF density matrix

  Nuclear Dipole Moment: [e a0]
     X:     0.8272      Y:    -0.0096      Z:    -0.0000

  Electronic Dipole Moment: [e a0]
     X:    -0.7493      Y:     0.0109      Z:     0.0000

  Dipole Moment: [e a0]
     X:     0.0779      Y:     0.0012      Z:    -0.0000     Total:     0.0779

  Dipole Moment: [D]
     X:     0.1980      Y:     0.0031      Z:    -0.0000     Total:     0.1981

*** tstop() called on n080 at Fri Nov  5 13:44:25 2021
Module time:
	user time   =     565.38 seconds =       9.42 minutes
	system time =       5.21 seconds =       0.09 minutes
	total time  =        143 seconds =       2.38 minutes
Total time:
	user time   =     565.38 seconds =       9.42 minutes
	system time =       5.21 seconds =       0.09 minutes
	total time  =        143 seconds =       2.38 minutes
Grab this energy -157.81305283444752
    Psi4 stopped on: Friday, 05 November 2021 01:44PM
    Psi4 wall time for execution: 0:02:23.41

*** Psi4 exiting successfully. Buy a developer a beer!
