                               Psi4 1.4a2.dev629

  ==> Input File <==

--------------------------------------------------------------------------
import os
memory 14 GB

molecule {
 C   -0.3233341766    0.0000047860   -0.0054965062
 C    0.0594262346   -1.4068678548   -2.4309229648
 C    0.0610211625    2.8017442623    0.0058447355
 C    0.0628550913   -1.3948683665    2.4218288599
 H    2.0898350989   -1.6525904525   -2.8511925321
 H   -0.7659979603   -0.3998592241   -4.0308257011
 H   -0.7701138981   -3.2956780025   -2.3507172479
 H    2.0867964042    3.2880753663    0.0109586293
 H   -0.7696045895    3.6731016389    1.6862256743
 H   -0.7616945991    3.6873533768   -1.6667367077
 H    2.0840400195   -1.6355919893    2.8436692005
 H   -0.7610215055   -3.2882933935    2.3472605505
 H   -0.7648151586   -0.3765544607    4.0201040099
units bohr
0 2
}

basis {

assign 6-31g_2dfp_

[ 6-31g_2dfp_ ]

spherical

!----------------------------------------------------------------------
! Basis Set Exchange
! Version v0.8.13
! https://www.basissetexchange.org
!----------------------------------------------------------------------
!   Basis set: 6-31G(2df,p)
! Description: 6-31G(2df,p)
!        Role: orbital
!     Version: 0  (Data from the original Basis Set Exchange)
!----------------------------------------------------------------------

****
H     0
S    3   1.00
     18.7311370              0.03349460
      2.8253937              0.23472695
      0.6401217              0.81375733
S    1   1.00
      0.1612778              1.00000000
P    1   1.00
      1.5000000              1.0000000
P    1   1.00
      0.3750000              1.0000000
****
B     0
S    6   1.00
   2068.8823000              0.0018663
    310.6495700              0.0142515
     70.6830330              0.0695516
     19.8610800              0.2325729
      6.2993048              0.4670787
      2.1270270              0.3634314
SP   3   1.00
      4.7279710             -0.1303938              0.0745976
      1.1903377             -0.1307889              0.3078467
      0.3594117              1.1309444              0.7434568
SP   1   1.00
      0.1267512              1.0000000              1.0000000
D    1   1.00
      0.8020000              1.0000000
D    1   1.00
      0.2005000              1.0000000
F    1   1.00
      0.5000000              1.0000000
****
C     0
S    6   1.00
   3047.5249000              0.0018347
    457.3695100              0.0140373
    103.9486900              0.0688426
     29.2101550              0.2321844
      9.2866630              0.4679413
      3.1639270              0.3623120
SP   3   1.00
      7.8682724             -0.1193324              0.0689991
      1.8812885             -0.1608542              0.3164240
      0.5442493              1.1434564              0.7443083
SP   1   1.00
      0.1687144              1.0000000              1.0000000
D    1   1.00
      1.2520000              1.0000000
D    1   1.00
      0.3130000              1.0000000
F    1   1.00
      0.8000000              1.0000000
****
N     0
S    6   1.00
   4173.5110000              0.0018348
    627.4579000              0.0139950
    142.9021000              0.0685870
     40.2343300              0.2322410
     12.8202100              0.4690700
      4.3904370              0.3604550
SP   3   1.00
     11.6263580             -0.1149610              0.0675800
      2.7162800             -0.1691180              0.3239070
      0.7722180              1.1458520              0.7408950
SP   1   1.00
      0.2120313              1.0000000              1.0000000
D    1   1.00
      1.8260000              1.0000000
D    1   1.00
      0.4565000              1.0000000
F    1   1.00
      1.0000000              1.0000000
****
O     0
S    6   1.00
   5484.6717000              0.0018311
    825.2349500              0.0139501
    188.0469600              0.0684451
     52.9645000              0.2327143
     16.8975700              0.4701930
      5.7996353              0.3585209
SP   3   1.00
     15.5396160             -0.1107775              0.0708743
      3.5999336             -0.1480263              0.3397528
      1.0137618              1.1307670              0.7271586
SP   1   1.00
      0.2700058              1.0000000              1.0000000
D    1   1.00
      2.5840000              1.0000000
D    1   1.00
      0.6460000              1.0000000
F    1   1.00
      1.4000000              1.0000000
****
F     0
S    6   1.00
   7001.7130900              0.0018196169
   1051.3660900              0.0139160796
    239.2856900              0.0684053245
     67.3974453              0.233185760
     21.5199573              0.471267439
      7.40310130             0.356618546
SP   3   1.00
     20.8479528             -0.108506975            0.0716287243
      4.80830834            -0.146451658            0.3459121030
      1.34406986             1.128688580            0.7224699570
SP   1   1.00
      0.358151393            1.0000000              1.0000000
D    1   1.00
      3.5000000              1.0000000
D    1   1.00
      0.8750000              1.0000000
F    1   1.00
      1.8500000              1.0000000
****
Al     0
S    6   1.00
  13983.1000000              0.00194267
   2098.7500000              0.0148599
    477.7050000              0.0728494
    134.3600000              0.2468300
     42.8709000              0.4872580
     14.5189000              0.3234960
SP   6   1.00
    239.6680000             -0.00292619             0.00460285
     57.4419000             -0.0374080              0.0331990
     18.2859000             -0.1144870              0.1362820
      6.5991400              0.1156350              0.3304760
      2.4904900              0.6125950              0.4491460
      0.9445400              0.3937990              0.2657040
SP   3   1.00
      1.2779000             -0.2276060             -0.0175130
      0.3975900              0.00144583             0.2445330
      0.1600950              1.0927900              0.8049340
SP   1   1.00
      0.0556577              1.0000000              1.0000000
D    1   1.00
      0.6500000              1.0000000
D    1   1.00
      0.1625000              1.0000000
F    1   1.00
      0.2500000              1.0000000
****
Si     0
S    6   1.00
  16115.9000000              0.00195948
   2425.5800000              0.01492880
    553.8670000              0.07284780
    156.3400000              0.24613000
     50.0683000              0.48591400
     17.0178000              0.32500200
SP   6   1.00
    292.7180000             -0.00278094             0.00443826
     69.8731000             -0.03571460             0.03266790
     22.3363000             -0.11498500             0.13472100
      8.1503900              0.09356340             0.32867800
      3.1345800              0.60301700             0.44964000
      1.2254300              0.41895900             0.26137200
SP   3   1.00
      1.7273800             -0.24463000            -0.01779510
      0.5729220              0.00431572             0.25353900
      0.2221920              1.09818000             0.80066900
SP   1   1.00
      0.0778369              1.00000000             1.00000000
D    1   1.00
      0.9000000              1.0000000
D    1   1.00
      0.2250000              1.0000000
F    1   1.00
      0.3200000              1.0000000
****
P     0
S    6   1.00
  19413.3000000              0.0018516
   2909.4200000              0.0142062
    661.3640000              0.0699995
    185.7590000              0.2400790
     59.1943000              0.4847620
     20.0310000              0.3352000
SP   6   1.00
    339.4780000             -0.00278217             0.00456462
     81.0101000             -0.0360499              0.03369360
     25.8780000             -0.1166310              0.13975500
      9.4522100              0.0968328              0.33936200
      3.6656600              0.6144180              0.45092100
      1.4674600              0.4037980              0.23858600
SP   3   1.00
      2.1562300             -0.2529230             -0.01776530
      0.7489970              0.0328517              0.27405800
      0.2831450              1.0812500              0.78542100
SP   1   1.00
      0.0998317              1.0000000              1.00000000
D    1   1.00
      1.1000000              1.0000000
D    1   1.00
      0.2750000              1.0000000
F    1   1.00
      0.4500000              1.0000000
****
S     0
S    6   1.00
  21917.1000000              0.0018690
   3301.4900000              0.0142300
    754.1460000              0.0696960
    212.7110000              0.2384870
     67.9896000              0.4833070
     23.0515000              0.3380740
SP   6   1.00
    423.7350000             -0.0023767              0.0040610
    100.7100000             -0.0316930              0.0306810
     32.1599000             -0.1133170              0.1304520
     11.8079000              0.0560900              0.3272050
      4.6311000              0.5922550              0.4528510
      1.8702500              0.4550060              0.2560420
SP   3   1.00
      2.6158400             -0.2503740             -0.0145110
      0.9221670              0.0669570              0.3102630
      0.3412870              1.0545100              0.7544830
SP   1   1.00
      0.1171670              1.0000000              1.0000000
D    1   1.00
      1.3000000              1.0000000
D    1   1.00
      0.3250000              1.0000000
F    1   1.00
      0.5500000              1.0000000
****
Cl     0
S    6   1.00
  25180.1000000              0.0018330
   3780.3500000              0.0140340
    860.4740000              0.0690970
    242.1450000              0.2374520
     77.3349000              0.4830340
     26.2470000              0.3398560
SP   6   1.00
    491.7650000             -0.0022974              0.0039894
    116.9840000             -0.0307140              0.0303180
     37.4153000             -0.1125280              0.1298800
     13.7834000              0.0450160              0.3279510
      5.4521500              0.5893530              0.4535270
      2.2258800              0.4652060              0.2521540
SP   3   1.00
      3.1864900             -0.2518300             -0.0142990
      1.1442700              0.0615890              0.3235720
      0.4203770              1.0601800              0.7435070
SP   1   1.00
      0.1426570              1.0000000              1.0000000
D    1   1.00
      1.5000000              1.0000000
D    1   1.00
      0.3750000              1.0000000
F    1   1.00
      0.7000000              1.0000000
****
}

set {
reference uhf
freeze_core true
e_convergence 10
d_convergence 10
dft_spherical_points 1202
dft_radial_points 99
}

e = energy('b3lyp')

print_out('Grab this energy {0}'.format(e))
--------------------------------------------------------------------------

    Molecular point group: c1

    Geometry (in Bohr), charge = 0, multiplicity = 2:

       Center              X                  Y                   Z               Mass
    ------------   -----------------  -----------------  -----------------  -----------------
         C           -0.323335774593     0.000002744789    -0.003811987568    12.000000000000
         C            0.059424636607    -1.406869896011    -2.429238446168    12.000000000000
         C            0.061019564507     2.801742221089     0.007529254132    12.000000000000
         C            0.062853493307    -1.394870407711     2.423513378532    12.000000000000
         H            2.089833500907    -1.652592493711    -2.849508013468     1.007825032230
         H           -0.765999558293    -0.399861265311    -4.029141182468     1.007825032230
         H           -0.770115496093    -3.295680043711    -2.349032729268     1.007825032230
         H            2.086794806207     3.288073325089     0.012643147932     1.007825032230
         H           -0.769606187493     3.673099597689     1.687910192932     1.007825032230
         H           -0.761696197093     3.687351335589    -1.665052189068     1.007825032230
         H            2.084038421507    -1.635594030511     2.845353719132     1.007825032230
         H           -0.761023103493    -3.288295434711     2.348945069132     1.007825032230
         H           -0.764816756593    -0.376556501911     4.021788528532     1.007825032230

  Charge       = 0
  Multiplicity = 2
  Basis Set: ANONYMOUS6920A9E4
    Blend: 6-31G_2DFP_
  Basis Set: (ANONYMOUS6920A9E4 AUX)
    Blend: DEF2-UNIVERSAL-JKFIT

    Orbital Energies [Eh]
    ---------------------

    Alpha Occupied:

       1A    -10.180342     2A    -10.167309     3A    -10.167015
       4A    -10.166721     5A     -0.797769     6A     -0.686407
       7A     -0.685967     8A     -0.530778     9A     -0.441131
      10A     -0.434912    11A     -0.434426    12A     -0.382719
      13A     -0.382476    14A     -0.363609    15A     -0.338304
      16A     -0.337692    17A     -0.168961

    Alpha Virtual:

      18A      0.076070    19A      0.133748    20A      0.134561
      21A      0.142428    22A      0.142827    23A      0.154878
      24A      0.178472    25A      0.179089    26A      0.203546
      27A      0.214805    28A      0.275892    29A      0.276079
      30A      0.399081    31A      0.399303    32A      0.403425
      33A      0.423881    34A      0.424320    35A      0.456592
      36A      0.495130    37A      0.495642    38A      0.512175
      39A      0.513982    40A      0.578375    41A      0.579222
      42A      0.591469    43A      0.591812    44A      0.602580
      45A      0.624767    46A      0.631773    47A      0.636134
      48A      0.636366    49A      0.662829    50A      0.664009
      51A      0.683787    52A      0.683924    53A      0.734994
      54A      0.824596    55A      0.826200    56A      0.853907
      57A      0.914572    58A      0.915486    59A      0.944070
      60A      0.944484    61A      0.961277    62A      0.961542
      63A      1.003468    64A      1.126900    65A      1.129325
      66A      1.142222    67A      1.162661    68A      1.163883
      69A      1.223335    70A      1.273799    71A      1.275128
      72A      1.279422    73A      1.324306    74A      1.324388
      75A      1.355939    76A      1.365279    77A      1.366778
      78A      1.392404    79A      1.402854    80A      1.405379
      81A      1.417091    82A      1.417165    83A      1.427940
      84A      1.491430    85A      1.499046    86A      1.542034
      87A      1.543670    88A      1.572784    89A      1.576208
      90A      1.669819    91A      1.738143    92A      1.740558
      93A      1.768456    94A      1.831104    95A      1.831689
      96A      1.971745    97A      2.017121    98A      2.018312
      99A      2.020908   100A      2.049198   101A      2.056190
     102A      2.737810   103A      2.739160   104A      2.790925
     105A      2.811438   106A      2.889843   107A      2.890059
     108A      2.894942   109A      2.929311   110A      2.929682
     111A      2.958992   112A      2.963165   113A      2.965616
     114A      3.033998   115A      3.070273   116A      3.072303
     117A      3.084367   118A      3.168234   119A      3.169341
     120A      3.180587   121A      3.284286   122A      3.286352
     123A      3.326410   124A      3.327898   125A      3.375697
     126A      3.489802   127A      3.490451   128A      3.514038
     129A      3.525255   130A      3.567276   131A      3.569297
     132A      3.575483   133A      3.665546   134A      3.667208
     135A      3.679666   136A      3.693518   137A      3.694715
     138A      3.775885   139A      3.777555   140A      3.789360
     141A      3.910909   142A      3.913547   143A      4.034457
     144A      4.109546   145A      4.113179   146A      4.146989
     147A      4.149144   148A      4.173237   149A      4.201649
     150A      4.202894   151A      4.204345   152A      4.210898
     153A      4.315136   154A      4.316800   155A      4.359008
     156A      4.424215   157A      4.424612   158A      4.443548
     159A      4.515309   160A      4.518369   161A      4.577319
     162A      4.579221   163A      4.617557   164A      4.709476
     165A      4.772835   166A      4.776358   167A      4.836923
     168A      4.962862   169A      5.001229   170A      5.004692
     171A      5.227970   172A      5.244906   173A      5.248726
     174A      5.353623   175A      5.357462   176A      5.479346

    Beta Occupied:

       1A    -10.168067     2A    -10.167775     3A    -10.167483
       4A    -10.166518     5A     -0.781094     6A     -0.684218
       7A     -0.683761     8A     -0.511749     9A     -0.431303
      10A     -0.430788    11A     -0.421818    12A     -0.376792
      13A     -0.376573    14A     -0.362593    15A     -0.333423
      16A     -0.332818

    Beta Virtual:

      17A     -0.025744    18A      0.077079    19A      0.134639
      20A      0.135452    21A      0.144330    22A      0.144666
      23A      0.163337    24A      0.182115    25A      0.182789
      26A      0.215035    27A      0.218928    28A      0.282231
      29A      0.282436    30A      0.400310    31A      0.400478
      32A      0.419805    33A      0.426676    34A      0.427146
      35A      0.468502    36A      0.497395    37A      0.497899
      38A      0.513911    39A      0.556327    40A      0.583971
      41A      0.584729    42A      0.597614    43A      0.598029
      44A      0.609989    45A      0.628153    46A      0.631931
      47A      0.639402    48A      0.639666    49A      0.666397
      50A      0.667565    51A      0.686354    52A      0.686630
      53A      0.757517    54A      0.829756    55A      0.831377
      56A      0.855261    57A      0.922544    58A      0.923455
      59A      0.945922    60A      0.953398    61A      0.966559
      62A      0.966875    63A      1.008706    64A      1.130996
      65A      1.133287    66A      1.155599    67A      1.167665
      68A      1.169025    69A      1.232306    70A      1.279379
      71A      1.280739    72A      1.285179    73A      1.329279
      74A      1.329397    75A      1.365345    76A      1.370467
      77A      1.372075    78A      1.393470    79A      1.406308
      80A      1.408857    81A      1.422124    82A      1.422231
      83A      1.428211    84A      1.492480    85A      1.509491
      86A      1.546354    87A      1.548167    88A      1.580786
      89A      1.583945    90A      1.674666    91A      1.743918
      92A      1.746325    93A      1.779218    94A      1.834970
      95A      1.835535    96A      1.972605    97A      2.023455
      98A      2.027385    99A      2.039676   100A      2.056047
     101A      2.062772   102A      2.746110   103A      2.747532
     104A      2.811850   105A      2.816060   106A      2.902518
     107A      2.902766   108A      2.924641   109A      2.931852
     110A      2.932103   111A      2.960059   112A      2.967726
     113A      2.970142   114A      3.041935   115A      3.079967
     116A      3.082390   117A      3.086233   118A      3.184178
     119A      3.184839   120A      3.188313   121A      3.289142
     122A      3.291095   123A      3.330233   124A      3.331690
     125A      3.383508   126A      3.492496   127A      3.493209
     128A      3.512423   129A      3.528308   130A      3.574672
     131A      3.580991   132A      3.582925   133A      3.670224
     134A      3.672035   135A      3.692951   136A      3.725181
     137A      3.726307   138A      3.780517   139A      3.782094
     140A      3.817785   141A      3.920747   142A      3.923341
     143A      4.045344   144A      4.116388   145A      4.119966
     146A      4.154205   147A      4.156356   148A      4.187290
     149A      4.207983   150A      4.209582   151A      4.211167
     152A      4.215376   153A      4.322594   154A      4.324221
     155A      4.362373   156A      4.432369   157A      4.432831
     158A      4.446488   159A      4.523192   160A      4.526058
     161A      4.587853   162A      4.589891   163A      4.624751
     164A      4.719821   165A      4.779750   166A      4.783347
     167A      4.839841   168A      4.967657   169A      5.005288
     170A      5.008712   171A      5.233686   172A      5.246706
     173A      5.250494   174A      5.360076   175A      5.363970
     176A      5.481667

    Final Occupation by Irrep:
              A
    DOCC [    16 ]
    SOCC [     1 ]

  @DF-UKS Final Energy:  -157.81305444573104

   => Energetics <=

    Nuclear Repulsion Energy =            125.3948859003299958
    One-Electron Energy =                -458.7493960304972802
    Two-Electron Energy =                 195.8486040405800850
    DFT Exchange-Correlation Energy =     -20.3071483561438377
    Empirical Dispersion Energy =           0.0000000000000000
    VV10 Nonlocal Energy =                  0.0000000000000000
    Total Energy =                       -157.8130544457310407

  UHF NO Occupations:
  HONO-2 :   15  A 1.9996009
  HONO-1 :   16  A 1.9989804
  HONO-0 :   17  A 1.0000000
  LUNO+0 :   18  A 0.0010196
  LUNO+1 :   19  A 0.0003991
  LUNO+2 :   20  A 0.0001979
  LUNO+3 :   21  A 0.0001972

Computation Completed

Properties will be evaluated at   0.000000,   0.000000,   0.000000 [a0]

Properties computed using the SCF density matrix

  Nuclear Dipole Moment: [e a0]
     X:     0.8272      Y:    -0.0000      Z:     0.0119

  Electronic Dipole Moment: [e a0]
     X:    -0.7493      Y:     0.0000      Z:    -0.0133

  Dipole Moment: [e a0]
     X:     0.0779      Y:    -0.0000      Z:    -0.0014     Total:     0.0779

  Dipole Moment: [D]
     X:     0.1980      Y:    -0.0000      Z:    -0.0035     Total:     0.1981

*** tstop() called on n073 at Fri Nov  5 14:11:59 2021
Module time:
	user time   =     569.14 seconds =       9.49 minutes
	system time =      13.02 seconds =       0.22 minutes
	total time  =        147 seconds =       2.45 minutes
Total time:
	user time   =     569.14 seconds =       9.49 minutes
	system time =      13.02 seconds =       0.22 minutes
	total time  =        147 seconds =       2.45 minutes
Grab this energy -157.81305444573104
    Psi4 stopped on: Friday, 05 November 2021 02:11PM
    Psi4 wall time for execution: 0:02:26.39

*** Psi4 exiting successfully. Buy a developer a beer!
