                               Psi4 1.4a2.dev629

  ==> Input File <==

--------------------------------------------------------------------------
import os
memory 14 GB

molecule {
 C   -0.3233411065    0.0004960646    0.0002248638
 C    0.0619734513   -1.4017558177   -2.4280860860
 C    0.0596426859    2.8018572457    0.0004833071
 C    0.0616824088   -1.3993730879    2.4249240017
 H    2.0849454616   -1.6437069680   -2.8472679664
 H   -0.7634922649   -0.3864365852   -4.0253512739
 H   -0.7657933661   -3.2935592910   -2.3478687142
 H    2.0909218943    3.2876089307   -0.0001868139
 H   -0.7676151010    3.6803138427    1.6732822585
 H   -0.7674948386    3.6802917929   -1.6734656487
 H    2.0848022627   -1.6444567120    2.8481971127
 H   -0.7655080140   -3.2939767346    2.3489406661
 H   -0.7633313503   -0.3873269937    4.0261742932
units bohr
0 2
}

basis {

assign 6-31g_2dfp_

[ 6-31g_2dfp_ ]

spherical

!----------------------------------------------------------------------
! Basis Set Exchange
! Version v0.8.13
! https://www.basissetexchange.org
!----------------------------------------------------------------------
!   Basis set: 6-31G(2df,p)
! Description: 6-31G(2df,p)
!        Role: orbital
!     Version: 0  (Data from the original Basis Set Exchange)
!----------------------------------------------------------------------

****
H     0
S    3   1.00
     18.7311370              0.03349460
      2.8253937              0.23472695
      0.6401217              0.81375733
S    1   1.00
      0.1612778              1.00000000
P    1   1.00
      1.5000000              1.0000000
P    1   1.00
      0.3750000              1.0000000
****
B     0
S    6   1.00
   2068.8823000              0.0018663
    310.6495700              0.0142515
     70.6830330              0.0695516
     19.8610800              0.2325729
      6.2993048              0.4670787
      2.1270270              0.3634314
SP   3   1.00
      4.7279710             -0.1303938              0.0745976
      1.1903377             -0.1307889              0.3078467
      0.3594117              1.1309444              0.7434568
SP   1   1.00
      0.1267512              1.0000000              1.0000000
D    1   1.00
      0.8020000              1.0000000
D    1   1.00
      0.2005000              1.0000000
F    1   1.00
      0.5000000              1.0000000
****
C     0
S    6   1.00
   3047.5249000              0.0018347
    457.3695100              0.0140373
    103.9486900              0.0688426
     29.2101550              0.2321844
      9.2866630              0.4679413
      3.1639270              0.3623120
SP   3   1.00
      7.8682724             -0.1193324              0.0689991
      1.8812885             -0.1608542              0.3164240
      0.5442493              1.1434564              0.7443083
SP   1   1.00
      0.1687144              1.0000000              1.0000000
D    1   1.00
      1.2520000              1.0000000
D    1   1.00
      0.3130000              1.0000000
F    1   1.00
      0.8000000              1.0000000
****
N     0
S    6   1.00
   4173.5110000              0.0018348
    627.4579000              0.0139950
    142.9021000              0.0685870
     40.2343300              0.2322410
     12.8202100              0.4690700
      4.3904370              0.3604550
SP   3   1.00
     11.6263580             -0.1149610              0.0675800
      2.7162800             -0.1691180              0.3239070
      0.7722180              1.1458520              0.7408950
SP   1   1.00
      0.2120313              1.0000000              1.0000000
D    1   1.00
      1.8260000              1.0000000
D    1   1.00
      0.4565000              1.0000000
F    1   1.00
      1.0000000              1.0000000
****
O     0
S    6   1.00
   5484.6717000              0.0018311
    825.2349500              0.0139501
    188.0469600              0.0684451
     52.9645000              0.2327143
     16.8975700              0.4701930
      5.7996353              0.3585209
SP   3   1.00
     15.5396160             -0.1107775              0.0708743
      3.5999336             -0.1480263              0.3397528
      1.0137618              1.1307670              0.7271586
SP   1   1.00
      0.2700058              1.0000000              1.0000000
D    1   1.00
      2.5840000              1.0000000
D    1   1.00
      0.6460000              1.0000000
F    1   1.00
      1.4000000              1.0000000
****
F     0
S    6   1.00
   7001.7130900              0.0018196169
   1051.3660900              0.0139160796
    239.2856900              0.0684053245
     67.3974453              0.233185760
     21.5199573              0.471267439
      7.40310130             0.356618546
SP   3   1.00
     20.8479528             -0.108506975            0.0716287243
      4.80830834            -0.146451658            0.3459121030
      1.34406986             1.128688580            0.7224699570
SP   1   1.00
      0.358151393            1.0000000              1.0000000
D    1   1.00
      3.5000000              1.0000000
D    1   1.00
      0.8750000              1.0000000
F    1   1.00
      1.8500000              1.0000000
****
Al     0
S    6   1.00
  13983.1000000              0.00194267
   2098.7500000              0.0148599
    477.7050000              0.0728494
    134.3600000              0.2468300
     42.8709000              0.4872580
     14.5189000              0.3234960
SP   6   1.00
    239.6680000             -0.00292619             0.00460285
     57.4419000             -0.0374080              0.0331990
     18.2859000             -0.1144870              0.1362820
      6.5991400              0.1156350              0.3304760
      2.4904900              0.6125950              0.4491460
      0.9445400              0.3937990              0.2657040
SP   3   1.00
      1.2779000             -0.2276060             -0.0175130
      0.3975900              0.00144583             0.2445330
      0.1600950              1.0927900              0.8049340
SP   1   1.00
      0.0556577              1.0000000              1.0000000
D    1   1.00
      0.6500000              1.0000000
D    1   1.00
      0.1625000              1.0000000
F    1   1.00
      0.2500000              1.0000000
****
Si     0
S    6   1.00
  16115.9000000              0.00195948
   2425.5800000              0.01492880
    553.8670000              0.07284780
    156.3400000              0.24613000
     50.0683000              0.48591400
     17.0178000              0.32500200
SP   6   1.00
    292.7180000             -0.00278094             0.00443826
     69.8731000             -0.03571460             0.03266790
     22.3363000             -0.11498500             0.13472100
      8.1503900              0.09356340             0.32867800
      3.1345800              0.60301700             0.44964000
      1.2254300              0.41895900             0.26137200
SP   3   1.00
      1.7273800             -0.24463000            -0.01779510
      0.5729220              0.00431572             0.25353900
      0.2221920              1.09818000             0.80066900
SP   1   1.00
      0.0778369              1.00000000             1.00000000
D    1   1.00
      0.9000000              1.0000000
D    1   1.00
      0.2250000              1.0000000
F    1   1.00
      0.3200000              1.0000000
****
P     0
S    6   1.00
  19413.3000000              0.0018516
   2909.4200000              0.0142062
    661.3640000              0.0699995
    185.7590000              0.2400790
     59.1943000              0.4847620
     20.0310000              0.3352000
SP   6   1.00
    339.4780000             -0.00278217             0.00456462
     81.0101000             -0.0360499              0.03369360
     25.8780000             -0.1166310              0.13975500
      9.4522100              0.0968328              0.33936200
      3.6656600              0.6144180              0.45092100
      1.4674600              0.4037980              0.23858600
SP   3   1.00
      2.1562300             -0.2529230             -0.01776530
      0.7489970              0.0328517              0.27405800
      0.2831450              1.0812500              0.78542100
SP   1   1.00
      0.0998317              1.0000000              1.00000000
D    1   1.00
      1.1000000              1.0000000
D    1   1.00
      0.2750000              1.0000000
F    1   1.00
      0.4500000              1.0000000
****
S     0
S    6   1.00
  21917.1000000              0.0018690
   3301.4900000              0.0142300
    754.1460000              0.0696960
    212.7110000              0.2384870
     67.9896000              0.4833070
     23.0515000              0.3380740
SP   6   1.00
    423.7350000             -0.0023767              0.0040610
    100.7100000             -0.0316930              0.0306810
     32.1599000             -0.1133170              0.1304520
     11.8079000              0.0560900              0.3272050
      4.6311000              0.5922550              0.4528510
      1.8702500              0.4550060              0.2560420
SP   3   1.00
      2.6158400             -0.2503740             -0.0145110
      0.9221670              0.0669570              0.3102630
      0.3412870              1.0545100              0.7544830
SP   1   1.00
      0.1171670              1.0000000              1.0000000
D    1   1.00
      1.3000000              1.0000000
D    1   1.00
      0.3250000              1.0000000
F    1   1.00
      0.5500000              1.0000000
****
Cl     0
S    6   1.00
  25180.1000000              0.0018330
   3780.3500000              0.0140340
    860.4740000              0.0690970
    242.1450000              0.2374520
     77.3349000              0.4830340
     26.2470000              0.3398560
SP   6   1.00
    491.7650000             -0.0022974              0.0039894
    116.9840000             -0.0307140              0.0303180
     37.4153000             -0.1125280              0.1298800
     13.7834000              0.0450160              0.3279510
      5.4521500              0.5893530              0.4535270
      2.2258800              0.4652060              0.2521540
SP   3   1.00
      3.1864900             -0.2518300             -0.0142990
      1.1442700              0.0615890              0.3235720
      0.4203770              1.0601800              0.7435070
SP   1   1.00
      0.1426570              1.0000000              1.0000000
D    1   1.00
      1.5000000              1.0000000
D    1   1.00
      0.3750000              1.0000000
F    1   1.00
      0.7000000              1.0000000
****
}

set {
reference uhf
freeze_core true
e_convergence 10
d_convergence 10
dft_spherical_points 1202
dft_radial_points 99
}

e = energy('b3lyp')

print_out('Grab this energy {0}'.format(e))
--------------------------------------------------------------------------

    Molecular point group: c1

    Geometry (in Bohr), charge = 0, multiplicity = 2:

       Center              X                  Y                   Z               Mass
    ------------   -----------------  -----------------  -----------------  -----------------
         C           -0.323340610408     0.000260664796     0.000697505195    12.000000000000
         C            0.061973947392    -1.401991217504    -2.427613444605    12.000000000000
         C            0.059643181992     2.801621845896     0.000955948495    12.000000000000
         C            0.061682904892    -1.399608487704     2.425396643095    12.000000000000
         H            2.084945957692    -1.643942367804    -2.846795325005     1.007825032230
         H           -0.763491768808    -0.386671985004    -4.024878632505     1.007825032230
         H           -0.765792870008    -3.293794690804    -2.347396072805     1.007825032230
         H            2.090922390392     3.287373530896     0.000285827495     1.007825032230
         H           -0.767614604908     3.680078442896     1.673754899895     1.007825032230
         H           -0.767494342508     3.680056393096    -1.672993007305     1.007825032230
         H            2.084802758792    -1.644692111804     2.848669754095     1.007825032230
         H           -0.765507517908    -3.294212134404     2.349413307495     1.007825032230
         H           -0.763330854208    -0.387562393504     4.026646934595     1.007825032230

  Charge       = 0
  Multiplicity = 2
  Basis Set: ANONYMOUSACB8AFF1
    Blend: 6-31G_2DFP_
  Basis Set: (ANONYMOUSACB8AFF1 AUX)
    Blend: DEF2-UNIVERSAL-JKFIT

    Orbital Energies [Eh]
    ---------------------

    Alpha Occupied:

       1A    -10.180342     2A    -10.167055     3A    -10.167031
       4A    -10.166958     5A     -0.797766     6A     -0.686211
       7A     -0.686165     8A     -0.530778     9A     -0.441126
      10A     -0.434755    11A     -0.434586    12A     -0.382691
      13A     -0.382505    14A     -0.363612    15A     -0.338209
      16A     -0.337788    17A     -0.168961

    Alpha Virtual:

      18A      0.076071    19A      0.133984    20A      0.134322
      21A      0.142538    22A      0.142716    23A      0.154881
      24A      0.178661    25A      0.178897    26A      0.203546
      27A      0.214803    28A      0.275749    29A      0.276224
      30A      0.399194    31A      0.399261    32A      0.403345
      33A      0.424002    34A      0.424193    35A      0.456592
      36A      0.495242    37A      0.495533    38A      0.512161
      39A      0.513982    40A      0.578632    41A      0.578994
      42A      0.591465    43A      0.591796    44A      0.602583
      45A      0.624762    46A      0.631752    47A      0.636068
      48A      0.636449    49A      0.663045    50A      0.663791
      51A      0.683677    52A      0.684031    53A      0.734995
      54A      0.825344    55A      0.825463    56A      0.853921
      57A      0.914813    58A      0.915237    59A      0.944126
      60A      0.944610    61A      0.961171    62A      0.961421
      63A      1.003451    64A      1.128014    65A      1.128198
      66A      1.142219    67A      1.162953    68A      1.163593
      69A      1.223326    70A      1.274153    71A      1.274793
      72A      1.279391    73A      1.324279    74A      1.324436
      75A      1.355958    76A      1.365900    77A      1.366206
      78A      1.392446    79A      1.403572    80A      1.404537
      81A      1.416563    82A      1.417665    83A      1.427924
      84A      1.491487    85A      1.499077    86A      1.542378
      87A      1.543297    88A      1.574196    89A      1.574692
      90A      1.669816    91A      1.739168    92A      1.739634
      93A      1.768351    94A      1.830454    95A      1.832345
      96A      1.971715    97A      2.017995    98A      2.018560
      99A      2.019840   100A      2.051504   101A      2.053813
     102A      2.738059   103A      2.738912   104A      2.790924
     105A      2.811424   106A      2.889844   107A      2.890030
     108A      2.894975   109A      2.929434   110A      2.929559
     111A      2.958996   112A      2.964033   113A      2.964719
     114A      3.034017   115A      3.071139   116A      3.071418
     117A      3.084367   118A      3.168489   119A      3.169050
     120A      3.180621   121A      3.284990   122A      3.285640
     123A      3.326882   124A      3.327434   125A      3.375623
     126A      3.489773   127A      3.490530   128A      3.514015
     129A      3.525327   130A      3.568237   131A      3.568550
     132A      3.575154   133A      3.665400   134A      3.667342
     135A      3.679662   136A      3.693944   137A      3.694327
     138A      3.776617   139A      3.776983   140A      3.789130
     141A      3.911475   142A      3.912983   143A      4.034436
     144A      4.110873   145A      4.111843   146A      4.147448
     147A      4.148741   148A      4.173233   149A      4.201987
     150A      4.202412   151A      4.204374   152A      4.210926
     153A      4.314856   154A      4.317102   155A      4.358984
     156A      4.423459   157A      4.425383   158A      4.443526
     159A      4.515905   160A      4.517792   161A      4.578137
     162A      4.578386   163A      4.617563   164A      4.709453
     165A      4.774008   166A      4.775147   167A      4.836916
     168A      4.962834   169A      5.001923   170A      5.004012
     171A      5.228006   172A      5.244738   173A      5.248871
     174A      5.354340   175A      5.356732   176A      5.479375

    Beta Occupied:

       1A    -10.167810     2A    -10.167794     3A    -10.167719
       4A    -10.166519     5A     -0.781092     6A     -0.684020
       7A     -0.683961     8A     -0.511750     9A     -0.431129
      10A     -0.430959    11A     -0.421819    12A     -0.376802
      13A     -0.376564    14A     -0.362596    15A     -0.333332
      16A     -0.332911

    Beta Virtual:

      17A     -0.025743    18A      0.077080    19A      0.134887
      20A      0.135201    21A      0.144438    22A      0.144557
      23A      0.163338    24A      0.182326    25A      0.182575
      26A      0.215032    27A      0.218928    28A      0.282104
      29A      0.282565    30A      0.400366    31A      0.400428
      32A      0.419791    33A      0.426814    34A      0.427004
      35A      0.468500    36A      0.497495    37A      0.497803
      38A      0.513896    39A      0.556326    40A      0.584196
      41A      0.584531    42A      0.597625    43A      0.597998
      44A      0.610004    45A      0.628137    46A      0.631919
      47A      0.639349    48A      0.639727    49A      0.666639
      50A      0.667326    51A      0.686332    52A      0.686647
      53A      0.757518    54A      0.830507    55A      0.830636
      56A      0.855275    57A      0.922798    58A      0.923194
      59A      0.945963    60A      0.953539    61A      0.966449
      62A      0.966754    63A      1.008691    64A      1.132065
      65A      1.132208    66A      1.155588    67A      1.167994
      68A      1.168704    69A      1.232298    70A      1.279741
      71A      1.280397    72A      1.285147    73A      1.329281
      74A      1.329413    75A      1.365369    76A      1.371172
      77A      1.371421    78A      1.393506    79A      1.407012
      80A      1.408029    81A      1.421601    82A      1.422722
      83A      1.428200    84A      1.492535    85A      1.509520
      86A      1.546796    87A      1.547692    88A      1.582071
      89A      1.582562    90A      1.674662    91A      1.744934
      92A      1.745398    93A      1.779125    94A      1.834308
      95A      1.836203    96A      1.972576    97A      2.024726
      98A      2.026172    99A      2.039660   100A      2.058266
     101A      2.060496   102A      2.746409   103A      2.747233
     104A      2.811836   105A      2.816060   106A      2.902560
     107A      2.902719   108A      2.924647   109A      2.931915
     110A      2.932042   111A      2.960059   112A      2.968565
     113A      2.969280   114A      3.041950   115A      3.081006
     116A      3.081347   117A      3.086209   118A      3.184111
     119A      3.184866   120A      3.188365   121A      3.289779
     122A      3.290448   123A      3.330674   124A      3.331252
     125A      3.383440   126A      3.492498   127A      3.493266
     128A      3.512382   129A      3.528373   130A      3.574988
     131A      3.581552   132A      3.581938   133A      3.670088
     134A      3.672164   135A      3.692957   136A      3.725549
     137A      3.725973   138A      3.781092   139A      3.781564
     140A      3.817671   141A      3.921338   142A      3.922753
     143A      4.045323   144A      4.117666   145A      4.118678
     146A      4.154745   147A      4.155872   148A      4.187282
     149A      4.208001   150A      4.209428   151A      4.211197
     152A      4.215400   153A      4.322274   154A      4.324560
     155A      4.362347   156A      4.431698   157A      4.433542
     158A      4.446441   159A      4.523696   160A      4.525580
     161A      4.588721   162A      4.589004   163A      4.624758
     164A      4.719798   165A      4.780971   166A      4.782091
     167A      4.839834   168A      4.967630   169A      5.005987
     170A      5.008026   171A      5.233720   172A      5.246536
     173A      5.250644   174A      5.360809   175A      5.363223
     176A      5.481696

    Final Occupation by Irrep:
              A
    DOCC [    16 ]
    SOCC [     1 ]

  @DF-UKS Final Energy:  -157.81306091353275

   => Energetics <=

    Nuclear Repulsion Energy =            125.3946308161576297
    One-Electron Energy =                -458.7488988895815396
    Two-Electron Energy =                 195.8483528258559261
    DFT Exchange-Correlation Energy =     -20.3071456659647680
    Empirical Dispersion Energy =           0.0000000000000000
    VV10 Nonlocal Energy =                  0.0000000000000000
    Total Energy =                       -157.8130609135327518

  UHF NO Occupations:
  HONO-2 :   15  A 1.9996008
  HONO-1 :   16  A 1.9989804
  HONO-0 :   17  A 1.0000000
  LUNO+0 :   18  A 0.0010196
  LUNO+1 :   19  A 0.0003992
  LUNO+2 :   20  A 0.0001979
  LUNO+3 :   21  A 0.0001972

Computation Completed

Properties will be evaluated at   0.000000,   0.000000,   0.000000 [a0]

Properties computed using the SCF density matrix

  Nuclear Dipole Moment: [e a0]
     X:     0.8272      Y:    -0.0017      Z:     0.0033

  Electronic Dipole Moment: [e a0]
     X:    -0.7493      Y:     0.0023      Z:    -0.0034

  Dipole Moment: [e a0]
     X:     0.0779      Y:     0.0006      Z:    -0.0001     Total:     0.0779

  Dipole Moment: [D]
     X:     0.1980      Y:     0.0016      Z:    -0.0002     Total:     0.1980

*** tstop() called on n040 at Fri Nov  5 13:09:36 2021
Module time:
	user time   =     595.81 seconds =       9.93 minutes
	system time =      11.50 seconds =       0.19 minutes
	total time  =        153 seconds =       2.55 minutes
Total time:
	user time   =     595.81 seconds =       9.93 minutes
	system time =      11.50 seconds =       0.19 minutes
	total time  =        153 seconds =       2.55 minutes
Grab this energy -157.81306091353275
    Psi4 stopped on: Friday, 05 November 2021 01:09PM
    Psi4 wall time for execution: 0:02:32.74

*** Psi4 exiting successfully. Buy a developer a beer!
