                               Psi4 1.4a2.dev629

  ==> Input File <==

--------------------------------------------------------------------------
import os
memory 14 GB

molecule {
 C   -0.3233401753   -0.0002581651   -0.0000044653
 C    0.0601161010   -1.4003432657   -2.4266951017
 C    0.0630717203    2.8017511310   -0.0000508065
 C    0.0601144652   -1.4002627255    2.4267384218
 H    2.0870311299   -1.6483093381   -2.8450092362
 H   -0.7611891842   -0.3864423905   -4.0263007378
 H   -0.7691420223   -3.2905807353   -2.3500289950
 H    2.0865927961    3.2881094321   -0.0046474070
 H   -0.7622812051    3.6800049056    1.6782807943
 H   -0.7702929267    3.6804691757   -1.6742880763
 H    2.0870364474   -1.6402371032    2.8496621138
 H   -0.7611132450   -3.2938064371    2.3476465637
 H   -0.7692117780   -0.3901187976    4.0246969321
units bohr
0 2
}

basis {

assign 6-31g_2dfp_

[ 6-31g_2dfp_ ]

spherical

!----------------------------------------------------------------------
! Basis Set Exchange
! Version v0.8.13
! https://www.basissetexchange.org
!----------------------------------------------------------------------
!   Basis set: 6-31G(2df,p)
! Description: 6-31G(2df,p)
!        Role: orbital
!     Version: 0  (Data from the original Basis Set Exchange)
!----------------------------------------------------------------------

****
H     0
S    3   1.00
     18.7311370              0.03349460
      2.8253937              0.23472695
      0.6401217              0.81375733
S    1   1.00
      0.1612778              1.00000000
P    1   1.00
      1.5000000              1.0000000
P    1   1.00
      0.3750000              1.0000000
****
B     0
S    6   1.00
   2068.8823000              0.0018663
    310.6495700              0.0142515
     70.6830330              0.0695516
     19.8610800              0.2325729
      6.2993048              0.4670787
      2.1270270              0.3634314
SP   3   1.00
      4.7279710             -0.1303938              0.0745976
      1.1903377             -0.1307889              0.3078467
      0.3594117              1.1309444              0.7434568
SP   1   1.00
      0.1267512              1.0000000              1.0000000
D    1   1.00
      0.8020000              1.0000000
D    1   1.00
      0.2005000              1.0000000
F    1   1.00
      0.5000000              1.0000000
****
C     0
S    6   1.00
   3047.5249000              0.0018347
    457.3695100              0.0140373
    103.9486900              0.0688426
     29.2101550              0.2321844
      9.2866630              0.4679413
      3.1639270              0.3623120
SP   3   1.00
      7.8682724             -0.1193324              0.0689991
      1.8812885             -0.1608542              0.3164240
      0.5442493              1.1434564              0.7443083
SP   1   1.00
      0.1687144              1.0000000              1.0000000
D    1   1.00
      1.2520000              1.0000000
D    1   1.00
      0.3130000              1.0000000
F    1   1.00
      0.8000000              1.0000000
****
N     0
S    6   1.00
   4173.5110000              0.0018348
    627.4579000              0.0139950
    142.9021000              0.0685870
     40.2343300              0.2322410
     12.8202100              0.4690700
      4.3904370              0.3604550
SP   3   1.00
     11.6263580             -0.1149610              0.0675800
      2.7162800             -0.1691180              0.3239070
      0.7722180              1.1458520              0.7408950
SP   1   1.00
      0.2120313              1.0000000              1.0000000
D    1   1.00
      1.8260000              1.0000000
D    1   1.00
      0.4565000              1.0000000
F    1   1.00
      1.0000000              1.0000000
****
O     0
S    6   1.00
   5484.6717000              0.0018311
    825.2349500              0.0139501
    188.0469600              0.0684451
     52.9645000              0.2327143
     16.8975700              0.4701930
      5.7996353              0.3585209
SP   3   1.00
     15.5396160             -0.1107775              0.0708743
      3.5999336             -0.1480263              0.3397528
      1.0137618              1.1307670              0.7271586
SP   1   1.00
      0.2700058              1.0000000              1.0000000
D    1   1.00
      2.5840000              1.0000000
D    1   1.00
      0.6460000              1.0000000
F    1   1.00
      1.4000000              1.0000000
****
F     0
S    6   1.00
   7001.7130900              0.0018196169
   1051.3660900              0.0139160796
    239.2856900              0.0684053245
     67.3974453              0.233185760
     21.5199573              0.471267439
      7.40310130             0.356618546
SP   3   1.00
     20.8479528             -0.108506975            0.0716287243
      4.80830834            -0.146451658            0.3459121030
      1.34406986             1.128688580            0.7224699570
SP   1   1.00
      0.358151393            1.0000000              1.0000000
D    1   1.00
      3.5000000              1.0000000
D    1   1.00
      0.8750000              1.0000000
F    1   1.00
      1.8500000              1.0000000
****
Al     0
S    6   1.00
  13983.1000000              0.00194267
   2098.7500000              0.0148599
    477.7050000              0.0728494
    134.3600000              0.2468300
     42.8709000              0.4872580
     14.5189000              0.3234960
SP   6   1.00
    239.6680000             -0.00292619             0.00460285
     57.4419000             -0.0374080              0.0331990
     18.2859000             -0.1144870              0.1362820
      6.5991400              0.1156350              0.3304760
      2.4904900              0.6125950              0.4491460
      0.9445400              0.3937990              0.2657040
SP   3   1.00
      1.2779000             -0.2276060             -0.0175130
      0.3975900              0.00144583             0.2445330
      0.1600950              1.0927900              0.8049340
SP   1   1.00
      0.0556577              1.0000000              1.0000000
D    1   1.00
      0.6500000              1.0000000
D    1   1.00
      0.1625000              1.0000000
F    1   1.00
      0.2500000              1.0000000
****
Si     0
S    6   1.00
  16115.9000000              0.00195948
   2425.5800000              0.01492880
    553.8670000              0.07284780
    156.3400000              0.24613000
     50.0683000              0.48591400
     17.0178000              0.32500200
SP   6   1.00
    292.7180000             -0.00278094             0.00443826
     69.8731000             -0.03571460             0.03266790
     22.3363000             -0.11498500             0.13472100
      8.1503900              0.09356340             0.32867800
      3.1345800              0.60301700             0.44964000
      1.2254300              0.41895900             0.26137200
SP   3   1.00
      1.7273800             -0.24463000            -0.01779510
      0.5729220              0.00431572             0.25353900
      0.2221920              1.09818000             0.80066900
SP   1   1.00
      0.0778369              1.00000000             1.00000000
D    1   1.00
      0.9000000              1.0000000
D    1   1.00
      0.2250000              1.0000000
F    1   1.00
      0.3200000              1.0000000
****
P     0
S    6   1.00
  19413.3000000              0.0018516
   2909.4200000              0.0142062
    661.3640000              0.0699995
    185.7590000              0.2400790
     59.1943000              0.4847620
     20.0310000              0.3352000
SP   6   1.00
    339.4780000             -0.00278217             0.00456462
     81.0101000             -0.0360499              0.03369360
     25.8780000             -0.1166310              0.13975500
      9.4522100              0.0968328              0.33936200
      3.6656600              0.6144180              0.45092100
      1.4674600              0.4037980              0.23858600
SP   3   1.00
      2.1562300             -0.2529230             -0.01776530
      0.7489970              0.0328517              0.27405800
      0.2831450              1.0812500              0.78542100
SP   1   1.00
      0.0998317              1.0000000              1.00000000
D    1   1.00
      1.1000000              1.0000000
D    1   1.00
      0.2750000              1.0000000
F    1   1.00
      0.4500000              1.0000000
****
S     0
S    6   1.00
  21917.1000000              0.0018690
   3301.4900000              0.0142300
    754.1460000              0.0696960
    212.7110000              0.2384870
     67.9896000              0.4833070
     23.0515000              0.3380740
SP   6   1.00
    423.7350000             -0.0023767              0.0040610
    100.7100000             -0.0316930              0.0306810
     32.1599000             -0.1133170              0.1304520
     11.8079000              0.0560900              0.3272050
      4.6311000              0.5922550              0.4528510
      1.8702500              0.4550060              0.2560420
SP   3   1.00
      2.6158400             -0.2503740             -0.0145110
      0.9221670              0.0669570              0.3102630
      0.3412870              1.0545100              0.7544830
SP   1   1.00
      0.1171670              1.0000000              1.0000000
D    1   1.00
      1.3000000              1.0000000
D    1   1.00
      0.3250000              1.0000000
F    1   1.00
      0.5500000              1.0000000
****
Cl     0
S    6   1.00
  25180.1000000              0.0018330
   3780.3500000              0.0140340
    860.4740000              0.0690970
    242.1450000              0.2374520
     77.3349000              0.4830340
     26.2470000              0.3398560
SP   6   1.00
    491.7650000             -0.0022974              0.0039894
    116.9840000             -0.0307140              0.0303180
     37.4153000             -0.1125280              0.1298800
     13.7834000              0.0450160              0.3279510
      5.4521500              0.5893530              0.4535270
      2.2258800              0.4652060              0.2521540
SP   3   1.00
      3.1864900             -0.2518300             -0.0142990
      1.1442700              0.0615890              0.3235720
      0.4203770              1.0601800              0.7435070
SP   1   1.00
      0.1426570              1.0000000              1.0000000
D    1   1.00
      1.5000000              1.0000000
D    1   1.00
      0.3750000              1.0000000
F    1   1.00
      0.7000000              1.0000000
****
}

set {
reference uhf
freeze_core true
e_convergence 10
d_convergence 10
dft_spherical_points 1202
dft_radial_points 99
}

e = energy('b3lyp')

print_out('Grab this energy {0}'.format(e))
--------------------------------------------------------------------------

    Molecular point group: c1

    Geometry (in Bohr), charge = 0, multiplicity = 2:

       Center              X                  Y                   Z               Mass
    ------------   -----------------  -----------------  -----------------  -----------------
         C           -0.323340579013    -0.000428573452    -0.000002163315    12.000000000000
         C            0.060115697287    -1.400513674052    -2.426692799715    12.000000000000
         C            0.063071316587     2.801580722648    -0.000048504515    12.000000000000
         C            0.060114061487    -1.400433133852     2.426740723785    12.000000000000
         H            2.087030726187    -1.648479746452    -2.845006934215     1.007825032230
         H           -0.761189587913    -0.386612798852    -4.026298435815     1.007825032230
         H           -0.769142426013    -3.290751143652    -2.350026693015     1.007825032230
         H            2.086592392387     3.287939023748    -0.004645105015     1.007825032230
         H           -0.762281608813     3.679834497248     1.678283096285     1.007825032230
         H           -0.770293330413     3.680298767348    -1.674285774315     1.007825032230
         H            2.087036043687    -1.640407511552     2.849664415785     1.007825032230
         H           -0.761113648713    -3.293976845452     2.347648865685     1.007825032230
         H           -0.769212181713    -0.390289205952     4.024699234085     1.007825032230

  Charge       = 0
  Multiplicity = 2
  Basis Set: ANONYMOUS5F615CBF
    Blend: 6-31G_2DFP_
  Basis Set: (ANONYMOUS5F615CBF AUX)
    Blend: DEF2-UNIVERSAL-JKFIT

    Orbital Energies [Eh]
    ---------------------

    Alpha Occupied:

       1A    -10.180342     2A    -10.167046     3A    -10.167027
       4A    -10.166972     5A     -0.797765     6A     -0.686219
       7A     -0.686154     8A     -0.530776     9A     -0.441125
      10A     -0.434770    11A     -0.434570    12A     -0.382750
      13A     -0.382448    14A     -0.363612    15A     -0.338083
      16A     -0.337914    17A     -0.168961

    Alpha Virtual:

      18A      0.076072    19A      0.134124    20A      0.134189
      21A      0.142566    22A      0.142690    23A      0.154879
      24A      0.178664    25A      0.178891    26A      0.203546
      27A      0.214802    28A      0.275932    29A      0.276040
      30A      0.399066    31A      0.399389    32A      0.403348
      33A      0.424049    34A      0.424145    35A      0.456593
      36A      0.495360    37A      0.495419    38A      0.512147
      39A      0.513993    40A      0.578736    41A      0.578900
      42A      0.591514    43A      0.591752    44A      0.602570
      45A      0.624761    46A      0.631777    47A      0.636138
      48A      0.636355    49A      0.663243    50A      0.663583
      51A      0.683702    52A      0.684001    53A      0.734995
      54A      0.825396    55A      0.825420    56A      0.853915
      57A      0.915001    58A      0.915048    59A      0.944012
      60A      0.944718    61A      0.961211    62A      0.961382
      63A      1.003464    64A      1.128013    65A      1.128209
      66A      1.142222    67A      1.163180    68A      1.163358
      69A      1.223324    70A      1.274348    71A      1.274624
      72A      1.279355    73A      1.324102    74A      1.324614
      75A      1.355970    76A      1.365750    77A      1.366354
      78A      1.392468    79A      1.403938    80A      1.404171
      81A      1.416814    82A      1.417415    83A      1.427908
      84A      1.491466    85A      1.499104    86A      1.542781
      87A      1.542868    88A      1.574290    89A      1.574602
      90A      1.669827    91A      1.739019    92A      1.739814
      93A      1.768325    94A      1.831199    95A      1.831590
      96A      1.971726    97A      2.018263    98A      2.018427
      99A      2.019699   100A      2.052264   101A      2.053009
     102A      2.738445   103A      2.738525   104A      2.790918
     105A      2.811427   106A      2.889678   107A      2.890232
     108A      2.894945   109A      2.929460   110A      2.929534
     111A      2.958995   112A      2.964276   113A      2.964471
     114A      3.034008   115A      3.071171   116A      3.071389
     117A      3.084356   118A      3.168665   119A      3.168897
     120A      3.180586   121A      3.285280   122A      3.285349
     123A      3.327010   124A      3.327312   125A      3.375622
     126A      3.489866   127A      3.490465   128A      3.514001
     129A      3.525333   130A      3.568270   131A      3.568510
     132A      3.575149   133A      3.666099   134A      3.666686
     135A      3.679651   136A      3.694116   137A      3.694126
     138A      3.776772   139A      3.776833   140A      3.789118
     141A      3.912136   142A      3.912305   143A      4.034458
     144A      4.111283   145A      4.111467   146A      4.148070
     147A      4.148188   148A      4.173242   149A      4.202521
     150A      4.202886   151A      4.203379   152A      4.210848
     153A      4.315525   154A      4.316392   155A      4.358984
     156A      4.424331   157A      4.424580   158A      4.443416
     159A      4.515793   160A      4.517892   161A      4.578074
     162A      4.578482   163A      4.617533   164A      4.709438
     165A      4.774074   166A      4.775099   167A      4.836909
     168A      4.962862   169A      5.002487   170A      5.003399
     171A      5.228051   172A      5.246787   173A      5.246831
     174A      5.355232   175A      5.355774   176A      5.479347

    Beta Occupied:

       1A    -10.167800     2A    -10.167786     3A    -10.167738
       4A    -10.166519     5A     -0.781091     6A     -0.684022
       7A     -0.683956     8A     -0.511747     9A     -0.431149
      10A     -0.430936    11A     -0.421821    12A     -0.376843
      13A     -0.376524    14A     -0.362596    15A     -0.333208
      16A     -0.333036

    Beta Virtual:

      17A     -0.025742    18A      0.077081    19A      0.135022
      20A      0.135071    21A      0.144441    22A      0.144556
      23A      0.163338    24A      0.182333    25A      0.182564
      26A      0.215030    27A      0.218930    28A      0.282282
      29A      0.282385    30A      0.400237    31A      0.400559
      32A      0.419792    33A      0.426858    34A      0.426959
      35A      0.468501    36A      0.497625    37A      0.497675
      38A      0.513895    39A      0.556326    40A      0.584290
      41A      0.584445    42A      0.597689    43A      0.597937
      44A      0.609994    45A      0.628135    46A      0.631933
      47A      0.639422    48A      0.639642    49A      0.666822
      50A      0.667131    51A      0.686334    52A      0.686638
      53A      0.757518    54A      0.830566    55A      0.830586
      56A      0.855268    57A      0.922973    58A      0.923019
      59A      0.945944    60A      0.953552    61A      0.966510
      62A      0.966694    63A      1.008704    64A      1.132002
      65A      1.132275    66A      1.155602    67A      1.168301
      68A      1.168383    69A      1.232295    70A      1.279941
      71A      1.280227    72A      1.285108    73A      1.329081
      74A      1.329613    75A      1.365380    76A      1.370993
      77A      1.371598    78A      1.393532    79A      1.407389
      80A      1.407651    81A      1.421880    82A      1.422451
      83A      1.428176    84A      1.492528    85A      1.509533
      86A      1.547205    87A      1.547260    88A      1.582217
      89A      1.582419    90A      1.674674    91A      1.744788
      92A      1.745569    93A      1.779104    94A      1.835054
      95A      1.835445    96A      1.972586    97A      2.024810
      98A      2.026077    99A      2.039684   100A      2.059004
     101A      2.059697   102A      2.746785   103A      2.746857
     104A      2.811792   105A      2.816101   106A      2.902376
     107A      2.902911   108A      2.924654   109A      2.931941
     110A      2.932011   111A      2.960057   112A      2.968825
     113A      2.969011   114A      3.041943   115A      3.081086
     116A      3.081283   117A      3.086184   118A      3.184440
     119A      3.184622   120A      3.188270   121A      3.290088
     122A      3.290138   123A      3.330800   124A      3.331131
     125A      3.383439   126A      3.492598   127A      3.493194
     128A      3.512369   129A      3.528374   130A      3.575008
     131A      3.581676   132A      3.581787   133A      3.670904
     134A      3.671369   135A      3.692946   136A      3.725602
     137A      3.725912   138A      3.781309   139A      3.781346
     140A      3.817664   141A      3.921937   142A      3.922138
     143A      4.045346   144A      4.118152   145A      4.118228
     146A      4.155232   147A      4.155441   148A      4.187305
     149A      4.208824   150A      4.209136   151A      4.210671
     152A      4.215320   153A      4.322942   154A      4.323855
     155A      4.362349   156A      4.432558   157A      4.432783
     158A      4.446297   159A      4.523588   160A      4.525678
     161A      4.588691   162A      4.589069   163A      4.624724
     164A      4.719783   165A      4.781046   166A      4.782034
     167A      4.839826   168A      4.967657   169A      5.006544
     170A      5.007421   171A      5.233767   172A      5.248570
     173A      5.248616   174A      5.361714   175A      5.362253
     176A      5.481669

    Final Occupation by Irrep:
              A
    DOCC [    16 ]
    SOCC [     1 ]

  @DF-UKS Final Energy:  -157.81307202746368

   => Energetics <=

    Nuclear Repulsion Energy =            125.3945831647686191
    One-Electron Energy =                -458.7488401006264667
    Two-Electron Energy =                 195.8483266308068664
    DFT Exchange-Correlation Energy =     -20.3071417224126982
    Empirical Dispersion Energy =           0.0000000000000000
    VV10 Nonlocal Energy =                  0.0000000000000000
    Total Energy =                       -157.8130720274636758

  UHF NO Occupations:
  HONO-2 :   15  A 1.9996009
  HONO-1 :   16  A 1.9989805
  HONO-0 :   17  A 1.0000000
  LUNO+0 :   18  A 0.0010195
  LUNO+1 :   19  A 0.0003991
  LUNO+2 :   20  A 0.0001977
  LUNO+3 :   21  A 0.0001974

Computation Completed

Properties will be evaluated at   0.000000,   0.000000,   0.000000 [a0]

Properties computed using the SCF density matrix

  Nuclear Dipole Moment: [e a0]
     X:     0.8272      Y:    -0.0012      Z:     0.0000

  Electronic Dipole Moment: [e a0]
     X:    -0.7493      Y:     0.0011      Z:    -0.0000

  Dipole Moment: [e a0]
     X:     0.0779      Y:    -0.0001      Z:    -0.0000     Total:     0.0779

  Dipole Moment: [D]
     X:     0.1980      Y:    -0.0003      Z:    -0.0000     Total:     0.1980

*** tstop() called on n062 at Fri Nov  5 12:38:07 2021
Module time:
	user time   =     543.85 seconds =       9.06 minutes
	system time =      12.24 seconds =       0.20 minutes
	total time  =        140 seconds =       2.33 minutes
Total time:
	user time   =     543.85 seconds =       9.06 minutes
	system time =      12.24 seconds =       0.20 minutes
	total time  =        140 seconds =       2.33 minutes
Grab this energy -157.81307202746368
    Psi4 stopped on: Friday, 05 November 2021 12:38PM
    Psi4 wall time for execution: 0:02:19.84

*** Psi4 exiting successfully. Buy a developer a beer!
