                               Psi4 1.4a2.dev629

  ==> Input File <==

--------------------------------------------------------------------------
import os
memory 14 GB

molecule {
 C   -0.3243645152   -0.0004345433    0.0000000000
 C    0.0602359424   -1.4019690441   -2.4258664791
 C    0.0596496550    2.8020205202    0.0000000000
 C    0.0602359424   -1.4019690441    2.4258664791
 H    2.0897936092   -1.6469329047   -2.8462928784
 H   -0.7689638246   -0.3882948302   -4.0259646810
 H   -0.7635725585   -3.2880117480   -2.3500031498
 H    2.0910215759    3.2885110528    0.0000000000
 H   -0.7669504647    3.6801478554    1.6732341743
 H   -0.7669504647    3.6801478554   -1.6732341743
 H    2.0897936092   -1.6469329047    2.8462928784
 H   -0.7635725585   -3.2880117480    2.3500031498
 H   -0.7689638246   -0.3882948302    4.0259646810
units bohr
0 2
}

basis {

assign 6-31g_2dfp_

[ 6-31g_2dfp_ ]

spherical

!----------------------------------------------------------------------
! Basis Set Exchange
! Version v0.8.13
! https://www.basissetexchange.org
!----------------------------------------------------------------------
!   Basis set: 6-31G(2df,p)
! Description: 6-31G(2df,p)
!        Role: orbital
!     Version: 0  (Data from the original Basis Set Exchange)
!----------------------------------------------------------------------

****
H     0
S    3   1.00
     18.7311370              0.03349460
      2.8253937              0.23472695
      0.6401217              0.81375733
S    1   1.00
      0.1612778              1.00000000
P    1   1.00
      1.5000000              1.0000000
P    1   1.00
      0.3750000              1.0000000
****
B     0
S    6   1.00
   2068.8823000              0.0018663
    310.6495700              0.0142515
     70.6830330              0.0695516
     19.8610800              0.2325729
      6.2993048              0.4670787
      2.1270270              0.3634314
SP   3   1.00
      4.7279710             -0.1303938              0.0745976
      1.1903377             -0.1307889              0.3078467
      0.3594117              1.1309444              0.7434568
SP   1   1.00
      0.1267512              1.0000000              1.0000000
D    1   1.00
      0.8020000              1.0000000
D    1   1.00
      0.2005000              1.0000000
F    1   1.00
      0.5000000              1.0000000
****
C     0
S    6   1.00
   3047.5249000              0.0018347
    457.3695100              0.0140373
    103.9486900              0.0688426
     29.2101550              0.2321844
      9.2866630              0.4679413
      3.1639270              0.3623120
SP   3   1.00
      7.8682724             -0.1193324              0.0689991
      1.8812885             -0.1608542              0.3164240
      0.5442493              1.1434564              0.7443083
SP   1   1.00
      0.1687144              1.0000000              1.0000000
D    1   1.00
      1.2520000              1.0000000
D    1   1.00
      0.3130000              1.0000000
F    1   1.00
      0.8000000              1.0000000
****
N     0
S    6   1.00
   4173.5110000              0.0018348
    627.4579000              0.0139950
    142.9021000              0.0685870
     40.2343300              0.2322410
     12.8202100              0.4690700
      4.3904370              0.3604550
SP   3   1.00
     11.6263580             -0.1149610              0.0675800
      2.7162800             -0.1691180              0.3239070
      0.7722180              1.1458520              0.7408950
SP   1   1.00
      0.2120313              1.0000000              1.0000000
D    1   1.00
      1.8260000              1.0000000
D    1   1.00
      0.4565000              1.0000000
F    1   1.00
      1.0000000              1.0000000
****
O     0
S    6   1.00
   5484.6717000              0.0018311
    825.2349500              0.0139501
    188.0469600              0.0684451
     52.9645000              0.2327143
     16.8975700              0.4701930
      5.7996353              0.3585209
SP   3   1.00
     15.5396160             -0.1107775              0.0708743
      3.5999336             -0.1480263              0.3397528
      1.0137618              1.1307670              0.7271586
SP   1   1.00
      0.2700058              1.0000000              1.0000000
D    1   1.00
      2.5840000              1.0000000
D    1   1.00
      0.6460000              1.0000000
F    1   1.00
      1.4000000              1.0000000
****
F     0
S    6   1.00
   7001.7130900              0.0018196169
   1051.3660900              0.0139160796
    239.2856900              0.0684053245
     67.3974453              0.233185760
     21.5199573              0.471267439
      7.40310130             0.356618546
SP   3   1.00
     20.8479528             -0.108506975            0.0716287243
      4.80830834            -0.146451658            0.3459121030
      1.34406986             1.128688580            0.7224699570
SP   1   1.00
      0.358151393            1.0000000              1.0000000
D    1   1.00
      3.5000000              1.0000000
D    1   1.00
      0.8750000              1.0000000
F    1   1.00
      1.8500000              1.0000000
****
Al     0
S    6   1.00
  13983.1000000              0.00194267
   2098.7500000              0.0148599
    477.7050000              0.0728494
    134.3600000              0.2468300
     42.8709000              0.4872580
     14.5189000              0.3234960
SP   6   1.00
    239.6680000             -0.00292619             0.00460285
     57.4419000             -0.0374080              0.0331990
     18.2859000             -0.1144870              0.1362820
      6.5991400              0.1156350              0.3304760
      2.4904900              0.6125950              0.4491460
      0.9445400              0.3937990              0.2657040
SP   3   1.00
      1.2779000             -0.2276060             -0.0175130
      0.3975900              0.00144583             0.2445330
      0.1600950              1.0927900              0.8049340
SP   1   1.00
      0.0556577              1.0000000              1.0000000
D    1   1.00
      0.6500000              1.0000000
D    1   1.00
      0.1625000              1.0000000
F    1   1.00
      0.2500000              1.0000000
****
Si     0
S    6   1.00
  16115.9000000              0.00195948
   2425.5800000              0.01492880
    553.8670000              0.07284780
    156.3400000              0.24613000
     50.0683000              0.48591400
     17.0178000              0.32500200
SP   6   1.00
    292.7180000             -0.00278094             0.00443826
     69.8731000             -0.03571460             0.03266790
     22.3363000             -0.11498500             0.13472100
      8.1503900              0.09356340             0.32867800
      3.1345800              0.60301700             0.44964000
      1.2254300              0.41895900             0.26137200
SP   3   1.00
      1.7273800             -0.24463000            -0.01779510
      0.5729220              0.00431572             0.25353900
      0.2221920              1.09818000             0.80066900
SP   1   1.00
      0.0778369              1.00000000             1.00000000
D    1   1.00
      0.9000000              1.0000000
D    1   1.00
      0.2250000              1.0000000
F    1   1.00
      0.3200000              1.0000000
****
P     0
S    6   1.00
  19413.3000000              0.0018516
   2909.4200000              0.0142062
    661.3640000              0.0699995
    185.7590000              0.2400790
     59.1943000              0.4847620
     20.0310000              0.3352000
SP   6   1.00
    339.4780000             -0.00278217             0.00456462
     81.0101000             -0.0360499              0.03369360
     25.8780000             -0.1166310              0.13975500
      9.4522100              0.0968328              0.33936200
      3.6656600              0.6144180              0.45092100
      1.4674600              0.4037980              0.23858600
SP   3   1.00
      2.1562300             -0.2529230             -0.01776530
      0.7489970              0.0328517              0.27405800
      0.2831450              1.0812500              0.78542100
SP   1   1.00
      0.0998317              1.0000000              1.00000000
D    1   1.00
      1.1000000              1.0000000
D    1   1.00
      0.2750000              1.0000000
F    1   1.00
      0.4500000              1.0000000
****
S     0
S    6   1.00
  21917.1000000              0.0018690
   3301.4900000              0.0142300
    754.1460000              0.0696960
    212.7110000              0.2384870
     67.9896000              0.4833070
     23.0515000              0.3380740
SP   6   1.00
    423.7350000             -0.0023767              0.0040610
    100.7100000             -0.0316930              0.0306810
     32.1599000             -0.1133170              0.1304520
     11.8079000              0.0560900              0.3272050
      4.6311000              0.5922550              0.4528510
      1.8702500              0.4550060              0.2560420
SP   3   1.00
      2.6158400             -0.2503740             -0.0145110
      0.9221670              0.0669570              0.3102630
      0.3412870              1.0545100              0.7544830
SP   1   1.00
      0.1171670              1.0000000              1.0000000
D    1   1.00
      1.3000000              1.0000000
D    1   1.00
      0.3250000              1.0000000
F    1   1.00
      0.5500000              1.0000000
****
Cl     0
S    6   1.00
  25180.1000000              0.0018330
   3780.3500000              0.0140340
    860.4740000              0.0690970
    242.1450000              0.2374520
     77.3349000              0.4830340
     26.2470000              0.3398560
SP   6   1.00
    491.7650000             -0.0022974              0.0039894
    116.9840000             -0.0307140              0.0303180
     37.4153000             -0.1125280              0.1298800
     13.7834000              0.0450160              0.3279510
      5.4521500              0.5893530              0.4535270
      2.2258800              0.4652060              0.2521540
SP   3   1.00
      3.1864900             -0.2518300             -0.0142990
      1.1442700              0.0615890              0.3235720
      0.4203770              1.0601800              0.7435070
SP   1   1.00
      0.1426570              1.0000000              1.0000000
D    1   1.00
      1.5000000              1.0000000
D    1   1.00
      0.3750000              1.0000000
F    1   1.00
      0.7000000              1.0000000
****
}

set {
reference uhf
freeze_core true
e_convergence 10
d_convergence 10
dft_spherical_points 1202
dft_radial_points 99
}

e = energy('b3lyp')

print_out('Grab this energy {0}'.format(e))
--------------------------------------------------------------------------

    Molecular point group: cs

    Geometry (in Bohr), charge = 0, multiplicity = 2:

       Center              X                  Y                   Z               Mass
    ------------   -----------------  -----------------  -----------------  -----------------
         C           -0.323554988946     0.000018919638     0.000000000000    12.000000000000
         C            0.061045468654    -1.401515581162    -2.425866479100    12.000000000000
         C            0.060459181254     2.802473983138     0.000000000000    12.000000000000
         C            0.061045468654    -1.401515581162     2.425866479100    12.000000000000
         H            2.090603135454    -1.646479441762    -2.846292878400     1.007825032230
         H           -0.768154298346    -0.387841367262    -4.025964681000     1.007825032230
         H           -0.762763032246    -3.287558285062    -2.350003149800     1.007825032230
         H            2.091831102154     3.288964515738     0.000000000000     1.007825032230
         H           -0.766140938446     3.680601318338     1.673234174300     1.007825032230
         H           -0.766140938446     3.680601318338    -1.673234174300     1.007825032230
         H            2.090603135454    -1.646479441762     2.846292878400     1.007825032230
         H           -0.762763032246    -3.287558285062     2.350003149800     1.007825032230
         H           -0.768154298346    -0.387841367262     4.025964681000     1.007825032230

  Charge       = 0
  Multiplicity = 2
  Basis Set: ANONYMOUS90F301C3
    Blend: 6-31G_2DFP_
  Basis Set: (ANONYMOUS90F301C3 AUX)
    Blend: DEF2-UNIVERSAL-JKFIT

    Orbital Energies [Eh]
    ---------------------

    Alpha Occupied:

       1Ap   -10.180401     1App  -10.167037     2Ap   -10.167030
       3Ap   -10.166987     4Ap    -0.797729     5Ap    -0.686244
       2App   -0.686124     6Ap    -0.530771     7Ap    -0.441027
       3App   -0.434905     8Ap    -0.434525     4App   -0.382483
       9Ap    -0.382440     5App   -0.363790    10Ap    -0.338215
       6App   -0.337890    11Ap    -0.168999

    Alpha Virtual:

      12Ap     0.076155     7App    0.134039    13Ap     0.134251
      14Ap     0.142503     8App    0.142900    15Ap     0.154715
      16Ap     0.178511     9App    0.178697    17Ap     0.203505
      10App    0.215077    18Ap     0.275852    11App    0.276071
      12App    0.398865    19Ap     0.399350    20Ap     0.403257
      13App    0.424123    21Ap     0.424448    22Ap     0.456518
      14App    0.495519    23Ap     0.495621    15App    0.512043
      24Ap     0.513826    25Ap     0.578580    16App    0.578707
      26Ap     0.591230    17App    0.591507    27Ap     0.601818
      28Ap     0.625227    18App    0.632157    29Ap     0.636388
      19App    0.636904    30Ap     0.662715    20App    0.663138
      21App    0.683914    31Ap     0.684309    32Ap     0.735056
      33Ap     0.825122    22App    0.825624    23App    0.853637
      24App    0.914587    34Ap     0.915019    25App    0.944413
      35Ap     0.944747    26App    0.961104    36Ap     0.961291
      37Ap     1.003268    27App    1.128089    38Ap     1.128637
      39Ap     1.141502    28App    1.163481    40Ap     1.163590
      41Ap     1.223737    42Ap     1.274005    29App    1.274493
      43Ap     1.279193    44Ap     1.323929    30App    1.324341
      45Ap     1.356508    46Ap     1.365666    31App    1.366279
      32App    1.392394    47Ap     1.402974    33App    1.403069
      34App    1.417379    48Ap     1.418808    35App    1.427688
      36App    1.491487    49Ap     1.498146    37App    1.542449
      50Ap     1.542493    51Ap     1.574600    38App    1.575028
      52Ap     1.671093    53Ap     1.737856    39App    1.739288
      54Ap     1.766465    40App    1.831995    55Ap     1.833575
      41App    1.972771    56Ap     2.017480    57Ap     2.019164
      42App    2.019604    58Ap     2.050889    43App    2.051945
      59Ap     2.738620    44App    2.738987    60Ap     2.790533
      45App    2.811882    61Ap     2.889429    46App    2.889731
      62Ap     2.894596    63Ap     2.929676    47App    2.929734
      48App    2.958829    64Ap     2.963895    49App    2.964064
      65Ap     3.033320    50App    3.070641    66Ap     3.071816
      51App    3.085833    67Ap     3.168238    52App    3.169075
      68Ap     3.180543    53App    3.285063    69Ap     3.285370
      70Ap     3.327413    54App    3.328174    71Ap     3.375793
      55App    3.489651    72Ap     3.490230    56App    3.512805
      73Ap     3.526532    57App    3.567543    74Ap     3.568428
      58App    3.574297    75Ap     3.665540    59App    3.666512
      76Ap     3.680246    60App    3.694094    77Ap     3.694568
      78Ap     3.777078    61App    3.777346    79Ap     3.788343
      62App    3.912211    80Ap     3.913362    81Ap     4.034865
      82Ap     4.110782    63App    4.111786    64App    4.147236
      83Ap     4.147698    84Ap     4.171569    85Ap     4.202688
      65App    4.203012    86Ap     4.204721    66App    4.209799
      67App    4.314867    87Ap     4.316208    68App    4.360215
      88Ap     4.423187    69App    4.424274    70App    4.443701
      89Ap     4.515143    71App    4.517230    72App    4.578960
      90Ap     4.578972    91Ap     4.617409    92Ap     4.708915
      93Ap     4.773761    73App    4.775722    74App    4.838265
      94Ap     4.963174    95Ap     5.001289    75App    5.002015
      96Ap     5.224973    76App    5.249658    97Ap     5.250264
      98Ap     5.352305    77App    5.354839    78App    5.481372

    Beta Occupied:

       1App  -10.167791     1Ap   -10.167785     2Ap   -10.167762
       3Ap   -10.166584     4Ap    -0.781062     5Ap    -0.684061
       2App   -0.683937     6Ap    -0.511792     3App   -0.431300
       7Ap    -0.430923     8Ap    -0.421663     4App   -0.376539
       9Ap    -0.376504     5App   -0.362784    10Ap    -0.333330
       6App   -0.333013

    Beta Virtual:

      11Ap    -0.025872    12Ap     0.077181     7App    0.134973
      13Ap     0.135242    14Ap     0.144317     8App    0.144775
      15Ap     0.163193    16Ap     0.182154     9App    0.182339
      10App    0.215299    17Ap     0.218886    18Ap     0.282206
      11App    0.282422    12App    0.400032    19Ap     0.400527
      20Ap     0.419799    13App    0.426933    21Ap     0.427259
      22Ap     0.468326    14App    0.497783    23Ap     0.497896
      15App    0.513786    24Ap     0.556133    25Ap     0.584161
      16App    0.584282    26Ap     0.597375    17App    0.597701
      27Ap     0.609365    28Ap     0.628481    18App    0.632313
      29Ap     0.639654    19App    0.640130    30Ap     0.666322
      20App    0.666720    21App    0.686557    31Ap     0.686911
      32Ap     0.757576    33Ap     0.830323    22App    0.830803
      23App    0.854998    24App    0.922595    34Ap     0.922988
      25App    0.946241    35Ap     0.953723    26App    0.966358
      36Ap     0.966582    37Ap     1.008468    27App    1.132157
      38Ap     1.132698    39Ap     1.154960    28App    1.168534
      40Ap     1.168634    41Ap     1.232693    42Ap     1.279562
      29App    1.280086    43Ap     1.284891    44Ap     1.328966
      30App    1.329376    45Ap     1.365905    46Ap     1.371044
      31App    1.371530    32App    1.393469    47Ap     1.406361
      33App    1.406497    34App    1.422443    48Ap     1.423779
      35App    1.427963    36App    1.492510    49Ap     1.508597
      37App    1.546863    50Ap     1.546960    51Ap     1.582455
      38App    1.582879    52Ap     1.675991    53Ap     1.743602
      39App    1.745057    54Ap     1.777231    40App    1.835847
      55Ap     1.837436    41App    1.973618    56Ap     2.024689
      42App    2.025835    57Ap     2.039589    58Ap     2.057734
      43App    2.058799    59Ap     2.746953    44App    2.747343
      45App    2.812296    60Ap     2.815631    61Ap     2.902050
      46App    2.902434    62Ap     2.924107    47App    2.932171
      63Ap     2.932202    48App    2.959902    64Ap     2.968397
      49App    2.968566    65Ap     3.041470    50App    3.080459
      66Ap     3.081713    51App    3.087730    67Ap     3.184030
      52App    3.184809    68Ap     3.188214    53App    3.289884
      69Ap     3.290210    70Ap     3.331148    54App    3.331975
      71Ap     3.383586    55App    3.492354    72Ap     3.492907
      56App    3.511167    73Ap     3.529563    57App    3.574152
      58App    3.580976    74Ap     3.582019    75Ap     3.670318
      59App    3.671046    76Ap     3.693527    60App    3.725898
      77Ap     3.726004    78Ap     3.781517    61App    3.781840
      79Ap     3.816908    62App    3.922017    80Ap     3.923300
      81Ap     4.045816    82Ap     4.117392    63App    4.118818
      64App    4.154201    83Ap     4.155149    84Ap     4.185629
      65App    4.209073    85Ap     4.210550    86Ap     4.210802
      66App    4.214416    67App    4.322288    87Ap     4.323543
      68App    4.363532    88Ap     4.431422    69App    4.432462
      70App    4.446536    89Ap     4.522959    71App    4.525062
      90Ap     4.589500    72App    4.589551    91Ap     4.624510
      92Ap     4.719375    93Ap     4.780693    73App    4.782599
      74App    4.841171    94Ap     4.967981    95Ap     5.005357
      75App    5.006078    96Ap     5.230594    76App    5.251446
      97Ap     5.252082    98Ap     5.358768    77App    5.361275
      78App    5.483682

    Final Occupation by Irrep:
             Ap   App
    DOCC [    10,    6 ]
    SOCC [     1,    0 ]

  @DF-UKS Final Energy:  -157.81304788681419

   => Energetics <=

    Nuclear Repulsion Energy =            125.3893207917084709
    One-Electron Energy =                -458.7382131201737820
    Two-Electron Energy =                 195.8428846730314206
    DFT Exchange-Correlation Energy =     -20.3070402313803129
    Empirical Dispersion Energy =           0.0000000000000000
    VV10 Nonlocal Energy =                  0.0000000000000000
    Total Energy =                       -157.8130478868141893

  UHF NO Occupations:
  HONO-2 :    9 Ap 1.9995985
  HONO-1 :   10 Ap 1.9989796
  HONO-0 :   11 Ap 1.0000000
  LUNO+0 :   12 Ap 0.0010204
  LUNO+1 :   13 Ap 0.0004015
  LUNO+2 :    7App 0.0001976
  LUNO+3 :   14 Ap 0.0001975

Computation Completed

Properties will be evaluated at   0.000000,   0.000000,   0.000000 [a0]

Properties computed using the SCF density matrix

  Nuclear Dipole Moment: [e a0]
     X:     0.8329      Y:     0.0032      Z:    -0.0000

  Electronic Dipole Moment: [e a0]
     X:    -0.7582      Y:    -0.0049      Z:     0.0000

  Dipole Moment: [e a0]
     X:     0.0747      Y:    -0.0017      Z:    -0.0000     Total:     0.0747

  Dipole Moment: [D]
     X:     0.1899      Y:    -0.0044      Z:    -0.0000     Total:     0.1900

*** tstop() called on n049 at Fri Nov  5 14:23:44 2021
Module time:
	user time   =     509.76 seconds =       8.50 minutes
	system time =      11.54 seconds =       0.19 minutes
	total time  =        132 seconds =       2.20 minutes
Total time:
	user time   =     509.76 seconds =       8.50 minutes
	system time =      11.54 seconds =       0.19 minutes
	total time  =        132 seconds =       2.20 minutes
Grab this energy -157.8130478868142
    Psi4 stopped on: Friday, 05 November 2021 02:23PM
    Psi4 wall time for execution: 0:02:11.28

*** Psi4 exiting successfully. Buy a developer a beer!
