                               Psi4 1.4a2.dev629

  ==> Input File <==

--------------------------------------------------------------------------
import os
memory 14 GB

molecule {
 C   -0.3247918345   -0.0019991991    0.0000000000
 C    0.0619176426   -1.4014841105   -2.4254308449
 C    0.0620335772    2.8025103628    0.0000000000
 C    0.0619176426   -1.4014841105    2.4254308449
 H    2.0869966760   -1.6460422788   -2.8437208079
 H   -0.7641275184   -0.3856300080   -4.0214792332
 H   -0.7666599954   -3.2935057719   -2.3538656680
 H    2.0865226738    3.2927320332    0.0000000000
 H   -0.7663129513    3.6800284141    1.6772097505
 H   -0.7663129513    3.6800284141   -1.6772097505
 H    2.0869966760   -1.6460422788    2.8437208079
 H   -0.7666599954   -3.2935057719    2.3538656680
 H   -0.7641275184   -0.3856300080    4.0214792332
units bohr
0 2
}

basis {

assign 6-31g_2dfp_

[ 6-31g_2dfp_ ]

spherical

!----------------------------------------------------------------------
! Basis Set Exchange
! Version v0.8.13
! https://www.basissetexchange.org
!----------------------------------------------------------------------
!   Basis set: 6-31G(2df,p)
! Description: 6-31G(2df,p)
!        Role: orbital
!     Version: 0  (Data from the original Basis Set Exchange)
!----------------------------------------------------------------------

****
H     0
S    3   1.00
     18.7311370              0.03349460
      2.8253937              0.23472695
      0.6401217              0.81375733
S    1   1.00
      0.1612778              1.00000000
P    1   1.00
      1.5000000              1.0000000
P    1   1.00
      0.3750000              1.0000000
****
B     0
S    6   1.00
   2068.8823000              0.0018663
    310.6495700              0.0142515
     70.6830330              0.0695516
     19.8610800              0.2325729
      6.2993048              0.4670787
      2.1270270              0.3634314
SP   3   1.00
      4.7279710             -0.1303938              0.0745976
      1.1903377             -0.1307889              0.3078467
      0.3594117              1.1309444              0.7434568
SP   1   1.00
      0.1267512              1.0000000              1.0000000
D    1   1.00
      0.8020000              1.0000000
D    1   1.00
      0.2005000              1.0000000
F    1   1.00
      0.5000000              1.0000000
****
C     0
S    6   1.00
   3047.5249000              0.0018347
    457.3695100              0.0140373
    103.9486900              0.0688426
     29.2101550              0.2321844
      9.2866630              0.4679413
      3.1639270              0.3623120
SP   3   1.00
      7.8682724             -0.1193324              0.0689991
      1.8812885             -0.1608542              0.3164240
      0.5442493              1.1434564              0.7443083
SP   1   1.00
      0.1687144              1.0000000              1.0000000
D    1   1.00
      1.2520000              1.0000000
D    1   1.00
      0.3130000              1.0000000
F    1   1.00
      0.8000000              1.0000000
****
N     0
S    6   1.00
   4173.5110000              0.0018348
    627.4579000              0.0139950
    142.9021000              0.0685870
     40.2343300              0.2322410
     12.8202100              0.4690700
      4.3904370              0.3604550
SP   3   1.00
     11.6263580             -0.1149610              0.0675800
      2.7162800             -0.1691180              0.3239070
      0.7722180              1.1458520              0.7408950
SP   1   1.00
      0.2120313              1.0000000              1.0000000
D    1   1.00
      1.8260000              1.0000000
D    1   1.00
      0.4565000              1.0000000
F    1   1.00
      1.0000000              1.0000000
****
O     0
S    6   1.00
   5484.6717000              0.0018311
    825.2349500              0.0139501
    188.0469600              0.0684451
     52.9645000              0.2327143
     16.8975700              0.4701930
      5.7996353              0.3585209
SP   3   1.00
     15.5396160             -0.1107775              0.0708743
      3.5999336             -0.1480263              0.3397528
      1.0137618              1.1307670              0.7271586
SP   1   1.00
      0.2700058              1.0000000              1.0000000
D    1   1.00
      2.5840000              1.0000000
D    1   1.00
      0.6460000              1.0000000
F    1   1.00
      1.4000000              1.0000000
****
F     0
S    6   1.00
   7001.7130900              0.0018196169
   1051.3660900              0.0139160796
    239.2856900              0.0684053245
     67.3974453              0.233185760
     21.5199573              0.471267439
      7.40310130             0.356618546
SP   3   1.00
     20.8479528             -0.108506975            0.0716287243
      4.80830834            -0.146451658            0.3459121030
      1.34406986             1.128688580            0.7224699570
SP   1   1.00
      0.358151393            1.0000000              1.0000000
D    1   1.00
      3.5000000              1.0000000
D    1   1.00
      0.8750000              1.0000000
F    1   1.00
      1.8500000              1.0000000
****
Al     0
S    6   1.00
  13983.1000000              0.00194267
   2098.7500000              0.0148599
    477.7050000              0.0728494
    134.3600000              0.2468300
     42.8709000              0.4872580
     14.5189000              0.3234960
SP   6   1.00
    239.6680000             -0.00292619             0.00460285
     57.4419000             -0.0374080              0.0331990
     18.2859000             -0.1144870              0.1362820
      6.5991400              0.1156350              0.3304760
      2.4904900              0.6125950              0.4491460
      0.9445400              0.3937990              0.2657040
SP   3   1.00
      1.2779000             -0.2276060             -0.0175130
      0.3975900              0.00144583             0.2445330
      0.1600950              1.0927900              0.8049340
SP   1   1.00
      0.0556577              1.0000000              1.0000000
D    1   1.00
      0.6500000              1.0000000
D    1   1.00
      0.1625000              1.0000000
F    1   1.00
      0.2500000              1.0000000
****
Si     0
S    6   1.00
  16115.9000000              0.00195948
   2425.5800000              0.01492880
    553.8670000              0.07284780
    156.3400000              0.24613000
     50.0683000              0.48591400
     17.0178000              0.32500200
SP   6   1.00
    292.7180000             -0.00278094             0.00443826
     69.8731000             -0.03571460             0.03266790
     22.3363000             -0.11498500             0.13472100
      8.1503900              0.09356340             0.32867800
      3.1345800              0.60301700             0.44964000
      1.2254300              0.41895900             0.26137200
SP   3   1.00
      1.7273800             -0.24463000            -0.01779510
      0.5729220              0.00431572             0.25353900
      0.2221920              1.09818000             0.80066900
SP   1   1.00
      0.0778369              1.00000000             1.00000000
D    1   1.00
      0.9000000              1.0000000
D    1   1.00
      0.2250000              1.0000000
F    1   1.00
      0.3200000              1.0000000
****
P     0
S    6   1.00
  19413.3000000              0.0018516
   2909.4200000              0.0142062
    661.3640000              0.0699995
    185.7590000              0.2400790
     59.1943000              0.4847620
     20.0310000              0.3352000
SP   6   1.00
    339.4780000             -0.00278217             0.00456462
     81.0101000             -0.0360499              0.03369360
     25.8780000             -0.1166310              0.13975500
      9.4522100              0.0968328              0.33936200
      3.6656600              0.6144180              0.45092100
      1.4674600              0.4037980              0.23858600
SP   3   1.00
      2.1562300             -0.2529230             -0.01776530
      0.7489970              0.0328517              0.27405800
      0.2831450              1.0812500              0.78542100
SP   1   1.00
      0.0998317              1.0000000              1.00000000
D    1   1.00
      1.1000000              1.0000000
D    1   1.00
      0.2750000              1.0000000
F    1   1.00
      0.4500000              1.0000000
****
S     0
S    6   1.00
  21917.1000000              0.0018690
   3301.4900000              0.0142300
    754.1460000              0.0696960
    212.7110000              0.2384870
     67.9896000              0.4833070
     23.0515000              0.3380740
SP   6   1.00
    423.7350000             -0.0023767              0.0040610
    100.7100000             -0.0316930              0.0306810
     32.1599000             -0.1133170              0.1304520
     11.8079000              0.0560900              0.3272050
      4.6311000              0.5922550              0.4528510
      1.8702500              0.4550060              0.2560420
SP   3   1.00
      2.6158400             -0.2503740             -0.0145110
      0.9221670              0.0669570              0.3102630
      0.3412870              1.0545100              0.7544830
SP   1   1.00
      0.1171670              1.0000000              1.0000000
D    1   1.00
      1.3000000              1.0000000
D    1   1.00
      0.3250000              1.0000000
F    1   1.00
      0.5500000              1.0000000
****
Cl     0
S    6   1.00
  25180.1000000              0.0018330
   3780.3500000              0.0140340
    860.4740000              0.0690970
    242.1450000              0.2374520
     77.3349000              0.4830340
     26.2470000              0.3398560
SP   6   1.00
    491.7650000             -0.0022974              0.0039894
    116.9840000             -0.0307140              0.0303180
     37.4153000             -0.1125280              0.1298800
     13.7834000              0.0450160              0.3279510
      5.4521500              0.5893530              0.4535270
      2.2258800              0.4652060              0.2521540
SP   3   1.00
      3.1864900             -0.2518300             -0.0142990
      1.1442700              0.0615890              0.3235720
      0.4203770              1.0601800              0.7435070
SP   1   1.00
      0.1426570              1.0000000              1.0000000
D    1   1.00
      1.5000000              1.0000000
D    1   1.00
      0.3750000              1.0000000
F    1   1.00
      0.7000000              1.0000000
****
}

set {
reference uhf
freeze_core true
e_convergence 10
d_convergence 10
dft_spherical_points 1202
dft_radial_points 99
}

e = energy('b3lyp')

print_out('Grab this energy {0}'.format(e))
--------------------------------------------------------------------------

    Molecular point group: cs

    Geometry (in Bohr), charge = 0, multiplicity = 2:

       Center              X                  Y                   Z               Mass
    ------------   -----------------  -----------------  -----------------  -----------------
         C           -0.325006979204    -0.001525522810     0.000000000000    12.000000000000
         C            0.061702497896    -1.401010434210    -2.425430844900    12.000000000000
         C            0.061818432496     2.802984039090     0.000000000000    12.000000000000
         C            0.061702497896    -1.401010434210     2.425430844900    12.000000000000
         H            2.086781531296    -1.645568602510    -2.843720807900     1.007825032230
         H           -0.764342663104    -0.385156331710    -4.021479233200     1.007825032230
         H           -0.766875140104    -3.293032095610    -2.353865668000     1.007825032230
         H            2.086307529096     3.293205709490     0.000000000000     1.007825032230
         H           -0.766528096004     3.680502090390     1.677209750500     1.007825032230
         H           -0.766528096004     3.680502090390    -1.677209750500     1.007825032230
         H            2.086781531296    -1.645568602510     2.843720807900     1.007825032230
         H           -0.766875140104    -3.293032095610     2.353865668000     1.007825032230
         H           -0.764342663104    -0.385156331710     4.021479233200     1.007825032230

  Charge       = 0
  Multiplicity = 2
  Basis Set: ANONYMOUSF1F1A2C1
    Blend: 6-31G_2DFP_
  Basis Set: (ANONYMOUSF1F1A2C1 AUX)
    Blend: DEF2-UNIVERSAL-JKFIT

    Orbital Energies [Eh]
    ---------------------

    Alpha Occupied:

       1Ap   -10.180407     2Ap   -10.167191     1App  -10.166931
       3Ap   -10.166898     4Ap    -0.797751     2App   -0.686291
       5Ap    -0.686047     6Ap    -0.530782     7Ap    -0.441185
       3App   -0.434679     8Ap    -0.434534     4App   -0.382740
       9Ap    -0.382672     5App   -0.363486     6App   -0.337971
      10Ap    -0.337841    11Ap    -0.169144

    Alpha Virtual:

      12Ap     0.076076    13Ap     0.134120     7App    0.134184
       8App    0.142544    14Ap     0.142663    15Ap     0.154959
       9App    0.178807    16Ap     0.178886    17Ap     0.203574
      10App    0.214756    18Ap     0.275545    11App    0.276081
      19Ap     0.399163    12App    0.399247    20Ap     0.403272
      13App    0.424014    21Ap     0.424126    22Ap     0.456686
      14App    0.495305    23Ap     0.495423    15App    0.512205
      24Ap     0.513880    25Ap     0.578653    16App    0.579237
      26Ap     0.591364    17App    0.591954    27Ap     0.602794
      28Ap     0.624678    18App    0.631717    29Ap     0.636058
      19App    0.636128    20App    0.663538    30Ap     0.663603
      31Ap     0.683713    21App    0.683773    32Ap     0.734797
      22App    0.825135    33Ap     0.825568    23App    0.853917
      34Ap     0.914813    24App    0.915098    25App    0.944172
      35Ap     0.944661    26App    0.960616    36Ap     0.962008
      37Ap     1.003464    27App    1.127989    38Ap     1.128410
      39Ap     1.142237    28App    1.163612    40Ap     1.163804
      41Ap     1.223164    42Ap     1.274270    29App    1.274580
      43Ap     1.279590    30App    1.324102    44Ap     1.324116
      45Ap     1.356233    46Ap     1.365517    31App    1.365837
      32App    1.392463    47Ap     1.403780    33App    1.404418
      48Ap     1.416958    34App    1.417741    35App    1.427960
      36App    1.491312    49Ap     1.499470    37App    1.542609
      50Ap     1.543149    38App    1.574153    51Ap     1.574167
      52Ap     1.669561    53Ap     1.738800    39App    1.739555
      54Ap     1.768365    55Ap     1.830522    40App    1.831504
      41App    1.971464    56Ap     2.017162    42App    2.019301
      57Ap     2.019523    58Ap     2.052219    43App    2.053838
      44App    2.738013    59Ap     2.738561    60Ap     2.791126
      45App    2.811385    61Ap     2.889400    46App    2.889989
      62Ap     2.895299    63Ap     2.929493    47App    2.929541
      48App    2.958926    49App    2.964121    64Ap     2.964408
      65Ap     3.034357    50App    3.070299    66Ap     3.070579
      51App    3.084278    67Ap     3.168697    52App    3.169113
      68Ap     3.180553    69Ap     3.286062    53App    3.286155
      70Ap     3.327187    54App    3.327850    71Ap     3.375786
      72Ap     3.489787    55App    3.490055    56App    3.513845
      73Ap     3.525770    74Ap     3.567821    57App    3.568315
      58App    3.575850    59App    3.665654    75Ap     3.665928
      76Ap     3.679401    77Ap     3.693785    60App    3.694628
      61App    3.775288    78Ap     3.777776    79Ap     3.787885
      80Ap     3.911940    62App    3.912478    81Ap     4.034139
      82Ap     4.109875    63App    4.112380    83Ap     4.147171
      64App    4.148985    84Ap     4.173229    85Ap     4.202282
      86Ap     4.203321    65App    4.203374    66App    4.210914
      87Ap     4.315361    67App    4.316909    68App    4.359511
      69App    4.424039    88Ap     4.424559    70App    4.443187
      89Ap     4.516717    71App    4.517543    90Ap     4.578050
      72App    4.578714    91Ap     4.617029    92Ap     4.709777
      73App    4.773341    93Ap     4.775532    74App    4.835754
      94Ap     4.962957    95Ap     5.002757    75App    5.003437
      96Ap     5.227932    76App    5.246224    97Ap     5.247182
      98Ap     5.354502    77App    5.355948    78App    5.478989

    Beta Occupied:

       1Ap   -10.167947     1App  -10.167681     2Ap   -10.167665
       3Ap   -10.166580     4Ap    -0.781081     2App   -0.684083
       5Ap    -0.683855     6Ap    -0.511744     3App   -0.431030
       7Ap    -0.430912     8Ap    -0.421906     4App   -0.376832
       9Ap    -0.376772     5App   -0.362468     6App   -0.333094
      10Ap    -0.332971

    Beta Virtual:

      11Ap    -0.025844    12Ap     0.077080    13Ap     0.135008
       7App    0.135055     8App    0.144415    14Ap     0.144538
      15Ap     0.163408     9App    0.182498    16Ap     0.182540
      10App    0.214986    17Ap     0.218934    18Ap     0.281915
      11App    0.282431    19Ap     0.400340    12App    0.400415
      20Ap     0.419683    13App    0.426826    21Ap     0.426944
      22Ap     0.468608    14App    0.497573    23Ap     0.497686
      15App    0.513936    24Ap     0.556225    25Ap     0.584188
      16App    0.584774    26Ap     0.597564    17App    0.598126
      27Ap     0.610189    28Ap     0.628078    18App    0.631873
      29Ap     0.639329    19App    0.639439    20App    0.667102
      30Ap     0.667171    31Ap     0.686321    21App    0.686424
      32Ap     0.757341    22App    0.830285    33Ap     0.830762
      23App    0.855267    34Ap     0.922829    24App    0.923043
      25App    0.946006    35Ap     0.953579    26App    0.965944
      36Ap     0.967231    37Ap     1.008724    27App    1.131951
      38Ap     1.132520    39Ap     1.155586    28App    1.168762
      40Ap     1.168793    41Ap     1.232132    42Ap     1.279884
      29App    1.280192    43Ap     1.285352    44Ap     1.329096
      30App    1.329116    45Ap     1.365625    46Ap     1.370783
      31App    1.371046    32App    1.393515    47Ap     1.407220
      33App    1.407905    48Ap     1.421993    34App    1.422764
      35App    1.428234    36App    1.492358    49Ap     1.509921
      37App    1.547016    50Ap     1.547555    38App    1.582026
      51Ap     1.582040    52Ap     1.674424    53Ap     1.744552
      39App    1.745323    54Ap     1.779124    55Ap     1.834372
      40App    1.835348    41App    1.972322    42App    2.025686
      56Ap     2.025784    57Ap     2.038693    58Ap     2.058927
      43App    2.060598    44App    2.746364    59Ap     2.746882
      45App    2.811807    60Ap     2.816241    61Ap     2.902220
      46App    2.902659    62Ap     2.924965    63Ap     2.931975
      47App    2.931994    48App    2.959988    49App    2.968694
      64Ap     2.968945    65Ap     3.042251    50App    3.080258
      66Ap     3.080518    51App    3.086089    67Ap     3.184321
      52App    3.184800    68Ap     3.188277    69Ap     3.290797
      53App    3.290940    70Ap     3.331017    54App    3.331645
      71Ap     3.383615    72Ap     3.492554    55App    3.492783
      56App    3.512216    73Ap     3.528831    57App    3.575522
      74Ap     3.581154    58App    3.581927    75Ap     3.670452
      59App    3.670620    76Ap     3.692697    77Ap     3.725704
      60App    3.725945    61App    3.779901    78Ap     3.782301
      79Ap     3.816423    80Ap     3.921736    62App    3.922240
      81Ap     4.045055    82Ap     4.116790    63App    4.119069
      83Ap     4.154375    64App    4.156229    84Ap     4.187242
      85Ap     4.209220    65App    4.209327    86Ap     4.210286
      66App    4.215367    87Ap     4.322799    67App    4.324387
      68App    4.362879    69App    4.432257    88Ap     4.432687
      70App    4.446075    89Ap     4.524500    71App    4.525305
      90Ap     4.588684    72App    4.589347    91Ap     4.624217
      92Ap     4.720148    73App    4.780350    93Ap     4.782458
      74App    4.838684    94Ap     4.967748    95Ap     5.006774
      75App    5.007472    96Ap     5.233649    76App    5.248000
      97Ap     5.248974    98Ap     5.360969    77App    5.362458
      78App    5.481317

    Final Occupation by Irrep:
             Ap   App
    DOCC [    10,    6 ]
    SOCC [     1,    0 ]

  @DF-UKS Final Energy:  -157.81306018696591

   => Energetics <=

    Nuclear Repulsion Energy =            125.3922110836005146
    One-Electron Energy =                -458.7442518147730652
    Two-Electron Energy =                 195.8460545892326081
    DFT Exchange-Correlation Energy =     -20.3070740450259422
    Empirical Dispersion Energy =           0.0000000000000000
    VV10 Nonlocal Energy =                  0.0000000000000000
    Total Energy =                       -157.8130601869659131

  UHF NO Occupations:
  HONO-2 :    9 Ap 1.9996024
  HONO-1 :   10 Ap 1.9989820
  HONO-0 :   11 Ap 1.0000000
  LUNO+0 :   12 Ap 0.0010180
  LUNO+1 :   13 Ap 0.0003976
  LUNO+2 :   14 Ap 0.0001980
  LUNO+3 :    7App 0.0001973

Computation Completed

Properties will be evaluated at   0.000000,   0.000000,   0.000000 [a0]

Properties computed using the SCF density matrix

  Nuclear Dipole Moment: [e a0]
     X:     0.8257      Y:     0.0033      Z:     0.0000

  Electronic Dipole Moment: [e a0]
     X:    -0.7470      Y:    -0.0033      Z:     0.0000

  Dipole Moment: [e a0]
     X:     0.0787      Y:    -0.0000      Z:     0.0000     Total:     0.0787

  Dipole Moment: [D]
     X:     0.2000      Y:    -0.0001      Z:     0.0000     Total:     0.2000

*** tstop() called on n031 at Fri Nov  5 11:41:02 2021
Module time:
	user time   =     819.75 seconds =      13.66 minutes
	system time =      15.57 seconds =       0.26 minutes
	total time  =        209 seconds =       3.48 minutes
Total time:
	user time   =     819.75 seconds =      13.66 minutes
	system time =      15.57 seconds =       0.26 minutes
	total time  =        209 seconds =       3.48 minutes
Grab this energy -157.8130601869659
    Psi4 stopped on: Friday, 05 November 2021 11:41AM
    Psi4 wall time for execution: 0:03:29.79

*** Psi4 exiting successfully. Buy a developer a beer!
