                               Psi4 1.4a2.dev629

  ==> Input File <==

--------------------------------------------------------------------------
import os
memory 14 GB

molecule {
 C   -0.3233398905   -0.0024925796    0.0000000000
 C    0.0611106207   -1.4017764018   -2.4258676382
 C    0.0610796107    2.8017494255    0.0000000000
 C    0.0611106207   -1.4017764018    2.4258676382
 H    2.0849558191   -1.6461268218   -2.8439127587
 H   -0.7627980412   -0.3871725202   -4.0207895847
 H   -0.7654924187   -3.2912139183   -2.3543876385
 H    2.0907536049    3.2922002616    0.0000000000
 H   -0.7683265808    3.6805489515    1.6813098895
 H   -0.7683265808    3.6805489515   -1.6813098895
 H    2.0849558191   -1.6461268218    2.8439127587
 H   -0.7654924187   -3.2912139183    2.3543876385
 H   -0.7627980412   -0.3871725202    4.0207895847
units bohr
0 2
}

basis {

assign 6-31g_2dfp_

[ 6-31g_2dfp_ ]

spherical

!----------------------------------------------------------------------
! Basis Set Exchange
! Version v0.8.13
! https://www.basissetexchange.org
!----------------------------------------------------------------------
!   Basis set: 6-31G(2df,p)
! Description: 6-31G(2df,p)
!        Role: orbital
!     Version: 0  (Data from the original Basis Set Exchange)
!----------------------------------------------------------------------

****
H     0
S    3   1.00
     18.7311370              0.03349460
      2.8253937              0.23472695
      0.6401217              0.81375733
S    1   1.00
      0.1612778              1.00000000
P    1   1.00
      1.5000000              1.0000000
P    1   1.00
      0.3750000              1.0000000
****
B     0
S    6   1.00
   2068.8823000              0.0018663
    310.6495700              0.0142515
     70.6830330              0.0695516
     19.8610800              0.2325729
      6.2993048              0.4670787
      2.1270270              0.3634314
SP   3   1.00
      4.7279710             -0.1303938              0.0745976
      1.1903377             -0.1307889              0.3078467
      0.3594117              1.1309444              0.7434568
SP   1   1.00
      0.1267512              1.0000000              1.0000000
D    1   1.00
      0.8020000              1.0000000
D    1   1.00
      0.2005000              1.0000000
F    1   1.00
      0.5000000              1.0000000
****
C     0
S    6   1.00
   3047.5249000              0.0018347
    457.3695100              0.0140373
    103.9486900              0.0688426
     29.2101550              0.2321844
      9.2866630              0.4679413
      3.1639270              0.3623120
SP   3   1.00
      7.8682724             -0.1193324              0.0689991
      1.8812885             -0.1608542              0.3164240
      0.5442493              1.1434564              0.7443083
SP   1   1.00
      0.1687144              1.0000000              1.0000000
D    1   1.00
      1.2520000              1.0000000
D    1   1.00
      0.3130000              1.0000000
F    1   1.00
      0.8000000              1.0000000
****
N     0
S    6   1.00
   4173.5110000              0.0018348
    627.4579000              0.0139950
    142.9021000              0.0685870
     40.2343300              0.2322410
     12.8202100              0.4690700
      4.3904370              0.3604550
SP   3   1.00
     11.6263580             -0.1149610              0.0675800
      2.7162800             -0.1691180              0.3239070
      0.7722180              1.1458520              0.7408950
SP   1   1.00
      0.2120313              1.0000000              1.0000000
D    1   1.00
      1.8260000              1.0000000
D    1   1.00
      0.4565000              1.0000000
F    1   1.00
      1.0000000              1.0000000
****
O     0
S    6   1.00
   5484.6717000              0.0018311
    825.2349500              0.0139501
    188.0469600              0.0684451
     52.9645000              0.2327143
     16.8975700              0.4701930
      5.7996353              0.3585209
SP   3   1.00
     15.5396160             -0.1107775              0.0708743
      3.5999336             -0.1480263              0.3397528
      1.0137618              1.1307670              0.7271586
SP   1   1.00
      0.2700058              1.0000000              1.0000000
D    1   1.00
      2.5840000              1.0000000
D    1   1.00
      0.6460000              1.0000000
F    1   1.00
      1.4000000              1.0000000
****
F     0
S    6   1.00
   7001.7130900              0.0018196169
   1051.3660900              0.0139160796
    239.2856900              0.0684053245
     67.3974453              0.233185760
     21.5199573              0.471267439
      7.40310130             0.356618546
SP   3   1.00
     20.8479528             -0.108506975            0.0716287243
      4.80830834            -0.146451658            0.3459121030
      1.34406986             1.128688580            0.7224699570
SP   1   1.00
      0.358151393            1.0000000              1.0000000
D    1   1.00
      3.5000000              1.0000000
D    1   1.00
      0.8750000              1.0000000
F    1   1.00
      1.8500000              1.0000000
****
Al     0
S    6   1.00
  13983.1000000              0.00194267
   2098.7500000              0.0148599
    477.7050000              0.0728494
    134.3600000              0.2468300
     42.8709000              0.4872580
     14.5189000              0.3234960
SP   6   1.00
    239.6680000             -0.00292619             0.00460285
     57.4419000             -0.0374080              0.0331990
     18.2859000             -0.1144870              0.1362820
      6.5991400              0.1156350              0.3304760
      2.4904900              0.6125950              0.4491460
      0.9445400              0.3937990              0.2657040
SP   3   1.00
      1.2779000             -0.2276060             -0.0175130
      0.3975900              0.00144583             0.2445330
      0.1600950              1.0927900              0.8049340
SP   1   1.00
      0.0556577              1.0000000              1.0000000
D    1   1.00
      0.6500000              1.0000000
D    1   1.00
      0.1625000              1.0000000
F    1   1.00
      0.2500000              1.0000000
****
Si     0
S    6   1.00
  16115.9000000              0.00195948
   2425.5800000              0.01492880
    553.8670000              0.07284780
    156.3400000              0.24613000
     50.0683000              0.48591400
     17.0178000              0.32500200
SP   6   1.00
    292.7180000             -0.00278094             0.00443826
     69.8731000             -0.03571460             0.03266790
     22.3363000             -0.11498500             0.13472100
      8.1503900              0.09356340             0.32867800
      3.1345800              0.60301700             0.44964000
      1.2254300              0.41895900             0.26137200
SP   3   1.00
      1.7273800             -0.24463000            -0.01779510
      0.5729220              0.00431572             0.25353900
      0.2221920              1.09818000             0.80066900
SP   1   1.00
      0.0778369              1.00000000             1.00000000
D    1   1.00
      0.9000000              1.0000000
D    1   1.00
      0.2250000              1.0000000
F    1   1.00
      0.3200000              1.0000000
****
P     0
S    6   1.00
  19413.3000000              0.0018516
   2909.4200000              0.0142062
    661.3640000              0.0699995
    185.7590000              0.2400790
     59.1943000              0.4847620
     20.0310000              0.3352000
SP   6   1.00
    339.4780000             -0.00278217             0.00456462
     81.0101000             -0.0360499              0.03369360
     25.8780000             -0.1166310              0.13975500
      9.4522100              0.0968328              0.33936200
      3.6656600              0.6144180              0.45092100
      1.4674600              0.4037980              0.23858600
SP   3   1.00
      2.1562300             -0.2529230             -0.01776530
      0.7489970              0.0328517              0.27405800
      0.2831450              1.0812500              0.78542100
SP   1   1.00
      0.0998317              1.0000000              1.00000000
D    1   1.00
      1.1000000              1.0000000
D    1   1.00
      0.2750000              1.0000000
F    1   1.00
      0.4500000              1.0000000
****
S     0
S    6   1.00
  21917.1000000              0.0018690
   3301.4900000              0.0142300
    754.1460000              0.0696960
    212.7110000              0.2384870
     67.9896000              0.4833070
     23.0515000              0.3380740
SP   6   1.00
    423.7350000             -0.0023767              0.0040610
    100.7100000             -0.0316930              0.0306810
     32.1599000             -0.1133170              0.1304520
     11.8079000              0.0560900              0.3272050
      4.6311000              0.5922550              0.4528510
      1.8702500              0.4550060              0.2560420
SP   3   1.00
      2.6158400             -0.2503740             -0.0145110
      0.9221670              0.0669570              0.3102630
      0.3412870              1.0545100              0.7544830
SP   1   1.00
      0.1171670              1.0000000              1.0000000
D    1   1.00
      1.3000000              1.0000000
D    1   1.00
      0.3250000              1.0000000
F    1   1.00
      0.5500000              1.0000000
****
Cl     0
S    6   1.00
  25180.1000000              0.0018330
   3780.3500000              0.0140340
    860.4740000              0.0690970
    242.1450000              0.2374520
     77.3349000              0.4830340
     26.2470000              0.3398560
SP   6   1.00
    491.7650000             -0.0022974              0.0039894
    116.9840000             -0.0307140              0.0303180
     37.4153000             -0.1125280              0.1298800
     13.7834000              0.0450160              0.3279510
      5.4521500              0.5893530              0.4535270
      2.2258800              0.4652060              0.2521540
SP   3   1.00
      3.1864900             -0.2518300             -0.0142990
      1.1442700              0.0615890              0.3235720
      0.4203770              1.0601800              0.7435070
SP   1   1.00
      0.1426570              1.0000000              1.0000000
D    1   1.00
      1.5000000              1.0000000
D    1   1.00
      0.3750000              1.0000000
F    1   1.00
      0.7000000              1.0000000
****
}

set {
reference uhf
freeze_core true
e_convergence 10
d_convergence 10
dft_spherical_points 1202
dft_radial_points 99
}

e = energy('b3lyp')

print_out('Grab this energy {0}'.format(e))
--------------------------------------------------------------------------

    Molecular point group: cs

    Geometry (in Bohr), charge = 0, multiplicity = 2:

       Center              X                  Y                   Z               Mass
    ------------   -----------------  -----------------  -----------------  -----------------
         C           -0.323340072792    -0.001664717841     0.000000000000    12.000000000000
         C            0.061110438408    -1.400948540041    -2.425867638200    12.000000000000
         C            0.061079428408     2.802577287259     0.000000000000    12.000000000000
         C            0.061110438408    -1.400948540041     2.425867638200    12.000000000000
         H            2.084955636808    -1.645298960041    -2.843912758700     1.007825032230
         H           -0.762798223492    -0.386344658441    -4.020789584700     1.007825032230
         H           -0.765492600992    -3.290386056541    -2.354387638500     1.007825032230
         H            2.090753422608     3.293028123359     0.000000000000     1.007825032230
         H           -0.768326763092     3.681376813259     1.681309889500     1.007825032230
         H           -0.768326763092     3.681376813259    -1.681309889500     1.007825032230
         H            2.084955636808    -1.645298960041     2.843912758700     1.007825032230
         H           -0.765492600992    -3.290386056541     2.354387638500     1.007825032230
         H           -0.762798223492    -0.386344658441     4.020789584700     1.007825032230

  Charge       = 0
  Multiplicity = 2
  Basis Set: ANONYMOUSD2A04254
    Blend: 6-31G_2DFP_
  Basis Set: (ANONYMOUSD2A04254 AUX)
    Blend: DEF2-UNIVERSAL-JKFIT

    Orbital Energies [Eh]
    ---------------------

    Alpha Occupied:

       1Ap   -10.180342     2Ap   -10.167867     1App  -10.166604
       3Ap   -10.166573     4Ap    -0.797768     2App   -0.686630
       5Ap    -0.685743     6Ap    -0.530776     7Ap    -0.441130
       8Ap    -0.434686     3App   -0.434658     4App   -0.382856
       9Ap    -0.382339     5App   -0.363608     6App   -0.338033
      10Ap    -0.337965    11Ap    -0.168961

    Alpha Virtual:

      12Ap     0.076070    13Ap     0.134115     7App    0.134175
       8App    0.142474    14Ap     0.142798    15Ap     0.154874
      16Ap     0.178500     9App    0.179063    17Ap     0.203547
      10App    0.214803    18Ap     0.275763    11App    0.276208
      19Ap     0.399108    12App    0.399347    20Ap     0.403345
      13App    0.423946    21Ap     0.424250    22Ap     0.456593
      23Ap     0.495378    14App    0.495402    15App    0.512158
      24Ap     0.513979    25Ap     0.578400    16App    0.579233
      26Ap     0.590999    17App    0.592228    27Ap     0.602612
      28Ap     0.624756    18App    0.631659    19App    0.636020
      29Ap     0.636603    30Ap     0.663265    20App    0.663563
      31Ap     0.683520    21App    0.684202    32Ap     0.734994
      22App    0.824786    33Ap     0.826020    23App    0.853915
      34Ap     0.914887    24App    0.915149    25App    0.944130
      35Ap     0.944622    26App    0.960355    36Ap     0.962240
      37Ap     1.003458    38Ap     1.127981    27App    1.128228
      39Ap     1.142223    28App    1.163090    40Ap     1.163461
      41Ap     1.223322    42Ap     1.274150    29App    1.274824
      43Ap     1.279348    30App    1.323992    44Ap     1.324719
      45Ap     1.355983    46Ap     1.365626    31App    1.366464
      32App    1.392445    47Ap     1.403340    33App    1.404768
      48Ap     1.416405    34App    1.417819    35App    1.427912
      36App    1.491496    49Ap     1.499091    37App    1.542504
      50Ap     1.543162    38App    1.574155    51Ap     1.574741
      52Ap     1.669805    53Ap     1.739115    39App    1.739718
      54Ap     1.768282    55Ap     1.829382    40App    1.833494
      41App    1.971677    56Ap     2.017657    42App    2.018932
      57Ap     2.019838    58Ap     2.051909    43App    2.053405
      44App    2.737766    59Ap     2.739202    60Ap     2.790932
      45App    2.811420    61Ap     2.889409    46App    2.890507
      62Ap     2.894935    47App    2.929415    63Ap     2.929577
      48App    2.959004    64Ap     2.964000    49App    2.964768
      65Ap     3.034016    66Ap     3.071209    50App    3.071365
      51App    3.084362    67Ap     3.168697    52App    3.168866
      68Ap     3.180600    53App    3.285294    69Ap     3.285346
      70Ap     3.326869    54App    3.327451    71Ap     3.375617
      55App    3.489454    72Ap     3.490842    56App    3.514024
      73Ap     3.525341    74Ap     3.568056    57App    3.568446
      58App    3.575432    75Ap     3.665619    59App    3.666936
      76Ap     3.679749    77Ap     3.693239    60App    3.695050
      61App    3.776171    78Ap     3.777485    79Ap     3.789162
      80Ap     3.911510    62App    3.912945    81Ap     4.034408
      82Ap     4.109261    63App    4.113237    64App    4.146931
      83Ap     4.149222    84Ap     4.173436    85Ap     4.200407
      65App    4.203536    86Ap     4.204696    66App    4.211268
      87Ap     4.314472    67App    4.317344    68App    4.359039
      69App    4.423829    88Ap     4.424960    70App    4.443610
      89Ap     4.516137    71App    4.517480    72App    4.578186
      90Ap     4.578352    91Ap     4.617526    92Ap     4.709501
      73App    4.773576    93Ap     4.775622    74App    4.836953
      94Ap     4.962847    95Ap     5.002091    75App    5.003878
      96Ap     5.227833    76App    5.242543    97Ap     5.250970
      98Ap     5.351978    77App    5.359258    78App    5.479478

    Beta Occupied:

       1Ap   -10.168629     1App  -10.167354     2Ap   -10.167344
       3Ap   -10.166516     4Ap    -0.781094     2App   -0.684425
       5Ap    -0.683553     6Ap    -0.511748     7Ap    -0.431082
       3App   -0.431008     8Ap    -0.421824     4App   -0.376946
       9Ap    -0.376419     5App   -0.362593     6App   -0.333159
      10Ap    -0.333085

    Beta Virtual:

      11Ap    -0.025743    12Ap     0.077079     7App    0.135000
      13Ap     0.135070     8App    0.144390    14Ap     0.144622
      15Ap     0.163334    16Ap     0.182162     9App    0.182744
      10App    0.215033    17Ap     0.218929    18Ap     0.282124
      11App    0.282544    19Ap     0.400277    12App    0.400519
      20Ap     0.419786    13App    0.426753    21Ap     0.427069
      22Ap     0.468501    23Ap     0.497636    14App    0.497665
      15App    0.513894    24Ap     0.556325    25Ap     0.583941
      16App    0.584791    26Ap     0.597223    17App    0.598371
      27Ap     0.610024    28Ap     0.628137    18App    0.631864
      19App    0.639299    29Ap     0.639847    30Ap     0.666817
      20App    0.667139    31Ap     0.686168    21App    0.686824
      32Ap     0.757517    22App    0.829906    33Ap     0.831236
      23App    0.855270    34Ap     0.922891    24App    0.923083
      25App    0.945968    35Ap     0.953547    26App    0.965747
      36Ap     0.967466    37Ap     1.008699    38Ap     1.132070
      27App    1.132196    39Ap     1.155600    28App    1.168231
      40Ap     1.168466    41Ap     1.232295    42Ap     1.279747
      29App    1.280422    43Ap     1.285102    30App    1.328951
      44Ap     1.329738    45Ap     1.365389    46Ap     1.370923
      31App    1.371663    32App    1.393510    47Ap     1.406760
      33App    1.408274    48Ap     1.421418    34App    1.422908
      35App    1.428180    36App    1.492545    49Ap     1.509534
      37App    1.546866    50Ap     1.547616    38App    1.582035
      51Ap     1.582604    52Ap     1.674650    53Ap     1.744854
      39App    1.745504    54Ap     1.779061    55Ap     1.833271
      40App    1.837317    41App    1.972543    42App    2.025380
      56Ap     2.025473    57Ap     2.039744    58Ap     2.058659
      43App    2.060087    44App    2.746103    59Ap     2.747539
      45App    2.811833    60Ap     2.816065    61Ap     2.902237
      46App    2.903048    62Ap     2.924643    47App    2.931934
      63Ap     2.932023    48App    2.960067    64Ap     2.968490
      49App    2.969368    65Ap     3.041952    66Ap     3.081054
      50App    3.081312    51App    3.086209    67Ap     3.184423
      52App    3.184613    68Ap     3.188307    53App    3.290091
      69Ap     3.290147    70Ap     3.330670    54App    3.331258
      71Ap     3.383435    55App    3.492196    72Ap     3.493559
      56App    3.512390    73Ap     3.528390    57App    3.574741
      74Ap     3.581378    58App    3.582345    75Ap     3.670156
      59App    3.671992    76Ap     3.692984    77Ap     3.725170
      60App    3.726343    61App    3.780711    78Ap     3.782003
      79Ap     3.817707    80Ap     3.921358    62App    3.922731
      81Ap     4.045287    82Ap     4.116410    63App    4.119691
      64App    4.154400    83Ap     4.156225    84Ap     4.187475
      85Ap     4.207064    65App    4.209519    86Ap     4.211880
      66App    4.215772    87Ap     4.322006    67App    4.324668
      68App    4.362414    69App    4.432067    88Ap     4.433077
      70App    4.446575    89Ap     4.523998    71App    4.525197
      72App    4.588829    90Ap     4.588906    91Ap     4.624722
      92Ap     4.719845    73App    4.780601    93Ap     4.782502
      74App    4.839872    94Ap     4.967643    95Ap     5.006138
      75App    5.007909    96Ap     5.233547    76App    5.244322
      97Ap     5.252766    98Ap     5.358449    77App    5.365745
      78App    5.481799

    Final Occupation by Irrep:
             Ap   App
    DOCC [    10,    6 ]
    SOCC [     1,    0 ]

  @DF-UKS Final Energy:  -157.81305167250088

   => Energetics <=

    Nuclear Repulsion Energy =            125.3946922687255352
    One-Electron Energy =                -458.7490020233070709
    Two-Electron Energy =                 195.8484067858941557
    DFT Exchange-Correlation Energy =     -20.3071487038134890
    Empirical Dispersion Energy =           0.0000000000000000
    VV10 Nonlocal Energy =                  0.0000000000000000
    Total Energy =                       -157.8130516725008761

  UHF NO Occupations:
  HONO-2 :    9 Ap 1.9996009
  HONO-1 :   10 Ap 1.9989805
  HONO-0 :   11 Ap 1.0000000
  LUNO+0 :   12 Ap 0.0010195
  LUNO+1 :   13 Ap 0.0003991
  LUNO+2 :   14 Ap 0.0001979
  LUNO+3 :    7App 0.0001972

Computation Completed

Properties will be evaluated at   0.000000,   0.000000,   0.000000 [a0]

Properties computed using the SCF density matrix

  Nuclear Dipole Moment: [e a0]
     X:     0.8272      Y:     0.0058      Z:     0.0000

  Electronic Dipole Moment: [e a0]
     X:    -0.7493      Y:    -0.0083      Z:     0.0000

  Dipole Moment: [e a0]
     X:     0.0779      Y:    -0.0025      Z:     0.0000     Total:     0.0780

  Dipole Moment: [D]
     X:     0.1980      Y:    -0.0063      Z:     0.0000     Total:     0.1981

*** tstop() called on n021 at Fri Nov  5 15:11:46 2021
Module time:
	user time   =     634.02 seconds =      10.57 minutes
	system time =      12.16 seconds =       0.20 minutes
	total time  =        163 seconds =       2.72 minutes
Total time:
	user time   =     634.02 seconds =      10.57 minutes
	system time =      12.16 seconds =       0.20 minutes
	total time  =        163 seconds =       2.72 minutes
Grab this energy -157.81305167250088
    Psi4 stopped on: Friday, 05 November 2021 03:11PM
    Psi4 wall time for execution: 0:02:42.49

*** Psi4 exiting successfully. Buy a developer a beer!
