                               Psi4 1.4a2.dev629

  ==> Input File <==

--------------------------------------------------------------------------
import os
memory 14 GB

molecule {
 C   -0.3233404533    0.0002220087    0.0004927548
 C    0.0611398014   -1.4007291369   -2.4269199553
 C    0.0608524090    2.7994892868    0.0000396827
 C    0.0613076291   -1.4014368311    2.4282239380
 H    2.0905996952   -1.6438388351   -2.8466977187
 H   -0.7673615813   -0.3852389311   -4.0276398044
 H   -0.7675093383   -3.2949560670   -2.3471199217
 H    2.0867144532    3.2887887826   -0.0000287430
 H   -0.7656066628    3.6804223180    1.6760154983
 H   -0.7654242112    3.6814126912   -1.6766717431
 H    2.0833563487   -1.6442936392    2.8474321170
 H   -0.7636517179   -3.2889754868    2.3501070284
 H   -0.7636842485   -0.3908904739    4.0227668669
units bohr
0 2
}

basis {

assign 6-31g_2dfp_

[ 6-31g_2dfp_ ]

spherical

!----------------------------------------------------------------------
! Basis Set Exchange
! Version v0.8.13
! https://www.basissetexchange.org
!----------------------------------------------------------------------
!   Basis set: 6-31G(2df,p)
! Description: 6-31G(2df,p)
!        Role: orbital
!     Version: 0  (Data from the original Basis Set Exchange)
!----------------------------------------------------------------------

****
H     0
S    3   1.00
     18.7311370              0.03349460
      2.8253937              0.23472695
      0.6401217              0.81375733
S    1   1.00
      0.1612778              1.00000000
P    1   1.00
      1.5000000              1.0000000
P    1   1.00
      0.3750000              1.0000000
****
B     0
S    6   1.00
   2068.8823000              0.0018663
    310.6495700              0.0142515
     70.6830330              0.0695516
     19.8610800              0.2325729
      6.2993048              0.4670787
      2.1270270              0.3634314
SP   3   1.00
      4.7279710             -0.1303938              0.0745976
      1.1903377             -0.1307889              0.3078467
      0.3594117              1.1309444              0.7434568
SP   1   1.00
      0.1267512              1.0000000              1.0000000
D    1   1.00
      0.8020000              1.0000000
D    1   1.00
      0.2005000              1.0000000
F    1   1.00
      0.5000000              1.0000000
****
C     0
S    6   1.00
   3047.5249000              0.0018347
    457.3695100              0.0140373
    103.9486900              0.0688426
     29.2101550              0.2321844
      9.2866630              0.4679413
      3.1639270              0.3623120
SP   3   1.00
      7.8682724             -0.1193324              0.0689991
      1.8812885             -0.1608542              0.3164240
      0.5442493              1.1434564              0.7443083
SP   1   1.00
      0.1687144              1.0000000              1.0000000
D    1   1.00
      1.2520000              1.0000000
D    1   1.00
      0.3130000              1.0000000
F    1   1.00
      0.8000000              1.0000000
****
N     0
S    6   1.00
   4173.5110000              0.0018348
    627.4579000              0.0139950
    142.9021000              0.0685870
     40.2343300              0.2322410
     12.8202100              0.4690700
      4.3904370              0.3604550
SP   3   1.00
     11.6263580             -0.1149610              0.0675800
      2.7162800             -0.1691180              0.3239070
      0.7722180              1.1458520              0.7408950
SP   1   1.00
      0.2120313              1.0000000              1.0000000
D    1   1.00
      1.8260000              1.0000000
D    1   1.00
      0.4565000              1.0000000
F    1   1.00
      1.0000000              1.0000000
****
O     0
S    6   1.00
   5484.6717000              0.0018311
    825.2349500              0.0139501
    188.0469600              0.0684451
     52.9645000              0.2327143
     16.8975700              0.4701930
      5.7996353              0.3585209
SP   3   1.00
     15.5396160             -0.1107775              0.0708743
      3.5999336             -0.1480263              0.3397528
      1.0137618              1.1307670              0.7271586
SP   1   1.00
      0.2700058              1.0000000              1.0000000
D    1   1.00
      2.5840000              1.0000000
D    1   1.00
      0.6460000              1.0000000
F    1   1.00
      1.4000000              1.0000000
****
F     0
S    6   1.00
   7001.7130900              0.0018196169
   1051.3660900              0.0139160796
    239.2856900              0.0684053245
     67.3974453              0.233185760
     21.5199573              0.471267439
      7.40310130             0.356618546
SP   3   1.00
     20.8479528             -0.108506975            0.0716287243
      4.80830834            -0.146451658            0.3459121030
      1.34406986             1.128688580            0.7224699570
SP   1   1.00
      0.358151393            1.0000000              1.0000000
D    1   1.00
      3.5000000              1.0000000
D    1   1.00
      0.8750000              1.0000000
F    1   1.00
      1.8500000              1.0000000
****
Al     0
S    6   1.00
  13983.1000000              0.00194267
   2098.7500000              0.0148599
    477.7050000              0.0728494
    134.3600000              0.2468300
     42.8709000              0.4872580
     14.5189000              0.3234960
SP   6   1.00
    239.6680000             -0.00292619             0.00460285
     57.4419000             -0.0374080              0.0331990
     18.2859000             -0.1144870              0.1362820
      6.5991400              0.1156350              0.3304760
      2.4904900              0.6125950              0.4491460
      0.9445400              0.3937990              0.2657040
SP   3   1.00
      1.2779000             -0.2276060             -0.0175130
      0.3975900              0.00144583             0.2445330
      0.1600950              1.0927900              0.8049340
SP   1   1.00
      0.0556577              1.0000000              1.0000000
D    1   1.00
      0.6500000              1.0000000
D    1   1.00
      0.1625000              1.0000000
F    1   1.00
      0.2500000              1.0000000
****
Si     0
S    6   1.00
  16115.9000000              0.00195948
   2425.5800000              0.01492880
    553.8670000              0.07284780
    156.3400000              0.24613000
     50.0683000              0.48591400
     17.0178000              0.32500200
SP   6   1.00
    292.7180000             -0.00278094             0.00443826
     69.8731000             -0.03571460             0.03266790
     22.3363000             -0.11498500             0.13472100
      8.1503900              0.09356340             0.32867800
      3.1345800              0.60301700             0.44964000
      1.2254300              0.41895900             0.26137200
SP   3   1.00
      1.7273800             -0.24463000            -0.01779510
      0.5729220              0.00431572             0.25353900
      0.2221920              1.09818000             0.80066900
SP   1   1.00
      0.0778369              1.00000000             1.00000000
D    1   1.00
      0.9000000              1.0000000
D    1   1.00
      0.2250000              1.0000000
F    1   1.00
      0.3200000              1.0000000
****
P     0
S    6   1.00
  19413.3000000              0.0018516
   2909.4200000              0.0142062
    661.3640000              0.0699995
    185.7590000              0.2400790
     59.1943000              0.4847620
     20.0310000              0.3352000
SP   6   1.00
    339.4780000             -0.00278217             0.00456462
     81.0101000             -0.0360499              0.03369360
     25.8780000             -0.1166310              0.13975500
      9.4522100              0.0968328              0.33936200
      3.6656600              0.6144180              0.45092100
      1.4674600              0.4037980              0.23858600
SP   3   1.00
      2.1562300             -0.2529230             -0.01776530
      0.7489970              0.0328517              0.27405800
      0.2831450              1.0812500              0.78542100
SP   1   1.00
      0.0998317              1.0000000              1.00000000
D    1   1.00
      1.1000000              1.0000000
D    1   1.00
      0.2750000              1.0000000
F    1   1.00
      0.4500000              1.0000000
****
S     0
S    6   1.00
  21917.1000000              0.0018690
   3301.4900000              0.0142300
    754.1460000              0.0696960
    212.7110000              0.2384870
     67.9896000              0.4833070
     23.0515000              0.3380740
SP   6   1.00
    423.7350000             -0.0023767              0.0040610
    100.7100000             -0.0316930              0.0306810
     32.1599000             -0.1133170              0.1304520
     11.8079000              0.0560900              0.3272050
      4.6311000              0.5922550              0.4528510
      1.8702500              0.4550060              0.2560420
SP   3   1.00
      2.6158400             -0.2503740             -0.0145110
      0.9221670              0.0669570              0.3102630
      0.3412870              1.0545100              0.7544830
SP   1   1.00
      0.1171670              1.0000000              1.0000000
D    1   1.00
      1.3000000              1.0000000
D    1   1.00
      0.3250000              1.0000000
F    1   1.00
      0.5500000              1.0000000
****
Cl     0
S    6   1.00
  25180.1000000              0.0018330
   3780.3500000              0.0140340
    860.4740000              0.0690970
    242.1450000              0.2374520
     77.3349000              0.4830340
     26.2470000              0.3398560
SP   6   1.00
    491.7650000             -0.0022974              0.0039894
    116.9840000             -0.0307140              0.0303180
     37.4153000             -0.1125280              0.1298800
     13.7834000              0.0450160              0.3279510
      5.4521500              0.5893530              0.4535270
      2.2258800              0.4652060              0.2521540
SP   3   1.00
      3.1864900             -0.2518300             -0.0142990
      1.1442700              0.0615890              0.3235720
      0.4203770              1.0601800              0.7435070
SP   1   1.00
      0.1426570              1.0000000              1.0000000
D    1   1.00
      1.5000000              1.0000000
D    1   1.00
      0.3750000              1.0000000
F    1   1.00
      0.7000000              1.0000000
****
}

set {
reference uhf
freeze_core true
e_convergence 10
d_convergence 10
dft_spherical_points 1202
dft_radial_points 99
}

e = energy('b3lyp')

print_out('Grab this energy {0}'.format(e))
--------------------------------------------------------------------------

    Molecular point group: c1

    Geometry (in Bohr), charge = 0, multiplicity = 2:

       Center              X                  Y                   Z               Mass
    ------------   -----------------  -----------------  -----------------  -----------------
         C           -0.323340332159     0.000695225669     0.000139047044    12.000000000000
         C            0.061139922541    -1.400255919931    -2.427273663056    12.000000000000
         C            0.060852530141     2.799962503769    -0.000314025056    12.000000000000
         C            0.061307750241    -1.400963614131     2.427870230244    12.000000000000
         H            2.090599816341    -1.643365618131    -2.847051426456     1.007825032230
         H           -0.767361460159    -0.384765714131    -4.027993512156     1.007825032230
         H           -0.767509217159    -3.294482850031    -2.347473629456     1.007825032230
         H            2.086714574341     3.289261999569    -0.000382450756     1.007825032230
         H           -0.765606541659     3.680895534969     1.675661790544     1.007825032230
         H           -0.765424090059     3.681885908169    -1.677025450856     1.007825032230
         H            2.083356469841    -1.643820422231     2.847078409244     1.007825032230
         H           -0.763651596759    -3.288502269831     2.349753320644     1.007825032230
         H           -0.763684127359    -0.390417256931     4.022413159144     1.007825032230

  Charge       = 0
  Multiplicity = 2
  Basis Set: ANONYMOUS767F67B8
    Blend: 6-31G_2DFP_
  Basis Set: (ANONYMOUS767F67B8 AUX)
    Blend: DEF2-UNIVERSAL-JKFIT

    Orbital Energies [Eh]
    ---------------------

    Alpha Occupied:

       1A    -10.180342     2A    -10.167575     3A    -10.167057
       4A    -10.166412     5A     -0.797767     6A     -0.686511
       7A     -0.685864     8A     -0.530776     9A     -0.441125
      10A     -0.434791    11A     -0.434552    12A     -0.382839
      13A     -0.382359    14A     -0.363613    15A     -0.338207
      16A     -0.337788    17A     -0.168961

    Alpha Virtual:

      18A      0.076071    19A      0.134128    20A      0.134166
      21A      0.142515    22A      0.142755    23A      0.154875
      24A      0.178446    25A      0.179114    26A      0.203545
      27A      0.214805    28A      0.275755    29A      0.276217
      30A      0.399149    31A      0.399305    32A      0.403346
      33A      0.423992    34A      0.424202    35A      0.456592
      36A      0.495316    37A      0.495462    38A      0.512162
      39A      0.513979    40A      0.578689    41A      0.578936
      42A      0.591321    43A      0.591929    44A      0.602594
      45A      0.624765    46A      0.631696    47A      0.635840
      48A      0.636736    49A      0.663221    50A      0.663607
      51A      0.683544    52A      0.684176    53A      0.734994
      54A      0.825000    55A      0.825806    56A      0.853917
      57A      0.915005    58A      0.915048    59A      0.944130
      60A      0.944611    61A      0.961048    62A      0.961545
      63A      1.003453    64A      1.127766    65A      1.128446
      66A      1.142227    67A      1.162972    68A      1.163565
      69A      1.223324    70A      1.274137    71A      1.274826
      72A      1.279371    73A      1.323993    74A      1.324715
      75A      1.355978    76A      1.365753    77A      1.366361
      78A      1.392448    79A      1.403624    80A      1.404461
      81A      1.416761    82A      1.417450    83A      1.427927
      84A      1.491489    85A      1.499085    86A      1.542741
      87A      1.542921    88A      1.574108    89A      1.574790
      90A      1.669795    91A      1.739257    92A      1.739555
      93A      1.768326    94A      1.829733    95A      1.833133
      96A      1.971702    97A      2.017926    98A      2.018796
      99A      2.019651   100A      2.051989   101A      2.053354
     102A      2.738024   103A      2.738948   104A      2.790924
     105A      2.811429   106A      2.889654   107A      2.890200
     108A      2.894989   109A      2.929376   110A      2.929612
     111A      2.959005   112A      2.963850   113A      2.964916
     114A      3.034021   115A      3.071018   116A      3.071542
     117A      3.084382   118A      3.168558   119A      3.168984
     120A      3.180615   121A      3.285247   122A      3.285389
     123A      3.326977   124A      3.327345   125A      3.375607
     126A      3.489260   127A      3.491052   128A      3.514017
     129A      3.525344   130A      3.568285   131A      3.568456
     132A      3.575192   133A      3.665385   134A      3.667271
     135A      3.679669   136A      3.693636   137A      3.694662
     138A      3.776195   139A      3.777428   140A      3.789124
     141A      3.911349   142A      3.913088   143A      4.034437
     144A      4.110545   145A      4.112071   146A      4.146054
     147A      4.150089   148A      4.173319   149A      4.200674
     150A      4.203062   151A      4.204991   152A      4.211185
     153A      4.314956   154A      4.316938   155A      4.358950
     156A      4.423444   157A      4.425277   158A      4.443653
     159A      4.516126   160A      4.517525   161A      4.577847
     162A      4.578731   163A      4.617539   164A      4.709484
     165A      4.774261   166A      4.774895   167A      4.836893
     168A      4.962830   169A      5.002068   170A      5.003920
     171A      5.227836   172A      5.243097   173A      5.250499
     174A      5.352574   175A      5.358625   176A      5.479433

    Beta Occupied:

       1A    -10.168335     2A    -10.167820     3A    -10.167172
       4A    -10.166516     5A     -0.781092     6A     -0.684314
       7A     -0.683667     8A     -0.511747     9A     -0.431172
      10A     -0.430913    11A     -0.421823    12A     -0.376939
      13A     -0.376428    14A     -0.362597    15A     -0.333331
      16A     -0.332911

    Beta Virtual:

      17A     -0.025743    18A      0.077080    19A      0.134979
      20A      0.135096    21A      0.144433    22A      0.144576
      23A      0.163334    24A      0.182129    25A      0.182774
      26A      0.215035    27A      0.218928    28A      0.282111
      29A      0.282557    30A      0.400314    31A      0.400480
      32A      0.419791    33A      0.426800    34A      0.427017
      35A      0.468500    36A      0.497575    37A      0.497725
      38A      0.513897    39A      0.556324    40A      0.584230
      41A      0.584495    42A      0.597524    43A      0.598090
      44A      0.610013    45A      0.628141    46A      0.631888
      47A      0.639143    48A      0.639971    49A      0.666770
      50A      0.667185    51A      0.686215    52A      0.686775
      53A      0.757517    54A      0.830142    55A      0.831001
      56A      0.855271    57A      0.922975    58A      0.923020
      59A      0.945967    60A      0.953539    61A      0.966383
      62A      0.966822    63A      1.008693    64A      1.131785
      65A      1.132490    66A      1.155596    67A      1.168024
      68A      1.168663    69A      1.232297    70A      1.279731
      71A      1.280427    72A      1.285124    73A      1.328938
      74A      1.329748    75A      1.365386    76A      1.371028
      77A      1.371580    78A      1.393508    79A      1.407088
      80A      1.407927    81A      1.421775    82A      1.422530
      83A      1.428201    84A      1.492538    85A      1.509527
      86A      1.547111    87A      1.547365    88A      1.581983
      89A      1.582659    90A      1.674640    91A      1.745022
      92A      1.745317    93A      1.779104    94A      1.833620
      95A      1.836958    96A      1.972566    97A      2.024886
      98A      2.025994    99A      2.039656   100A      2.058704
     101A      2.060082   102A      2.746351   103A      2.747292
     104A      2.811840   105A      2.816059   106A      2.902433
     107A      2.902831   108A      2.924653   109A      2.931912
     110A      2.932046   111A      2.960069   112A      2.968354
     113A      2.969500   114A      3.041955   115A      3.080866
     116A      3.081474   117A      3.086241   118A      3.184272
     119A      3.184695   120A      3.188370   121A      3.290019
     122A      3.290214   123A      3.330793   124A      3.331137
     125A      3.383426   126A      3.492009   127A      3.493762
     128A      3.512383   129A      3.528388   130A      3.574948
     131A      3.581624   132A      3.581897   133A      3.670067
     134A      3.672107   135A      3.692985   136A      3.725271
     137A      3.726248   138A      3.780737   139A      3.781938
     140A      3.817670   141A      3.921217   142A      3.922854
     143A      4.045319   144A      4.117525   145A      4.118698
     146A      4.153500   147A      4.157099   148A      4.187369
     149A      4.207349   150A      4.209178   151A      4.212028
     152A      4.215679   153A      4.322453   154A      4.324315
     155A      4.362316   156A      4.431673   157A      4.433398
     158A      4.446619   159A      4.523938   160A      4.525293
     161A      4.588493   162A      4.589286   163A      4.624731
     164A      4.719829   165A      4.781222   166A      4.781839
     167A      4.839811   168A      4.967627   169A      5.006129
     170A      5.007935   171A      5.233545   172A      5.244888
     173A      5.252288   174A      5.359068   175A      5.365087
     176A      5.481754

    Final Occupation by Irrep:
              A
    DOCC [    16 ]
    SOCC [     1 ]

  @DF-UKS Final Energy:  -157.81305586462267

   => Energetics <=

    Nuclear Repulsion Energy =            125.3946653154720252
    One-Electron Energy =                -458.7489560571527250
    Two-Electron Energy =                 195.8483824899494437
    DFT Exchange-Correlation Energy =     -20.3071476128914234
    Empirical Dispersion Energy =           0.0000000000000000
    VV10 Nonlocal Energy =                  0.0000000000000000
    Total Energy =                       -157.8130558646226689

  UHF NO Occupations:
  HONO-2 :   15  A 1.9996008
  HONO-1 :   16  A 1.9989805
  HONO-0 :   17  A 1.0000000
  LUNO+0 :   18  A 0.0010195
  LUNO+1 :   19  A 0.0003992
  LUNO+2 :   20  A 0.0001979
  LUNO+3 :   21  A 0.0001972

Computation Completed

Properties will be evaluated at   0.000000,   0.000000,   0.000000 [a0]

Properties computed using the SCF density matrix

  Nuclear Dipole Moment: [e a0]
     X:     0.8272      Y:     0.0033      Z:    -0.0025

  Electronic Dipole Moment: [e a0]
     X:    -0.7493      Y:    -0.0034      Z:     0.0049

  Dipole Moment: [e a0]
     X:     0.0779      Y:    -0.0001      Z:     0.0024     Total:     0.0780

  Dipole Moment: [D]
     X:     0.1980      Y:    -0.0002      Z:     0.0062     Total:     0.1981

*** tstop() called on n071 at Fri Nov  5 13:00:45 2021
Module time:
	user time   =     614.99 seconds =      10.25 minutes
	system time =      14.43 seconds =       0.24 minutes
	total time  =        159 seconds =       2.65 minutes
Total time:
	user time   =     614.99 seconds =      10.25 minutes
	system time =      14.43 seconds =       0.24 minutes
	total time  =        159 seconds =       2.65 minutes
Grab this energy -157.81305586462267
    Psi4 stopped on: Friday, 05 November 2021 01:00PM
    Psi4 wall time for execution: 0:02:38.67

*** Psi4 exiting successfully. Buy a developer a beer!
