                               Psi4 1.4a2.dev629

  ==> Input File <==

--------------------------------------------------------------------------
import os
memory 14 GB

molecule {
 C   -0.3233385748   -0.0010226495   -0.0004332974
 C    0.0617822720   -1.3987798911   -2.4272565531
 C    0.0602740306    2.8021538566   -0.0013897833
 C    0.0612457292   -1.4000749279    2.4267221050
 H    2.0861075450   -1.6431350479   -2.8480602223
 H   -0.7637339894   -0.3885874750   -4.0247315398
 H   -0.7668478451   -3.2940353565   -2.3481374056
 H    2.0868815623    3.2880066764   -0.0034972350
 H   -0.7686383278    3.6810764983    1.6789852808
 H   -0.7622311513    3.6792687218   -1.6742029320
 H    2.0876837306   -1.6461552998    2.8462963100
 H   -0.7642477803   -3.2902662622    2.3495674500
 H   -0.7675450779   -0.3884731569    4.0261378227
units bohr
0 2
}

basis {

assign 6-31g_2dfp_

[ 6-31g_2dfp_ ]

spherical

!----------------------------------------------------------------------
! Basis Set Exchange
! Version v0.8.13
! https://www.basissetexchange.org
!----------------------------------------------------------------------
!   Basis set: 6-31G(2df,p)
! Description: 6-31G(2df,p)
!        Role: orbital
!     Version: 0  (Data from the original Basis Set Exchange)
!----------------------------------------------------------------------

****
H     0
S    3   1.00
     18.7311370              0.03349460
      2.8253937              0.23472695
      0.6401217              0.81375733
S    1   1.00
      0.1612778              1.00000000
P    1   1.00
      1.5000000              1.0000000
P    1   1.00
      0.3750000              1.0000000
****
B     0
S    6   1.00
   2068.8823000              0.0018663
    310.6495700              0.0142515
     70.6830330              0.0695516
     19.8610800              0.2325729
      6.2993048              0.4670787
      2.1270270              0.3634314
SP   3   1.00
      4.7279710             -0.1303938              0.0745976
      1.1903377             -0.1307889              0.3078467
      0.3594117              1.1309444              0.7434568
SP   1   1.00
      0.1267512              1.0000000              1.0000000
D    1   1.00
      0.8020000              1.0000000
D    1   1.00
      0.2005000              1.0000000
F    1   1.00
      0.5000000              1.0000000
****
C     0
S    6   1.00
   3047.5249000              0.0018347
    457.3695100              0.0140373
    103.9486900              0.0688426
     29.2101550              0.2321844
      9.2866630              0.4679413
      3.1639270              0.3623120
SP   3   1.00
      7.8682724             -0.1193324              0.0689991
      1.8812885             -0.1608542              0.3164240
      0.5442493              1.1434564              0.7443083
SP   1   1.00
      0.1687144              1.0000000              1.0000000
D    1   1.00
      1.2520000              1.0000000
D    1   1.00
      0.3130000              1.0000000
F    1   1.00
      0.8000000              1.0000000
****
N     0
S    6   1.00
   4173.5110000              0.0018348
    627.4579000              0.0139950
    142.9021000              0.0685870
     40.2343300              0.2322410
     12.8202100              0.4690700
      4.3904370              0.3604550
SP   3   1.00
     11.6263580             -0.1149610              0.0675800
      2.7162800             -0.1691180              0.3239070
      0.7722180              1.1458520              0.7408950
SP   1   1.00
      0.2120313              1.0000000              1.0000000
D    1   1.00
      1.8260000              1.0000000
D    1   1.00
      0.4565000              1.0000000
F    1   1.00
      1.0000000              1.0000000
****
O     0
S    6   1.00
   5484.6717000              0.0018311
    825.2349500              0.0139501
    188.0469600              0.0684451
     52.9645000              0.2327143
     16.8975700              0.4701930
      5.7996353              0.3585209
SP   3   1.00
     15.5396160             -0.1107775              0.0708743
      3.5999336             -0.1480263              0.3397528
      1.0137618              1.1307670              0.7271586
SP   1   1.00
      0.2700058              1.0000000              1.0000000
D    1   1.00
      2.5840000              1.0000000
D    1   1.00
      0.6460000              1.0000000
F    1   1.00
      1.4000000              1.0000000
****
F     0
S    6   1.00
   7001.7130900              0.0018196169
   1051.3660900              0.0139160796
    239.2856900              0.0684053245
     67.3974453              0.233185760
     21.5199573              0.471267439
      7.40310130             0.356618546
SP   3   1.00
     20.8479528             -0.108506975            0.0716287243
      4.80830834            -0.146451658            0.3459121030
      1.34406986             1.128688580            0.7224699570
SP   1   1.00
      0.358151393            1.0000000              1.0000000
D    1   1.00
      3.5000000              1.0000000
D    1   1.00
      0.8750000              1.0000000
F    1   1.00
      1.8500000              1.0000000
****
Al     0
S    6   1.00
  13983.1000000              0.00194267
   2098.7500000              0.0148599
    477.7050000              0.0728494
    134.3600000              0.2468300
     42.8709000              0.4872580
     14.5189000              0.3234960
SP   6   1.00
    239.6680000             -0.00292619             0.00460285
     57.4419000             -0.0374080              0.0331990
     18.2859000             -0.1144870              0.1362820
      6.5991400              0.1156350              0.3304760
      2.4904900              0.6125950              0.4491460
      0.9445400              0.3937990              0.2657040
SP   3   1.00
      1.2779000             -0.2276060             -0.0175130
      0.3975900              0.00144583             0.2445330
      0.1600950              1.0927900              0.8049340
SP   1   1.00
      0.0556577              1.0000000              1.0000000
D    1   1.00
      0.6500000              1.0000000
D    1   1.00
      0.1625000              1.0000000
F    1   1.00
      0.2500000              1.0000000
****
Si     0
S    6   1.00
  16115.9000000              0.00195948
   2425.5800000              0.01492880
    553.8670000              0.07284780
    156.3400000              0.24613000
     50.0683000              0.48591400
     17.0178000              0.32500200
SP   6   1.00
    292.7180000             -0.00278094             0.00443826
     69.8731000             -0.03571460             0.03266790
     22.3363000             -0.11498500             0.13472100
      8.1503900              0.09356340             0.32867800
      3.1345800              0.60301700             0.44964000
      1.2254300              0.41895900             0.26137200
SP   3   1.00
      1.7273800             -0.24463000            -0.01779510
      0.5729220              0.00431572             0.25353900
      0.2221920              1.09818000             0.80066900
SP   1   1.00
      0.0778369              1.00000000             1.00000000
D    1   1.00
      0.9000000              1.0000000
D    1   1.00
      0.2250000              1.0000000
F    1   1.00
      0.3200000              1.0000000
****
P     0
S    6   1.00
  19413.3000000              0.0018516
   2909.4200000              0.0142062
    661.3640000              0.0699995
    185.7590000              0.2400790
     59.1943000              0.4847620
     20.0310000              0.3352000
SP   6   1.00
    339.4780000             -0.00278217             0.00456462
     81.0101000             -0.0360499              0.03369360
     25.8780000             -0.1166310              0.13975500
      9.4522100              0.0968328              0.33936200
      3.6656600              0.6144180              0.45092100
      1.4674600              0.4037980              0.23858600
SP   3   1.00
      2.1562300             -0.2529230             -0.01776530
      0.7489970              0.0328517              0.27405800
      0.2831450              1.0812500              0.78542100
SP   1   1.00
      0.0998317              1.0000000              1.00000000
D    1   1.00
      1.1000000              1.0000000
D    1   1.00
      0.2750000              1.0000000
F    1   1.00
      0.4500000              1.0000000
****
S     0
S    6   1.00
  21917.1000000              0.0018690
   3301.4900000              0.0142300
    754.1460000              0.0696960
    212.7110000              0.2384870
     67.9896000              0.4833070
     23.0515000              0.3380740
SP   6   1.00
    423.7350000             -0.0023767              0.0040610
    100.7100000             -0.0316930              0.0306810
     32.1599000             -0.1133170              0.1304520
     11.8079000              0.0560900              0.3272050
      4.6311000              0.5922550              0.4528510
      1.8702500              0.4550060              0.2560420
SP   3   1.00
      2.6158400             -0.2503740             -0.0145110
      0.9221670              0.0669570              0.3102630
      0.3412870              1.0545100              0.7544830
SP   1   1.00
      0.1171670              1.0000000              1.0000000
D    1   1.00
      1.3000000              1.0000000
D    1   1.00
      0.3250000              1.0000000
F    1   1.00
      0.5500000              1.0000000
****
Cl     0
S    6   1.00
  25180.1000000              0.0018330
   3780.3500000              0.0140340
    860.4740000              0.0690970
    242.1450000              0.2374520
     77.3349000              0.4830340
     26.2470000              0.3398560
SP   6   1.00
    491.7650000             -0.0022974              0.0039894
    116.9840000             -0.0307140              0.0303180
     37.4153000             -0.1125280              0.1298800
     13.7834000              0.0450160              0.3279510
      5.4521500              0.5893530              0.4535270
      2.2258800              0.4652060              0.2521540
SP   3   1.00
      3.1864900             -0.2518300             -0.0142990
      1.1442700              0.0615890              0.3235720
      0.4203770              1.0601800              0.7435070
SP   1   1.00
      0.1426570              1.0000000              1.0000000
D    1   1.00
      1.5000000              1.0000000
D    1   1.00
      0.3750000              1.0000000
F    1   1.00
      0.7000000              1.0000000
****
}

set {
reference uhf
freeze_core true
e_convergence 10
d_convergence 10
dft_spherical_points 1202
dft_radial_points 99
}

e = energy('b3lyp')

print_out('Grab this energy {0}'.format(e))
--------------------------------------------------------------------------

    Molecular point group: c1

    Geometry (in Bohr), charge = 0, multiplicity = 2:

       Center              X                  Y                   Z               Mass
    ------------   -----------------  -----------------  -----------------  -----------------
         C           -0.323339237720    -0.001460668881     0.000020779627    12.000000000000
         C            0.061781609080    -1.399217910481    -2.426802476073    12.000000000000
         C            0.060273367680     2.801715837219    -0.000935706273    12.000000000000
         C            0.061245066280    -1.400512947281     2.427176182027    12.000000000000
         H            2.086106882080    -1.643573067281    -2.847606145273     1.007825032230
         H           -0.763734652320    -0.389025494381    -4.024277462773     1.007825032230
         H           -0.766848508020    -3.294473375881    -2.347683328573     1.007825032230
         H            2.086880899380     3.287568657019    -0.003043157973     1.007825032230
         H           -0.768638990720     3.680638478919     1.679439357827     1.007825032230
         H           -0.762231814220     3.678830702419    -1.673748854973     1.007825032230
         H            2.087683067680    -1.646593319181     2.846750387027     1.007825032230
         H           -0.764248443220    -3.290704281581     2.350021527027     1.007825032230
         H           -0.767545740820    -0.388911176281     4.026591899727     1.007825032230

  Charge       = 0
  Multiplicity = 2
  Basis Set: ANONYMOUSCA5A9FA8
    Blend: 6-31G_2DFP_
  Basis Set: (ANONYMOUSCA5A9FA8 AUX)
    Blend: DEF2-UNIVERSAL-JKFIT

    Orbital Energies [Eh]
    ---------------------

    Alpha Occupied:

       1A    -10.180342     2A    -10.167047     3A    -10.167025
       4A    -10.166973     5A     -0.797766     6A     -0.686287
       7A     -0.686089     8A     -0.530778     9A     -0.441127
      10A     -0.434859    11A     -0.434479    12A     -0.382645
      13A     -0.382555    14A     -0.363610    15A     -0.338335
      16A     -0.337662    17A     -0.168961

    Alpha Virtual:

      18A      0.076070    19A      0.134034    20A      0.134273
      21A      0.142412    22A      0.142842    23A      0.154882
      24A      0.178673    25A      0.178882    26A      0.203547
      27A      0.214804    28A      0.275820    29A      0.276152
      30A      0.398958    31A      0.399497    32A      0.403344
      33A      0.423936    34A      0.424260    35A      0.456593
      36A      0.495329    37A      0.495451    38A      0.512161
      39A      0.513979    40A      0.578743    41A      0.578891
      42A      0.591489    43A      0.591775    44A      0.602571
      45A      0.624714    46A      0.631764    47A      0.636001
      48A      0.636553    49A      0.663183    50A      0.663640
      51A      0.683663    52A      0.684060    53A      0.734994
      54A      0.825155    55A      0.825659    56A      0.853915
      57A      0.914785    58A      0.915267    59A      0.944125
      60A      0.944607    61A      0.961192    62A      0.961395
      63A      1.003455    64A      1.127834    65A      1.128393
      66A      1.142212    67A      1.163211    68A      1.163332
      69A      1.223322    70A      1.274182    71A      1.274790
      72A      1.279358    73A      1.324137    74A      1.324568
      75A      1.355989    76A      1.365668    77A      1.366439
      78A      1.392429    79A      1.403802    80A      1.404308
      81A      1.416374    82A      1.417851    83A      1.427909
      84A      1.491498    85A      1.499073    86A      1.542667
      87A      1.543006    88A      1.574071    89A      1.574831
      90A      1.669822    91A      1.738717    92A      1.740100
      93A      1.768342    94A      1.830611    95A      1.832169
      96A      1.971750    97A      2.017381    98A      2.019217
      99A      2.019786   100A      2.051856   101A      2.053443
     102A      2.738297   103A      2.738671   104A      2.790924
     105A      2.811427   106A      2.889262   107A      2.890644
     108A      2.894937   109A      2.929327   110A      2.929670
     111A      2.958961   112A      2.964098   113A      2.964699
     114A      3.034010   115A      3.070687   116A      3.071821
     117A      3.084435   118A      3.168350   119A      3.169190
     120A      3.180610   121A      3.285039   122A      3.285581
     123A      3.326773   124A      3.327549   125A      3.375629
     126A      3.489880   127A      3.490442   128A      3.514019
     129A      3.525328   130A      3.567940   131A      3.568837
     132A      3.575125   133A      3.665844   134A      3.666932
     135A      3.679672   136A      3.693897   137A      3.694378
     138A      3.776684   139A      3.776906   140A      3.789126
     141A      3.911540   142A      3.912901   143A      4.034448
     144A      4.110772   145A      4.111903   146A      4.147783
     147A      4.148386   148A      4.173345   149A      4.202171
     150A      4.202716   151A      4.203832   152A      4.210976
     153A      4.314924   154A      4.317006   155A      4.358970
     156A      4.423667   157A      4.425208   158A      4.443482
     159A      4.515780   160A      4.517897   161A      4.577991
     162A      4.578550   163A      4.617544   164A      4.709437
     165A      4.773622   166A      4.775594   167A      4.836917
     168A      4.962863   169A      5.002486   170A      5.003427
     171A      5.227581   172A      5.246522   173A      5.247516
     174A      5.354256   175A      5.356783   176A      5.479416

    Beta Occupied:

       1A    -10.167801     2A    -10.167783     3A    -10.167740
       4A    -10.166519     5A     -0.781091     6A     -0.684089
       7A     -0.683893     8A     -0.511750     9A     -0.431231
      10A     -0.430854    11A     -0.421820    12A     -0.376735
      13A     -0.376635    14A     -0.362594    15A     -0.333455
      16A     -0.332787

    Beta Virtual:

      17A     -0.025742    18A      0.077079    19A      0.134896
      20A      0.135192    21A      0.144261    22A      0.144735
      23A      0.163340    24A      0.182350    25A      0.182548
      26A      0.215034    27A      0.218930    28A      0.282179
      29A      0.282489    30A      0.400124    31A      0.400671
      32A      0.419788    33A      0.426747    34A      0.427072
      35A      0.468501    36A      0.497586    37A      0.497715
      38A      0.513896    39A      0.556325    40A      0.584295
      41A      0.584439    42A      0.597643    43A      0.597978
      44A      0.609995    45A      0.628093    46A      0.631924
      47A      0.639304    48A      0.639816    49A      0.666759
      50A      0.667193    51A      0.686320    52A      0.686672
      53A      0.757518    54A      0.830335    55A      0.830815
      56A      0.855268    57A      0.922773    58A      0.923220
      59A      0.945961    60A      0.953533    61A      0.966488
      62A      0.966714    63A      1.008696    64A      1.131866
      65A      1.132418    66A      1.155582    67A      1.168288
      68A      1.168409    69A      1.232295    70A      1.279749
      71A      1.280415    72A      1.285115    73A      1.329124
      74A      1.329558    75A      1.365405    76A      1.370941
      77A      1.371651    78A      1.393490    79A      1.407254
      80A      1.407785    81A      1.421476    82A      1.422846
      83A      1.428181    84A      1.492548    85A      1.509516
      86A      1.547057    87A      1.547434    88A      1.581947
      89A      1.582696    90A      1.674670    91A      1.744464
      92A      1.745881    93A      1.779117    94A      1.834463
      95A      1.836029    96A      1.972611    97A      2.024711
      98A      2.026147    99A      2.039690   100A      2.058562
     101A      2.060181   102A      2.746624   103A      2.747017
     104A      2.811839   105A      2.816059   106A      2.901952
     107A      2.903328   108A      2.924643   109A      2.931778
     110A      2.932183   111A      2.960037   112A      2.968650
     113A      2.969221   114A      3.041944   115A      3.080523
     116A      3.081681   117A      3.086378   118A      3.184131
     119A      3.184863   120A      3.188338   121A      3.289855
     122A      3.290363   123A      3.330542   124A      3.331388
     125A      3.383448   126A      3.492621   127A      3.493161
     128A      3.512383   129A      3.528374   130A      3.574973
     131A      3.581217   132A      3.582253   133A      3.670662
     134A      3.671618   135A      3.692971   136A      3.725573
     137A      3.725950   138A      3.781168   139A      3.781482
     140A      3.817665   141A      3.921288   142A      3.922785
     143A      4.045336   144A      4.117390   145A      4.118921
     146A      4.154783   147A      4.155818   148A      4.187381
     149A      4.208179   150A      4.209729   151A      4.210643
     152A      4.215465   153A      4.322367   154A      4.324449
     155A      4.362332   156A      4.431893   157A      4.433395
     158A      4.446380   159A      4.523565   160A      4.525692
     161A      4.588612   162A      4.589131   163A      4.624736
     164A      4.719781   165A      4.780604   166A      4.782519
     167A      4.839834   168A      4.967657   169A      5.006526
     170A      5.007465   171A      5.233193   172A      5.248321
     173A      5.249395   174A      5.360743   175A      5.363251
     176A      5.481738

    Final Occupation by Irrep:
              A
    DOCC [    16 ]
    SOCC [     1 ]

  @DF-UKS Final Energy:  -157.81305873101601

   => Energetics <=

    Nuclear Repulsion Energy =            125.3946492627637923
    One-Electron Energy =                -458.7489303896373940
    Two-Electron Energy =                 195.8483686453979828
    DFT Exchange-Correlation Energy =     -20.3071462495403843
    Empirical Dispersion Energy =           0.0000000000000000
    VV10 Nonlocal Energy =                  0.0000000000000000
    Total Energy =                       -157.8130587310160138

  UHF NO Occupations:
  HONO-2 :   15  A 1.9996009
  HONO-1 :   16  A 1.9989805
  HONO-0 :   17  A 1.0000000
  LUNO+0 :   18  A 0.0010195
  LUNO+1 :   19  A 0.0003991
  LUNO+2 :   20  A 0.0001980
  LUNO+3 :   21  A 0.0001971

Computation Completed

Properties will be evaluated at   0.000000,   0.000000,   0.000000 [a0]

Properties computed using the SCF density matrix

  Nuclear Dipole Moment: [e a0]
     X:     0.8272      Y:    -0.0031      Z:     0.0032

  Electronic Dipole Moment: [e a0]
     X:    -0.7493      Y:     0.0030      Z:    -0.0049

  Dipole Moment: [e a0]
     X:     0.0779      Y:    -0.0001      Z:    -0.0017     Total:     0.0779

  Dipole Moment: [D]
     X:     0.1980      Y:    -0.0001      Z:    -0.0044     Total:     0.1981

*** tstop() called on n035 at Fri Nov  5 11:50:29 2021
Module time:
	user time   =     631.53 seconds =      10.53 minutes
	system time =      11.82 seconds =       0.20 minutes
	total time  =        161 seconds =       2.68 minutes
Total time:
	user time   =     631.53 seconds =      10.53 minutes
	system time =      11.82 seconds =       0.20 minutes
	total time  =        161 seconds =       2.68 minutes
Grab this energy -157.813058731016
    Psi4 stopped on: Friday, 05 November 2021 11:50AM
    Psi4 wall time for execution: 0:02:41.74

*** Psi4 exiting successfully. Buy a developer a beer!
