                               Psi4 1.4a2.dev629

  ==> Input File <==

--------------------------------------------------------------------------
import os
memory 14 GB

molecule {
 C   -0.3215601594    0.0004310080   -0.0000000000
 C    0.0615450890   -1.3997331209   -2.4268051059
 C    0.0618877331    2.8013955564   -0.0000000000
 C    0.0615450890   -1.3997331209    2.4268051059
 H    2.0870599064   -1.6444892729   -2.8541759867
 H   -0.7632120155   -0.3879620456   -4.0210920710
 H   -0.7689298050   -3.2926897942   -2.3458392928
 H    2.0855509174    3.2941422521   -0.0000000000
 H   -0.7657063588    3.6768776686    1.6779761562
 H   -0.7657063588    3.6768776686   -1.6779761562
 H    2.0870599064   -1.6444892729    2.8541759867
 H   -0.7689298050   -3.2926897942    2.3458392928
 H   -0.7632120155   -0.3879620456    4.0210920710
units bohr
0 2
}

basis {

assign 6-31g_2dfp_

[ 6-31g_2dfp_ ]

spherical

!----------------------------------------------------------------------
! Basis Set Exchange
! Version v0.8.13
! https://www.basissetexchange.org
!----------------------------------------------------------------------
!   Basis set: 6-31G(2df,p)
! Description: 6-31G(2df,p)
!        Role: orbital
!     Version: 0  (Data from the original Basis Set Exchange)
!----------------------------------------------------------------------

****
H     0
S    3   1.00
     18.7311370              0.03349460
      2.8253937              0.23472695
      0.6401217              0.81375733
S    1   1.00
      0.1612778              1.00000000
P    1   1.00
      1.5000000              1.0000000
P    1   1.00
      0.3750000              1.0000000
****
B     0
S    6   1.00
   2068.8823000              0.0018663
    310.6495700              0.0142515
     70.6830330              0.0695516
     19.8610800              0.2325729
      6.2993048              0.4670787
      2.1270270              0.3634314
SP   3   1.00
      4.7279710             -0.1303938              0.0745976
      1.1903377             -0.1307889              0.3078467
      0.3594117              1.1309444              0.7434568
SP   1   1.00
      0.1267512              1.0000000              1.0000000
D    1   1.00
      0.8020000              1.0000000
D    1   1.00
      0.2005000              1.0000000
F    1   1.00
      0.5000000              1.0000000
****
C     0
S    6   1.00
   3047.5249000              0.0018347
    457.3695100              0.0140373
    103.9486900              0.0688426
     29.2101550              0.2321844
      9.2866630              0.4679413
      3.1639270              0.3623120
SP   3   1.00
      7.8682724             -0.1193324              0.0689991
      1.8812885             -0.1608542              0.3164240
      0.5442493              1.1434564              0.7443083
SP   1   1.00
      0.1687144              1.0000000              1.0000000
D    1   1.00
      1.2520000              1.0000000
D    1   1.00
      0.3130000              1.0000000
F    1   1.00
      0.8000000              1.0000000
****
N     0
S    6   1.00
   4173.5110000              0.0018348
    627.4579000              0.0139950
    142.9021000              0.0685870
     40.2343300              0.2322410
     12.8202100              0.4690700
      4.3904370              0.3604550
SP   3   1.00
     11.6263580             -0.1149610              0.0675800
      2.7162800             -0.1691180              0.3239070
      0.7722180              1.1458520              0.7408950
SP   1   1.00
      0.2120313              1.0000000              1.0000000
D    1   1.00
      1.8260000              1.0000000
D    1   1.00
      0.4565000              1.0000000
F    1   1.00
      1.0000000              1.0000000
****
O     0
S    6   1.00
   5484.6717000              0.0018311
    825.2349500              0.0139501
    188.0469600              0.0684451
     52.9645000              0.2327143
     16.8975700              0.4701930
      5.7996353              0.3585209
SP   3   1.00
     15.5396160             -0.1107775              0.0708743
      3.5999336             -0.1480263              0.3397528
      1.0137618              1.1307670              0.7271586
SP   1   1.00
      0.2700058              1.0000000              1.0000000
D    1   1.00
      2.5840000              1.0000000
D    1   1.00
      0.6460000              1.0000000
F    1   1.00
      1.4000000              1.0000000
****
F     0
S    6   1.00
   7001.7130900              0.0018196169
   1051.3660900              0.0139160796
    239.2856900              0.0684053245
     67.3974453              0.233185760
     21.5199573              0.471267439
      7.40310130             0.356618546
SP   3   1.00
     20.8479528             -0.108506975            0.0716287243
      4.80830834            -0.146451658            0.3459121030
      1.34406986             1.128688580            0.7224699570
SP   1   1.00
      0.358151393            1.0000000              1.0000000
D    1   1.00
      3.5000000              1.0000000
D    1   1.00
      0.8750000              1.0000000
F    1   1.00
      1.8500000              1.0000000
****
Al     0
S    6   1.00
  13983.1000000              0.00194267
   2098.7500000              0.0148599
    477.7050000              0.0728494
    134.3600000              0.2468300
     42.8709000              0.4872580
     14.5189000              0.3234960
SP   6   1.00
    239.6680000             -0.00292619             0.00460285
     57.4419000             -0.0374080              0.0331990
     18.2859000             -0.1144870              0.1362820
      6.5991400              0.1156350              0.3304760
      2.4904900              0.6125950              0.4491460
      0.9445400              0.3937990              0.2657040
SP   3   1.00
      1.2779000             -0.2276060             -0.0175130
      0.3975900              0.00144583             0.2445330
      0.1600950              1.0927900              0.8049340
SP   1   1.00
      0.0556577              1.0000000              1.0000000
D    1   1.00
      0.6500000              1.0000000
D    1   1.00
      0.1625000              1.0000000
F    1   1.00
      0.2500000              1.0000000
****
Si     0
S    6   1.00
  16115.9000000              0.00195948
   2425.5800000              0.01492880
    553.8670000              0.07284780
    156.3400000              0.24613000
     50.0683000              0.48591400
     17.0178000              0.32500200
SP   6   1.00
    292.7180000             -0.00278094             0.00443826
     69.8731000             -0.03571460             0.03266790
     22.3363000             -0.11498500             0.13472100
      8.1503900              0.09356340             0.32867800
      3.1345800              0.60301700             0.44964000
      1.2254300              0.41895900             0.26137200
SP   3   1.00
      1.7273800             -0.24463000            -0.01779510
      0.5729220              0.00431572             0.25353900
      0.2221920              1.09818000             0.80066900
SP   1   1.00
      0.0778369              1.00000000             1.00000000
D    1   1.00
      0.9000000              1.0000000
D    1   1.00
      0.2250000              1.0000000
F    1   1.00
      0.3200000              1.0000000
****
P     0
S    6   1.00
  19413.3000000              0.0018516
   2909.4200000              0.0142062
    661.3640000              0.0699995
    185.7590000              0.2400790
     59.1943000              0.4847620
     20.0310000              0.3352000
SP   6   1.00
    339.4780000             -0.00278217             0.00456462
     81.0101000             -0.0360499              0.03369360
     25.8780000             -0.1166310              0.13975500
      9.4522100              0.0968328              0.33936200
      3.6656600              0.6144180              0.45092100
      1.4674600              0.4037980              0.23858600
SP   3   1.00
      2.1562300             -0.2529230             -0.01776530
      0.7489970              0.0328517              0.27405800
      0.2831450              1.0812500              0.78542100
SP   1   1.00
      0.0998317              1.0000000              1.00000000
D    1   1.00
      1.1000000              1.0000000
D    1   1.00
      0.2750000              1.0000000
F    1   1.00
      0.4500000              1.0000000
****
S     0
S    6   1.00
  21917.1000000              0.0018690
   3301.4900000              0.0142300
    754.1460000              0.0696960
    212.7110000              0.2384870
     67.9896000              0.4833070
     23.0515000              0.3380740
SP   6   1.00
    423.7350000             -0.0023767              0.0040610
    100.7100000             -0.0316930              0.0306810
     32.1599000             -0.1133170              0.1304520
     11.8079000              0.0560900              0.3272050
      4.6311000              0.5922550              0.4528510
      1.8702500              0.4550060              0.2560420
SP   3   1.00
      2.6158400             -0.2503740             -0.0145110
      0.9221670              0.0669570              0.3102630
      0.3412870              1.0545100              0.7544830
SP   1   1.00
      0.1171670              1.0000000              1.0000000
D    1   1.00
      1.3000000              1.0000000
D    1   1.00
      0.3250000              1.0000000
F    1   1.00
      0.5500000              1.0000000
****
Cl     0
S    6   1.00
  25180.1000000              0.0018330
   3780.3500000              0.0140340
    860.4740000              0.0690970
    242.1450000              0.2374520
     77.3349000              0.4830340
     26.2470000              0.3398560
SP   6   1.00
    491.7650000             -0.0022974              0.0039894
    116.9840000             -0.0307140              0.0303180
     37.4153000             -0.1125280              0.1298800
     13.7834000              0.0450160              0.3279510
      5.4521500              0.5893530              0.4535270
      2.2258800              0.4652060              0.2521540
SP   3   1.00
      3.1864900             -0.2518300             -0.0142990
      1.1442700              0.0615890              0.3235720
      0.4203770              1.0601800              0.7435070
SP   1   1.00
      0.1426570              1.0000000              1.0000000
D    1   1.00
      1.5000000              1.0000000
D    1   1.00
      0.3750000              1.0000000
F    1   1.00
      0.7000000              1.0000000
****
}

set {
reference uhf
freeze_core true
e_convergence 10
d_convergence 10
dft_spherical_points 1202
dft_radial_points 99
}

e = energy('b3lyp')

print_out('Grab this energy {0}'.format(e))
--------------------------------------------------------------------------

    Molecular point group: cs

    Geometry (in Bohr), charge = 0, multiplicity = 2:

       Center              X                  Y                   Z               Mass
    ------------   -----------------  -----------------  -----------------  -----------------
         C           -0.322226144363    -0.000023177773     0.000000000000    12.000000000000
         C            0.060879104037    -1.400187306673    -2.426805105900    12.000000000000
         C            0.061221748137     2.800941370627     0.000000000000    12.000000000000
         C            0.060879104037    -1.400187306673     2.426805105900    12.000000000000
         H            2.086393921437    -1.644943458673    -2.854175986700     1.007825032230
         H           -0.763878000463    -0.388416231373    -4.021092071000     1.007825032230
         H           -0.769595789963    -3.293143979973    -2.345839292800     1.007825032230
         H            2.084884932437     3.293688066327     0.000000000000     1.007825032230
         H           -0.766372343763     3.676423482827     1.677976156200     1.007825032230
         H           -0.766372343763     3.676423482827    -1.677976156200     1.007825032230
         H            2.086393921437    -1.644943458673     2.854175986700     1.007825032230
         H           -0.769595789963    -3.293143979973     2.345839292800     1.007825032230
         H           -0.763878000463    -0.388416231373     4.021092071000     1.007825032230

  Charge       = 0
  Multiplicity = 2
  Basis Set: ANONYMOUSCF19F408
    Blend: 6-31G_2DFP_
  Basis Set: (ANONYMOUSCF19F408 AUX)
    Blend: DEF2-UNIVERSAL-JKFIT

    Orbital Energies [Eh]
    ---------------------

    Alpha Occupied:

       1Ap   -10.180330     2Ap   -10.166988     1App  -10.166980
       3Ap   -10.166937     4Ap    -0.797831     2App   -0.686286
       5Ap    -0.686165     6Ap    -0.530790     7Ap    -0.440956
       8Ap    -0.435066     3App   -0.434696     9Ap    -0.382471
       4App   -0.382423     5App   -0.363750     6App   -0.338182
      10Ap    -0.337858    11Ap    -0.169050

    Alpha Virtual:

      12Ap     0.076106    13Ap     0.133992     7App    0.134217
       8App    0.142494    14Ap     0.142895    15Ap     0.155087
       9App    0.178647    16Ap     0.178838    17Ap     0.203679
      10App    0.215025    11App    0.275915    18Ap     0.276135
      19Ap     0.399205    12App    0.399703    20Ap     0.403270
      21Ap     0.423783    13App    0.424107    22Ap     0.456829
      23Ap     0.495315    14App    0.495416    15App    0.511973
      24Ap     0.514037    16App    0.578906    25Ap     0.579021
      17App    0.591309    26Ap     0.591591    27Ap     0.602339
      28Ap     0.624781    18App    0.632020    19App    0.636058
      29Ap     0.636671    20App    0.663480    30Ap     0.663899
      31Ap     0.683570    21App    0.683982    32Ap     0.735077
      22App    0.825054    33Ap     0.825557    23App    0.854260
      34Ap     0.914962    24App    0.915386    35Ap     0.943809
      25App    0.944349    36Ap     0.960934    26App    0.961089
      37Ap     1.004180    38Ap     1.128284    27App    1.128857
      39Ap     1.141616    40Ap     1.163750    28App    1.163883
      41Ap     1.223253    29App    1.274218    42Ap     1.274707
      43Ap     1.279585    30App    1.324403    44Ap     1.324840
      45Ap     1.355574    31App    1.366080    46Ap     1.366687
      32App    1.392254    33App    1.403710    47Ap     1.403816
      48Ap     1.416259    34App    1.417681    35App    1.428516
      36App    1.492097    49Ap     1.498754    50Ap     1.542872
      37App    1.542928    38App    1.573636    51Ap     1.574035
      52Ap     1.669900    39App    1.738577    53Ap     1.739983
      54Ap     1.768178    55Ap     1.830904    40App    1.832428
      41App    1.971859    56Ap     2.017790    42App    2.019316
      57Ap     2.020767    43App    2.052582    58Ap     2.053658
      44App    2.737888    59Ap     2.738254    60Ap     2.791152
      45App    2.811942    46App    2.889963    61Ap     2.890262
      62Ap     2.895189    47App    2.929936    63Ap     2.929968
      48App    2.959023    49App    2.964417    64Ap     2.964485
      65Ap     3.034477    66Ap     3.070274    50App    3.071271
      51App    3.084088    52App    3.168304    67Ap     3.169125
      68Ap     3.180751    69Ap     3.284750    53App    3.285070
      54App    3.327889    70Ap     3.328641    71Ap     3.375334
      72Ap     3.489406    55App    3.489946    56App    3.514233
      73Ap     3.525493    74Ap     3.568506    57App    3.569348
      58App    3.575990    59App    3.665899    75Ap     3.666809
      76Ap     3.680725    77Ap     3.693405    60App    3.693825
      61App    3.777861    78Ap     3.778040    79Ap     3.787817
      80Ap     3.911757    62App    3.912915    81Ap     4.033338
      63App    4.110942    82Ap     4.111953    83Ap     4.147537
      64App    4.148184    84Ap     4.173275    85Ap     4.202285
      86Ap     4.203086    65App    4.204525    66App    4.211488
      87Ap     4.315645    67App    4.316945    68App    4.360118
      69App    4.423414    88Ap     4.424490    70App    4.444462
      71App    4.516628    89Ap     4.518686    72App    4.579248
      90Ap     4.579263    91Ap     4.618022    92Ap     4.709751
      73App    4.773964    93Ap     4.775969    74App    4.835902
      94Ap     4.963383    75App    5.002479    95Ap     5.003216
      96Ap     5.227936    76App    5.246792    97Ap     5.247126
      77App    5.354826    98Ap     5.357362    78App    5.479672

    Beta Occupied:

       1Ap   -10.167742     1App  -10.167734     2Ap   -10.167712
       3Ap   -10.166512     4Ap    -0.781160     2App   -0.684089
       5Ap    -0.683964     6Ap    -0.511758     7Ap    -0.431432
       3App   -0.431058     8Ap    -0.421656     9Ap    -0.376541
       4App   -0.376503     5App   -0.362728     6App   -0.333305
      10Ap    -0.332989

    Beta Virtual:

      11Ap    -0.025909    12Ap     0.077111    13Ap     0.134872
       7App    0.135148     8App    0.144346    14Ap     0.144805
      15Ap     0.163595     9App    0.182312    16Ap     0.182501
      10App    0.215257    17Ap     0.219023    11App    0.282252
      18Ap     0.282472    19Ap     0.400376    12App    0.400882
      20Ap     0.419737    21Ap     0.426588    13App    0.426912
      22Ap     0.468816    23Ap     0.497585    14App    0.497697
      15App    0.513713    24Ap     0.556297    16App    0.584481
      25Ap     0.584591    17App    0.597435    26Ap     0.597765
      27Ap     0.609783    28Ap     0.628163    18App    0.632183
      19App    0.639356    29Ap     0.639928    20App    0.667083
      30Ap     0.667470    31Ap     0.686209    21App    0.686575
      32Ap     0.757564    22App    0.830250    33Ap     0.830729
      23App    0.855616    34Ap     0.922999    24App    0.923383
      25App    0.946185    35Ap     0.952817    36Ap     0.966197
      26App    0.966386    37Ap     1.009450    38Ap     1.132319
      27App    1.132882    39Ap     1.154780    40Ap     1.168820
      28App    1.168944    41Ap     1.232324    29App    1.279817
      42Ap     1.280338    43Ap     1.285409    30App    1.329433
      44Ap     1.329866    45Ap     1.364931    31App    1.371378
      46Ap     1.371860    32App    1.393328    33App    1.407170
      47Ap     1.407315    48Ap     1.421307    34App    1.422628
      35App    1.428788    36App    1.493136    49Ap     1.509175
      50Ap     1.547245    37App    1.547362    38App    1.581514
      51Ap     1.581918    52Ap     1.674750    39App    1.744326
      53Ap     1.745764    54Ap     1.778971    55Ap     1.834753
      40App    1.836284    41App    1.972727    42App    2.025774
      56Ap     2.026841    57Ap     2.039503    43App    2.059268
      58Ap     2.060382    44App    2.746223    59Ap     2.746612
      45App    2.812359    60Ap     2.816292    46App    2.902541
      61Ap     2.902924    62Ap     2.924887    63Ap     2.932418
      47App    2.932475    48App    2.960102    49App    2.968977
      64Ap     2.969077    65Ap     3.042403    66Ap     3.080173
      50App    3.081029    51App    3.086045    52App    3.184082
      67Ap     3.184823    68Ap     3.188458    69Ap     3.289518
      53App    3.289855    54App    3.331637    70Ap     3.332453
      71Ap     3.383126    72Ap     3.492216    55App    3.492730
      56App    3.512605    73Ap     3.528501    57App    3.575838
      74Ap     3.581704    58App    3.582708    59App    3.670683
      75Ap     3.671341    76Ap     3.693975    77Ap     3.725366
      60App    3.725433    61App    3.782420    78Ap     3.782670
      79Ap     3.816379    80Ap     3.921458    62App    3.922750
      81Ap     4.044279    63App    4.117636    82Ap     4.119079
      83Ap     4.154451    64App    4.155541    84Ap     4.187277
      85Ap     4.209005    86Ap     4.210307    65App    4.210383
      66App    4.216012    87Ap     4.323145    67App    4.324363
      68App    4.363502    69App    4.431650    88Ap     4.432692
      70App    4.447323    71App    4.524399    89Ap     4.526469
      72App    4.589838    90Ap     4.589920    91Ap     4.625139
      92Ap     4.720200    73App    4.780930    93Ap     4.782883
      74App    4.838822    94Ap     4.968175    75App    5.006536
      95Ap     5.007269    96Ap     5.233526    76App    5.248570
      97Ap     5.249040    77App    5.361315    98Ap     5.363832
      78App    5.482000

    Final Occupation by Irrep:
             Ap   App
    DOCC [    10,    6 ]
    SOCC [     1,    0 ]

  @DF-UKS Final Energy:  -157.81306603816191

   => Energetics <=

    Nuclear Repulsion Energy =            125.4062547212649150
    One-Electron Energy =                -458.7715935614531872
    Two-Electron Energy =                 195.8597626010733848
    DFT Exchange-Correlation Energy =     -20.3074897990470333
    Empirical Dispersion Energy =           0.0000000000000000
    VV10 Nonlocal Energy =                  0.0000000000000000
    Total Energy =                       -157.8130660381619066

  UHF NO Occupations:
  HONO-2 :    9 Ap 1.9995995
  HONO-1 :   10 Ap 1.9989824
  HONO-0 :   11 Ap 1.0000000
  LUNO+0 :   12 Ap 0.0010176
  LUNO+1 :   13 Ap 0.0004005
  LUNO+2 :   14 Ap 0.0001973
  LUNO+3 :    7App 0.0001972

Computation Completed

Properties will be evaluated at   0.000000,   0.000000,   0.000000 [a0]

Properties computed using the SCF density matrix

  Nuclear Dipole Moment: [e a0]
     X:     0.8225      Y:    -0.0032      Z:    -0.0000

  Electronic Dipole Moment: [e a0]
     X:    -0.7450      Y:     0.0050      Z:     0.0000

  Dipole Moment: [e a0]
     X:     0.0775      Y:     0.0017      Z:    -0.0000     Total:     0.0775

  Dipole Moment: [D]
     X:     0.1970      Y:     0.0044      Z:    -0.0000     Total:     0.1970

*** tstop() called on n073 at Fri Nov  5 14:27:49 2021
Module time:
	user time   =     530.74 seconds =       8.85 minutes
	system time =      12.16 seconds =       0.20 minutes
	total time  =        136 seconds =       2.27 minutes
Total time:
	user time   =     530.74 seconds =       8.85 minutes
	system time =      12.16 seconds =       0.20 minutes
	total time  =        136 seconds =       2.27 minutes
Grab this energy -157.8130660381619
    Psi4 stopped on: Friday, 05 November 2021 02:27PM
    Psi4 wall time for execution: 0:02:16.59

*** Psi4 exiting successfully. Buy a developer a beer!
