                               Psi4 1.4a2.dev629

  ==> Input File <==

--------------------------------------------------------------------------
import os
memory 14 GB

molecule {
 C   -0.3233310045    0.0000063249    0.0054322663
 C    0.0613966596   -1.3953917206   -2.4217313587
 C    0.0610242924    2.8017499316   -0.0048396893
 C    0.0608883213   -1.4063446023    2.4310229614
 H    2.0884016106   -1.6368145651   -2.8424717126
 H   -0.7677712948   -0.3788806322   -4.0192194247
 H   -0.7619808650   -3.2843246365   -2.3494814244
 H    2.0868012938    3.2880925008   -0.0076452919
 H   -0.7596917440    3.6869013887    1.6646471486
 H   -0.7716160056    3.6735283528   -1.6883132440
 H    2.0854757384   -1.6513753723    2.8524017586
 H   -0.7691700073   -3.2996325787    2.3484764189
 H   -0.7630348716   -0.3975387048    4.0317215918
units bohr
0 2
}

basis {

assign 6-31g_2dfp_

[ 6-31g_2dfp_ ]

spherical

!----------------------------------------------------------------------
! Basis Set Exchange
! Version v0.8.13
! https://www.basissetexchange.org
!----------------------------------------------------------------------
!   Basis set: 6-31G(2df,p)
! Description: 6-31G(2df,p)
!        Role: orbital
!     Version: 0  (Data from the original Basis Set Exchange)
!----------------------------------------------------------------------

****
H     0
S    3   1.00
     18.7311370              0.03349460
      2.8253937              0.23472695
      0.6401217              0.81375733
S    1   1.00
      0.1612778              1.00000000
P    1   1.00
      1.5000000              1.0000000
P    1   1.00
      0.3750000              1.0000000
****
B     0
S    6   1.00
   2068.8823000              0.0018663
    310.6495700              0.0142515
     70.6830330              0.0695516
     19.8610800              0.2325729
      6.2993048              0.4670787
      2.1270270              0.3634314
SP   3   1.00
      4.7279710             -0.1303938              0.0745976
      1.1903377             -0.1307889              0.3078467
      0.3594117              1.1309444              0.7434568
SP   1   1.00
      0.1267512              1.0000000              1.0000000
D    1   1.00
      0.8020000              1.0000000
D    1   1.00
      0.2005000              1.0000000
F    1   1.00
      0.5000000              1.0000000
****
C     0
S    6   1.00
   3047.5249000              0.0018347
    457.3695100              0.0140373
    103.9486900              0.0688426
     29.2101550              0.2321844
      9.2866630              0.4679413
      3.1639270              0.3623120
SP   3   1.00
      7.8682724             -0.1193324              0.0689991
      1.8812885             -0.1608542              0.3164240
      0.5442493              1.1434564              0.7443083
SP   1   1.00
      0.1687144              1.0000000              1.0000000
D    1   1.00
      1.2520000              1.0000000
D    1   1.00
      0.3130000              1.0000000
F    1   1.00
      0.8000000              1.0000000
****
N     0
S    6   1.00
   4173.5110000              0.0018348
    627.4579000              0.0139950
    142.9021000              0.0685870
     40.2343300              0.2322410
     12.8202100              0.4690700
      4.3904370              0.3604550
SP   3   1.00
     11.6263580             -0.1149610              0.0675800
      2.7162800             -0.1691180              0.3239070
      0.7722180              1.1458520              0.7408950
SP   1   1.00
      0.2120313              1.0000000              1.0000000
D    1   1.00
      1.8260000              1.0000000
D    1   1.00
      0.4565000              1.0000000
F    1   1.00
      1.0000000              1.0000000
****
O     0
S    6   1.00
   5484.6717000              0.0018311
    825.2349500              0.0139501
    188.0469600              0.0684451
     52.9645000              0.2327143
     16.8975700              0.4701930
      5.7996353              0.3585209
SP   3   1.00
     15.5396160             -0.1107775              0.0708743
      3.5999336             -0.1480263              0.3397528
      1.0137618              1.1307670              0.7271586
SP   1   1.00
      0.2700058              1.0000000              1.0000000
D    1   1.00
      2.5840000              1.0000000
D    1   1.00
      0.6460000              1.0000000
F    1   1.00
      1.4000000              1.0000000
****
F     0
S    6   1.00
   7001.7130900              0.0018196169
   1051.3660900              0.0139160796
    239.2856900              0.0684053245
     67.3974453              0.233185760
     21.5199573              0.471267439
      7.40310130             0.356618546
SP   3   1.00
     20.8479528             -0.108506975            0.0716287243
      4.80830834            -0.146451658            0.3459121030
      1.34406986             1.128688580            0.7224699570
SP   1   1.00
      0.358151393            1.0000000              1.0000000
D    1   1.00
      3.5000000              1.0000000
D    1   1.00
      0.8750000              1.0000000
F    1   1.00
      1.8500000              1.0000000
****
Al     0
S    6   1.00
  13983.1000000              0.00194267
   2098.7500000              0.0148599
    477.7050000              0.0728494
    134.3600000              0.2468300
     42.8709000              0.4872580
     14.5189000              0.3234960
SP   6   1.00
    239.6680000             -0.00292619             0.00460285
     57.4419000             -0.0374080              0.0331990
     18.2859000             -0.1144870              0.1362820
      6.5991400              0.1156350              0.3304760
      2.4904900              0.6125950              0.4491460
      0.9445400              0.3937990              0.2657040
SP   3   1.00
      1.2779000             -0.2276060             -0.0175130
      0.3975900              0.00144583             0.2445330
      0.1600950              1.0927900              0.8049340
SP   1   1.00
      0.0556577              1.0000000              1.0000000
D    1   1.00
      0.6500000              1.0000000
D    1   1.00
      0.1625000              1.0000000
F    1   1.00
      0.2500000              1.0000000
****
Si     0
S    6   1.00
  16115.9000000              0.00195948
   2425.5800000              0.01492880
    553.8670000              0.07284780
    156.3400000              0.24613000
     50.0683000              0.48591400
     17.0178000              0.32500200
SP   6   1.00
    292.7180000             -0.00278094             0.00443826
     69.8731000             -0.03571460             0.03266790
     22.3363000             -0.11498500             0.13472100
      8.1503900              0.09356340             0.32867800
      3.1345800              0.60301700             0.44964000
      1.2254300              0.41895900             0.26137200
SP   3   1.00
      1.7273800             -0.24463000            -0.01779510
      0.5729220              0.00431572             0.25353900
      0.2221920              1.09818000             0.80066900
SP   1   1.00
      0.0778369              1.00000000             1.00000000
D    1   1.00
      0.9000000              1.0000000
D    1   1.00
      0.2250000              1.0000000
F    1   1.00
      0.3200000              1.0000000
****
P     0
S    6   1.00
  19413.3000000              0.0018516
   2909.4200000              0.0142062
    661.3640000              0.0699995
    185.7590000              0.2400790
     59.1943000              0.4847620
     20.0310000              0.3352000
SP   6   1.00
    339.4780000             -0.00278217             0.00456462
     81.0101000             -0.0360499              0.03369360
     25.8780000             -0.1166310              0.13975500
      9.4522100              0.0968328              0.33936200
      3.6656600              0.6144180              0.45092100
      1.4674600              0.4037980              0.23858600
SP   3   1.00
      2.1562300             -0.2529230             -0.01776530
      0.7489970              0.0328517              0.27405800
      0.2831450              1.0812500              0.78542100
SP   1   1.00
      0.0998317              1.0000000              1.00000000
D    1   1.00
      1.1000000              1.0000000
D    1   1.00
      0.2750000              1.0000000
F    1   1.00
      0.4500000              1.0000000
****
S     0
S    6   1.00
  21917.1000000              0.0018690
   3301.4900000              0.0142300
    754.1460000              0.0696960
    212.7110000              0.2384870
     67.9896000              0.4833070
     23.0515000              0.3380740
SP   6   1.00
    423.7350000             -0.0023767              0.0040610
    100.7100000             -0.0316930              0.0306810
     32.1599000             -0.1133170              0.1304520
     11.8079000              0.0560900              0.3272050
      4.6311000              0.5922550              0.4528510
      1.8702500              0.4550060              0.2560420
SP   3   1.00
      2.6158400             -0.2503740             -0.0145110
      0.9221670              0.0669570              0.3102630
      0.3412870              1.0545100              0.7544830
SP   1   1.00
      0.1171670              1.0000000              1.0000000
D    1   1.00
      1.3000000              1.0000000
D    1   1.00
      0.3250000              1.0000000
F    1   1.00
      0.5500000              1.0000000
****
Cl     0
S    6   1.00
  25180.1000000              0.0018330
   3780.3500000              0.0140340
    860.4740000              0.0690970
    242.1450000              0.2374520
     77.3349000              0.4830340
     26.2470000              0.3398560
SP   6   1.00
    491.7650000             -0.0022974              0.0039894
    116.9840000             -0.0307140              0.0303180
     37.4153000             -0.1125280              0.1298800
     13.7834000              0.0450160              0.3279510
      5.4521500              0.5893530              0.4535270
      2.2258800              0.4652060              0.2521540
SP   3   1.00
      3.1864900             -0.2518300             -0.0142990
      1.1442700              0.0615890              0.3235720
      0.4203770              1.0601800              0.7435070
SP   1   1.00
      0.1426570              1.0000000              1.0000000
D    1   1.00
      1.5000000              1.0000000
D    1   1.00
      0.3750000              1.0000000
F    1   1.00
      0.7000000              1.0000000
****
}

set {
reference uhf
freeze_core true
e_convergence 10
d_convergence 10
dft_spherical_points 1202
dft_radial_points 99
}

e = energy('b3lyp')

print_out('Grab this energy {0}'.format(e))
--------------------------------------------------------------------------

    Molecular point group: c1

    Geometry (in Bohr), charge = 0, multiplicity = 2:

       Center              X                  Y                   Z               Mass
    ------------   -----------------  -----------------  -----------------  -----------------
         C           -0.323334520283     0.000002914909     0.003528502098    12.000000000000
         C            0.061393143817    -1.395395130591    -2.423635122902    12.000000000000
         C            0.061020776617     2.801746521609    -0.006743453502    12.000000000000
         C            0.060884805517    -1.406348012291     2.429119197198    12.000000000000
         H            2.088398094817    -1.636817975091    -2.844375476802     1.007825032230
         H           -0.767774810583    -0.378884042191    -4.021123188902     1.007825032230
         H           -0.761984380783    -3.284328046491    -2.351385188602     1.007825032230
         H            2.086797778017     3.288089090809    -0.009549056102     1.007825032230
         H           -0.759695259783     3.686897978709     1.662743384398     1.007825032230
         H           -0.771619521383     3.673524942809    -1.690217008202     1.007825032230
         H            2.085472222617    -1.651378782291     2.850497994398     1.007825032230
         H           -0.769173523083    -3.299635988691     2.346572654698     1.007825032230
         H           -0.763038387383    -0.397542114791     4.029817827598     1.007825032230

  Charge       = 0
  Multiplicity = 2
  Basis Set: ANONYMOUS9659B52D
    Blend: 6-31G_2DFP_
  Basis Set: (ANONYMOUS9659B52D AUX)
    Blend: DEF2-UNIVERSAL-JKFIT

    Orbital Energies [Eh]
    ---------------------

    Alpha Occupied:

       1A    -10.180342     2A    -10.167293     3A    -10.167015
       4A    -10.166737     5A     -0.797768     6A     -0.686348
       7A     -0.686027     8A     -0.530778     9A     -0.441125
      10A     -0.435124    11A     -0.434219    12A     -0.382766
      13A     -0.382431    14A     -0.363604    15A     -0.338111
      16A     -0.337888    17A     -0.168961

    Alpha Virtual:

      18A      0.076067    19A      0.133798    20A      0.134505
      21A      0.142561    22A      0.142695    23A      0.154885
      24A      0.178651    25A      0.178912    26A      0.203543
      27A      0.214807    28A      0.275926    29A      0.276046
      30A      0.398824    31A      0.399591    32A      0.403395
      33A      0.423803    34A      0.424397    35A      0.456592
      36A      0.494936    37A      0.495838    38A      0.512174
      39A      0.513985    40A      0.578618    41A      0.579002
      42A      0.591508    43A      0.591751    44A      0.602570
      45A      0.624699    46A      0.631775    47A      0.635785
      48A      0.636791    49A      0.663405    50A      0.663420
      51A      0.683418    52A      0.684302    53A      0.734993
      54A      0.824830    55A      0.825970    56A      0.853917
      57A      0.914571    58A      0.915485    59A      0.944029
      60A      0.944459    61A      0.961265    62A      0.961616
      63A      1.003468    64A      1.126674    65A      1.129564
      66A      1.142213    67A      1.162714    68A      1.163810
      69A      1.223329    70A      1.274230    71A      1.274783
      72A      1.279336    73A      1.324046    74A      1.324636
      75A      1.355987    76A      1.365627    77A      1.366474
      78A      1.392377    79A      1.403327    80A      1.404843
      81A      1.415951    82A      1.418343    83A      1.427916
      84A      1.491449    85A      1.499066    86A      1.542445
      87A      1.543200    88A      1.572828    89A      1.576161
      90A      1.669840    91A      1.739014    92A      1.739719
      93A      1.768400    94A      1.830106    95A      1.832677
      96A      1.971764    97A      2.017633    98A      2.018598
      99A      2.020067   100A      2.050701   101A      2.054737
     102A      2.738403   103A      2.738571   104A      2.790918
     105A      2.811439   106A      2.889700   107A      2.890197
     108A      2.894951   109A      2.929346   110A      2.929651
     111A      2.958907   112A      2.963593   113A      2.965265
     114A      3.034006   115A      3.069665   116A      3.072727
     117A      3.084583   118A      3.168451   119A      3.169169
     120A      3.180546   121A      3.284764   122A      3.285861
     123A      3.326604   124A      3.327741   125A      3.375652
     126A      3.489360   127A      3.490881   128A      3.514029
     129A      3.525308   130A      3.566766   131A      3.569858
     132A      3.575357   133A      3.666038   134A      3.666779
     135A      3.679619   136A      3.693919   137A      3.694344
     138A      3.775866   139A      3.777722   140A      3.789216
     141A      3.910220   142A      3.914222   143A      4.034460
     144A      4.110499   145A      4.112184   146A      4.146154
     147A      4.150029   148A      4.173287   149A      4.200613
     150A      4.202691   151A      4.205566   152A      4.210888
     153A      4.315316   154A      4.316597   155A      4.359026
     156A      4.424025   157A      4.424846   158A      4.443521
     159A      4.516624   160A      4.517053   161A      4.577193
     162A      4.579332   163A      4.617531   164A      4.709374
     165A      4.774309   166A      4.774972   167A      4.836960
     168A      4.962849   169A      5.002346   170A      5.003581
     171A      5.227702   172A      5.246774   173A      5.247159
     174A      5.354943   175A      5.356066   176A      5.479412

    Beta Occupied:

       1A    -10.168049     2A    -10.167774     3A    -10.167501
       4A    -10.166518     5A     -0.781093     6A     -0.684153
       7A     -0.683827     8A     -0.511750     9A     -0.431503
      10A     -0.430581    11A     -0.421822    12A     -0.376857
      13A     -0.376510    14A     -0.362588    15A     -0.333242
      16A     -0.333003

    Beta Virtual:

      17A     -0.025743    18A      0.077076    19A      0.134654
      20A      0.135432    21A      0.144398    22A      0.144599
      23A      0.163342    24A      0.182311    25A      0.182593
      26A      0.215036    27A      0.218926    28A      0.282261
      29A      0.282406    30A      0.400031    31A      0.400764
      32A      0.419799    33A      0.426599    34A      0.427224
      35A      0.468501    36A      0.497188    37A      0.498109
      38A      0.513910    39A      0.556327    40A      0.584194
      41A      0.584524    42A      0.597674    43A      0.597937
      44A      0.609991    45A      0.628100    46A      0.631930
      47A      0.639070    48A      0.640068    49A      0.666928
      50A      0.667023    51A      0.686023    52A      0.686967
      53A      0.757516    54A      0.829976    55A      0.831160
      56A      0.855270    57A      0.922548    58A      0.923448
      59A      0.945889    60A      0.953360    61A      0.966539
      62A      0.966963    63A      1.008707    64A      1.130715
      65A      1.133581    66A      1.155590    67A      1.167760
      68A      1.168912    69A      1.232297    70A      1.279842
      71A      1.280368    72A      1.285089    73A      1.329020
      74A      1.329638    75A      1.365402    76A      1.370703
      77A      1.371880    78A      1.393440    79A      1.406848
      80A      1.408265    81A      1.421045    82A      1.423337
      83A      1.428190    84A      1.492498    85A      1.509508
      86A      1.546724    87A      1.547740    88A      1.580844
      89A      1.583885    90A      1.674687    91A      1.744800
      92A      1.745468    93A      1.779170    94A      1.833939
      95A      1.836554    96A      1.972627    97A      2.024491
      98A      2.026344    99A      2.039594   100A      2.057543
     101A      2.061367   102A      2.746706   103A      2.746941
     104A      2.811852   105A      2.816054   106A      2.902383
     107A      2.902895   108A      2.924652   109A      2.931874
     110A      2.932087   111A      2.960006   112A      2.968155
     113A      2.969755   114A      3.041941   115A      3.079284
     116A      3.082436   117A      3.086910   118A      3.184279
     119A      3.184832   120A      3.188215   121A      3.289642
     122A      3.290584   123A      3.330436   124A      3.331521
     125A      3.383467   126A      3.492108   127A      3.493588
     128A      3.512402   129A      3.528362   130A      3.574726
     131A      3.580273   132A      3.583526   133A      3.670939
     134A      3.671370   135A      3.692917   136A      3.725403
     137A      3.726109   138A      3.780359   139A      3.782319
     140A      3.817721   141A      3.919969   142A      3.924104
     143A      4.045349   144A      4.117537   145A      4.118786
     146A      4.153187   147A      4.157415   148A      4.187327
     149A      4.206563   150A      4.210647   151A      4.211514
     152A      4.215365   153A      4.322816   154A      4.323977
     155A      4.362388   156A      4.432226   157A      4.433058
     158A      4.446423   159A      4.524306   160A      4.524946
     161A      4.587747   162A      4.589981   163A      4.624723
     164A      4.719718   165A      4.781200   166A      4.781987
     167A      4.839881   168A      4.967641   169A      5.006385
     170A      5.007622   171A      5.233343   172A      5.248557
     173A      5.249024   174A      5.361449   175A      5.362515
     176A      5.481735

    Final Occupation by Irrep:
              A
    DOCC [    16 ]
    SOCC [     1 ]

  @DF-UKS Final Energy:  -157.81305125411876

   => Energetics <=

    Nuclear Repulsion Energy =            125.3948564464520246
    One-Electron Energy =                -458.7493354412768554
    Two-Electron Energy =                 195.8485776891668024
    DFT Exchange-Correlation Energy =     -20.3071499484607259
    Empirical Dispersion Energy =           0.0000000000000000
    VV10 Nonlocal Energy =                  0.0000000000000000
    Total Energy =                       -157.8130512541187613

  UHF NO Occupations:
  HONO-2 :   15  A 1.9996009
  HONO-1 :   16  A 1.9989804
  HONO-0 :   17  A 1.0000000
  LUNO+0 :   18  A 0.0010196
  LUNO+1 :   19  A 0.0003991
  LUNO+2 :   20  A 0.0001979
  LUNO+3 :   21  A 0.0001972

Computation Completed

Properties will be evaluated at   0.000000,   0.000000,   0.000000 [a0]

Properties computed using the SCF density matrix

  Nuclear Dipole Moment: [e a0]
     X:     0.8272      Y:    -0.0000      Z:    -0.0134

  Electronic Dipole Moment: [e a0]
     X:    -0.7492      Y:     0.0000      Z:     0.0159

  Dipole Moment: [e a0]
     X:     0.0779      Y:    -0.0000      Z:     0.0025     Total:     0.0780

  Dipole Moment: [D]
     X:     0.1981      Y:    -0.0000      Z:     0.0063     Total:     0.1982

*** tstop() called on n082 at Fri Nov  5 14:38:23 2021
Module time:
	user time   =     495.47 seconds =       8.26 minutes
	system time =       4.41 seconds =       0.07 minutes
	total time  =        126 seconds =       2.10 minutes
Total time:
	user time   =     495.47 seconds =       8.26 minutes
	system time =       4.41 seconds =       0.07 minutes
	total time  =        126 seconds =       2.10 minutes
Grab this energy -157.81305125411876
    Psi4 stopped on: Friday, 05 November 2021 02:38PM
    Psi4 wall time for execution: 0:02:05.69

*** Psi4 exiting successfully. Buy a developer a beer!
