                               Psi4 1.4a2.dev629

  ==> Input File <==

--------------------------------------------------------------------------
import os
memory 14 GB

molecule {
 C   -0.3233380808    0.0058378978   -0.0000000000
 C    0.0611650483   -1.3997892334   -2.4264775568
 C    0.0609701382    2.8026757957   -0.0000000000
 C    0.0611650483   -1.3997892334    2.4264775568
 H    2.0889081125   -1.6448976580   -2.8470377536
 H   -0.7673252989   -0.3871881165   -4.0254999533
 H   -0.7658784980   -3.2953008990   -2.3492082458
 H    2.0828554802    3.2880004697    0.0000000000
 H   -0.7634170711    3.6789066684    1.6728480731
 H   -0.7634170711    3.6789066684   -1.6728480731
 H    2.0889081125   -1.6448976580    2.8470377536
 H   -0.7658784980   -3.2953008990    2.3492082458
 H   -0.7673252989   -0.3871881165    4.0254999533
units bohr
0 2
}

basis {

assign 6-31g_2dfp_

[ 6-31g_2dfp_ ]

spherical

!----------------------------------------------------------------------
! Basis Set Exchange
! Version v0.8.13
! https://www.basissetexchange.org
!----------------------------------------------------------------------
!   Basis set: 6-31G(2df,p)
! Description: 6-31G(2df,p)
!        Role: orbital
!     Version: 0  (Data from the original Basis Set Exchange)
!----------------------------------------------------------------------

****
H     0
S    3   1.00
     18.7311370              0.03349460
      2.8253937              0.23472695
      0.6401217              0.81375733
S    1   1.00
      0.1612778              1.00000000
P    1   1.00
      1.5000000              1.0000000
P    1   1.00
      0.3750000              1.0000000
****
B     0
S    6   1.00
   2068.8823000              0.0018663
    310.6495700              0.0142515
     70.6830330              0.0695516
     19.8610800              0.2325729
      6.2993048              0.4670787
      2.1270270              0.3634314
SP   3   1.00
      4.7279710             -0.1303938              0.0745976
      1.1903377             -0.1307889              0.3078467
      0.3594117              1.1309444              0.7434568
SP   1   1.00
      0.1267512              1.0000000              1.0000000
D    1   1.00
      0.8020000              1.0000000
D    1   1.00
      0.2005000              1.0000000
F    1   1.00
      0.5000000              1.0000000
****
C     0
S    6   1.00
   3047.5249000              0.0018347
    457.3695100              0.0140373
    103.9486900              0.0688426
     29.2101550              0.2321844
      9.2866630              0.4679413
      3.1639270              0.3623120
SP   3   1.00
      7.8682724             -0.1193324              0.0689991
      1.8812885             -0.1608542              0.3164240
      0.5442493              1.1434564              0.7443083
SP   1   1.00
      0.1687144              1.0000000              1.0000000
D    1   1.00
      1.2520000              1.0000000
D    1   1.00
      0.3130000              1.0000000
F    1   1.00
      0.8000000              1.0000000
****
N     0
S    6   1.00
   4173.5110000              0.0018348
    627.4579000              0.0139950
    142.9021000              0.0685870
     40.2343300              0.2322410
     12.8202100              0.4690700
      4.3904370              0.3604550
SP   3   1.00
     11.6263580             -0.1149610              0.0675800
      2.7162800             -0.1691180              0.3239070
      0.7722180              1.1458520              0.7408950
SP   1   1.00
      0.2120313              1.0000000              1.0000000
D    1   1.00
      1.8260000              1.0000000
D    1   1.00
      0.4565000              1.0000000
F    1   1.00
      1.0000000              1.0000000
****
O     0
S    6   1.00
   5484.6717000              0.0018311
    825.2349500              0.0139501
    188.0469600              0.0684451
     52.9645000              0.2327143
     16.8975700              0.4701930
      5.7996353              0.3585209
SP   3   1.00
     15.5396160             -0.1107775              0.0708743
      3.5999336             -0.1480263              0.3397528
      1.0137618              1.1307670              0.7271586
SP   1   1.00
      0.2700058              1.0000000              1.0000000
D    1   1.00
      2.5840000              1.0000000
D    1   1.00
      0.6460000              1.0000000
F    1   1.00
      1.4000000              1.0000000
****
F     0
S    6   1.00
   7001.7130900              0.0018196169
   1051.3660900              0.0139160796
    239.2856900              0.0684053245
     67.3974453              0.233185760
     21.5199573              0.471267439
      7.40310130             0.356618546
SP   3   1.00
     20.8479528             -0.108506975            0.0716287243
      4.80830834            -0.146451658            0.3459121030
      1.34406986             1.128688580            0.7224699570
SP   1   1.00
      0.358151393            1.0000000              1.0000000
D    1   1.00
      3.5000000              1.0000000
D    1   1.00
      0.8750000              1.0000000
F    1   1.00
      1.8500000              1.0000000
****
Al     0
S    6   1.00
  13983.1000000              0.00194267
   2098.7500000              0.0148599
    477.7050000              0.0728494
    134.3600000              0.2468300
     42.8709000              0.4872580
     14.5189000              0.3234960
SP   6   1.00
    239.6680000             -0.00292619             0.00460285
     57.4419000             -0.0374080              0.0331990
     18.2859000             -0.1144870              0.1362820
      6.5991400              0.1156350              0.3304760
      2.4904900              0.6125950              0.4491460
      0.9445400              0.3937990              0.2657040
SP   3   1.00
      1.2779000             -0.2276060             -0.0175130
      0.3975900              0.00144583             0.2445330
      0.1600950              1.0927900              0.8049340
SP   1   1.00
      0.0556577              1.0000000              1.0000000
D    1   1.00
      0.6500000              1.0000000
D    1   1.00
      0.1625000              1.0000000
F    1   1.00
      0.2500000              1.0000000
****
Si     0
S    6   1.00
  16115.9000000              0.00195948
   2425.5800000              0.01492880
    553.8670000              0.07284780
    156.3400000              0.24613000
     50.0683000              0.48591400
     17.0178000              0.32500200
SP   6   1.00
    292.7180000             -0.00278094             0.00443826
     69.8731000             -0.03571460             0.03266790
     22.3363000             -0.11498500             0.13472100
      8.1503900              0.09356340             0.32867800
      3.1345800              0.60301700             0.44964000
      1.2254300              0.41895900             0.26137200
SP   3   1.00
      1.7273800             -0.24463000            -0.01779510
      0.5729220              0.00431572             0.25353900
      0.2221920              1.09818000             0.80066900
SP   1   1.00
      0.0778369              1.00000000             1.00000000
D    1   1.00
      0.9000000              1.0000000
D    1   1.00
      0.2250000              1.0000000
F    1   1.00
      0.3200000              1.0000000
****
P     0
S    6   1.00
  19413.3000000              0.0018516
   2909.4200000              0.0142062
    661.3640000              0.0699995
    185.7590000              0.2400790
     59.1943000              0.4847620
     20.0310000              0.3352000
SP   6   1.00
    339.4780000             -0.00278217             0.00456462
     81.0101000             -0.0360499              0.03369360
     25.8780000             -0.1166310              0.13975500
      9.4522100              0.0968328              0.33936200
      3.6656600              0.6144180              0.45092100
      1.4674600              0.4037980              0.23858600
SP   3   1.00
      2.1562300             -0.2529230             -0.01776530
      0.7489970              0.0328517              0.27405800
      0.2831450              1.0812500              0.78542100
SP   1   1.00
      0.0998317              1.0000000              1.00000000
D    1   1.00
      1.1000000              1.0000000
D    1   1.00
      0.2750000              1.0000000
F    1   1.00
      0.4500000              1.0000000
****
S     0
S    6   1.00
  21917.1000000              0.0018690
   3301.4900000              0.0142300
    754.1460000              0.0696960
    212.7110000              0.2384870
     67.9896000              0.4833070
     23.0515000              0.3380740
SP   6   1.00
    423.7350000             -0.0023767              0.0040610
    100.7100000             -0.0316930              0.0306810
     32.1599000             -0.1133170              0.1304520
     11.8079000              0.0560900              0.3272050
      4.6311000              0.5922550              0.4528510
      1.8702500              0.4550060              0.2560420
SP   3   1.00
      2.6158400             -0.2503740             -0.0145110
      0.9221670              0.0669570              0.3102630
      0.3412870              1.0545100              0.7544830
SP   1   1.00
      0.1171670              1.0000000              1.0000000
D    1   1.00
      1.3000000              1.0000000
D    1   1.00
      0.3250000              1.0000000
F    1   1.00
      0.5500000              1.0000000
****
Cl     0
S    6   1.00
  25180.1000000              0.0018330
   3780.3500000              0.0140340
    860.4740000              0.0690970
    242.1450000              0.2374520
     77.3349000              0.4830340
     26.2470000              0.3398560
SP   6   1.00
    491.7650000             -0.0022974              0.0039894
    116.9840000             -0.0307140              0.0303180
     37.4153000             -0.1125280              0.1298800
     13.7834000              0.0450160              0.3279510
      5.4521500              0.5893530              0.4535270
      2.2258800              0.4652060              0.2521540
SP   3   1.00
      3.1864900             -0.2518300             -0.0142990
      1.1442700              0.0615890              0.3235720
      0.4203770              1.0601800              0.7435070
SP   1   1.00
      0.1426570              1.0000000              1.0000000
D    1   1.00
      1.5000000              1.0000000
D    1   1.00
      0.3750000              1.0000000
F    1   1.00
      0.7000000              1.0000000
****
}

set {
reference uhf
freeze_core true
e_convergence 10
d_convergence 10
dft_spherical_points 1202
dft_radial_points 99
}

e = energy('b3lyp')

print_out('Grab this energy {0}'.format(e))
--------------------------------------------------------------------------

    Molecular point group: cs

    Geometry (in Bohr), charge = 0, multiplicity = 2:

       Center              X                  Y                   Z               Mass
    ------------   -----------------  -----------------  -----------------  -----------------
         C           -0.323338492755     0.004117338146     0.000000000000    12.000000000000
         C            0.061164636345    -1.401509793054    -2.426477556800    12.000000000000
         C            0.060969726245     2.800955236046     0.000000000000    12.000000000000
         C            0.061164636345    -1.401509793054     2.426477556800    12.000000000000
         H            2.088907700545    -1.646618217654    -2.847037753600     1.007825032230
         H           -0.767325710855    -0.388908676154    -4.025499953300     1.007825032230
         H           -0.765878909955    -3.297021458654    -2.349208245800     1.007825032230
         H            2.082855068245     3.286279910046     0.000000000000     1.007825032230
         H           -0.763417483055     3.677186108746     1.672848073100     1.007825032230
         H           -0.763417483055     3.677186108746    -1.672848073100     1.007825032230
         H            2.088907700545    -1.646618217654     2.847037753600     1.007825032230
         H           -0.765878909955    -3.297021458654     2.349208245800     1.007825032230
         H           -0.767325710855    -0.388908676154     4.025499953300     1.007825032230

  Charge       = 0
  Multiplicity = 2
  Basis Set: ANONYMOUS0E032B86
    Blend: 6-31G_2DFP_
  Basis Set: (ANONYMOUS0E032B86 AUX)
    Blend: DEF2-UNIVERSAL-JKFIT

    Orbital Energies [Eh]
    ---------------------

    Alpha Occupied:

       1Ap   -10.180342     1App  -10.167382     2Ap   -10.167352
       3Ap   -10.166310     4Ap    -0.797772     5Ap    -0.686694
       2App   -0.685676     6Ap    -0.530777     7Ap    -0.441136
       3App   -0.434976     8Ap    -0.434363     9Ap    -0.382936
       4App   -0.382265     5App   -0.363608    10Ap    -0.338486
       6App   -0.337507    11Ap    -0.168961

    Alpha Virtual:

      12Ap     0.076071    13Ap     0.134136     7App    0.134168
       8App    0.142557    14Ap     0.142701    15Ap     0.154878
       9App    0.178446    16Ap     0.179110    17Ap     0.203544
      10App    0.214806    11App    0.275740    18Ap     0.276229
      12App    0.399027    19Ap     0.399431    20Ap     0.403344
      21Ap     0.424001    13App    0.424192    22Ap     0.456594
      14App    0.495270    23Ap     0.495507    15App    0.512162
      24Ap     0.513976    16App    0.578502    25Ap     0.579129
      17App    0.591341    26Ap     0.591904    27Ap     0.602602
      28Ap     0.624761    18App    0.631681    29Ap     0.636026
      19App    0.636577    20App    0.663296    30Ap     0.663531
      21App    0.683591    31Ap     0.684129    32Ap     0.734993
      33Ap     0.825117    22App    0.825692    23App    0.853914
      34Ap     0.914893    24App    0.915147    25App    0.944127
      35Ap     0.944616    36Ap     0.961234    26App    0.961366
      37Ap     1.003454    27App    1.127545    38Ap     1.128656
      39Ap     1.142235    28App    1.162975    40Ap     1.163560
      41Ap     1.223330    42Ap     1.274209    29App    1.274777
      43Ap     1.279346    44Ap     1.324094    30App    1.324609
      45Ap     1.355978    31App    1.365510    46Ap     1.366605
      32App    1.392457    33App    1.403610    47Ap     1.404471
      34App    1.417104    48Ap     1.417111    35App    1.427917
      36App    1.491484    49Ap     1.499095    50Ap     1.542783
      37App    1.542894    51Ap     1.574152    38App    1.574759
      52Ap     1.669819    39App    1.739296    53Ap     1.739518
      54Ap     1.768301    40App    1.829538    55Ap     1.833295
      41App    1.971693    56Ap     2.017789    57Ap     2.018878
      42App    2.019720    43App    2.052216    58Ap     2.053150
      59Ap     2.738277    44App    2.738698    60Ap     2.790925
      45App    2.811426    46App    2.889116    61Ap     2.890744
      62Ap     2.894979    47App    2.929217    63Ap     2.929783
      48App    2.958983    49App    2.964030    64Ap     2.964736
      65Ap     3.034018    50App    3.070540    66Ap     3.072030
      51App    3.084371    67Ap     3.168471    52App    3.168983
      68Ap     3.180711    53App    3.285088    69Ap     3.285541
      70Ap     3.326731    54App    3.327581    71Ap     3.375582
      72Ap     3.489902    55App    3.490442    56App    3.514019
      73Ap     3.525313    74Ap     3.568207    57App    3.568494
      58App    3.575252    59App    3.665955    75Ap     3.666708
      76Ap     3.679648    60App    3.693667    77Ap     3.694626
      61App    3.775515    78Ap     3.778095    79Ap     3.789192
      62App    3.911325    80Ap     3.913144    81Ap     4.034386
      63App    4.110257    82Ap     4.112274    83Ap     4.147181
      64App    4.149107    84Ap     4.173358    65App    4.201792
      85Ap     4.201799    86Ap     4.205036    66App    4.211208
      67App    4.314688    87Ap     4.317210    68App    4.358898
      88Ap     4.424301    69App    4.424418    70App    4.443650
      71App    4.516507    89Ap     4.517167    90Ap     4.577311
      72App    4.578909    91Ap     4.617891    92Ap     4.709526
      73App    4.773948    93Ap     4.775314    74App    4.836877
      94Ap     4.962762    75App    5.002668    95Ap     5.003397
      96Ap     5.227787    97Ap     5.243231    76App    5.250366
      77App    5.351933    98Ap     5.359280    78App    5.479464

    Beta Occupied:

       1App  -10.168136     1Ap   -10.168116     2Ap   -10.167077
       3Ap   -10.166513     4Ap    -0.781097     5Ap    -0.684484
       2App   -0.683491     6Ap    -0.511749     3App   -0.431354
       7Ap    -0.430740     8Ap    -0.421820     9Ap    -0.376989
       4App   -0.376383     5App   -0.362590    10Ap    -0.333626
       6App   -0.332614

    Beta Virtual:

      11Ap    -0.025742    12Ap     0.077080    13Ap     0.134987
       7App    0.135098     8App    0.144389    14Ap     0.144610
      15Ap     0.163335     9App    0.182115    16Ap     0.182785
      10App    0.215036    17Ap     0.218927    11App    0.282124
      18Ap     0.282540    12App    0.400196    19Ap     0.400601
      20Ap     0.419791    21Ap     0.426821    13App    0.426995
      22Ap     0.468502    14App    0.497528    23Ap     0.497771
      15App    0.513897    24Ap     0.556318    16App    0.584022
      25Ap     0.584713    17App    0.597532    26Ap     0.598075
      27Ap     0.610019    28Ap     0.628135    18App    0.631877
      29Ap     0.639353    19App    0.639787    20App    0.666839
      30Ap     0.667115    21App    0.686263    31Ap     0.686728
      32Ap     0.757516    33Ap     0.830255    22App    0.830890
      23App    0.855268    34Ap     0.922840    24App    0.923142
      25App    0.945964    35Ap     0.953540    36Ap     0.966580
      26App    0.966635    37Ap     1.008694    27App    1.131582
      38Ap     1.132685    39Ap     1.155601    28App    1.168067
      40Ap     1.168616    41Ap     1.232304    42Ap     1.279860
      29App    1.280320    43Ap     1.285100    44Ap     1.329025
      30App    1.329657    45Ap     1.365381    31App    1.370815
      46Ap     1.371803    32App    1.393514    33App    1.407003
      47Ap     1.408010    34App    1.422098    48Ap     1.422214
      35App    1.428189    36App    1.492533    49Ap     1.509537
      50Ap     1.547152    37App    1.547341    51Ap     1.582060
      38App    1.582594    52Ap     1.674665    39App    1.745036
      53Ap     1.745302    54Ap     1.779080    40App    1.833409
      55Ap     1.837139    41App    1.972557    56Ap     2.024798
      42App    2.026038    57Ap     2.039718    43App    2.059007
      58Ap     2.059796    59Ap     2.746630    44App    2.747017
      45App    2.811838    60Ap     2.816060    46App    2.901970
      61Ap     2.903290    62Ap     2.924655    47App    2.931597
      63Ap     2.932374    48App    2.960054    49App    2.968524
      64Ap     2.969321    65Ap     3.041954    50App    3.080436
      66Ap     3.081919    51App    3.086222    67Ap     3.184054
      52App    3.184685    68Ap     3.188611    53App    3.289953
      69Ap     3.290272    70Ap     3.330554    54App    3.331366
      71Ap     3.383402    72Ap     3.492672    55App    3.493127
      56App    3.512391    73Ap     3.528357    57App    3.574942
      74Ap     3.581564    58App    3.581986    59App    3.670568
      75Ap     3.671597    76Ap     3.692990    60App    3.725430
      77Ap     3.726067    61App    3.780083    78Ap     3.782619
      79Ap     3.817698    62App    3.921157    80Ap     3.922950
      81Ap     4.045268    63App    4.117316    82Ap     4.118836
      83Ap     4.154588    64App    4.156142    84Ap     4.187399
      65App    4.207667    85Ap     4.208941    86Ap     4.211845
      66App    4.215709    67App    4.322185    87Ap     4.324588
      68App    4.362263    69App    4.432484    88Ap     4.432571
      70App    4.446632    71App    4.524312    89Ap     4.524942
      90Ap     4.587941    72App    4.589459    91Ap     4.625102
      92Ap     4.719875    73App    4.780831    93Ap     4.782338
      74App    4.839794    94Ap     4.967555    75App    5.006709
      95Ap     5.007437    96Ap     5.233487    97Ap     5.245027
      76App    5.252155    77App    5.358402    98Ap     5.365772
      78App    5.481785

    Final Occupation by Irrep:
             Ap   App
    DOCC [    10,    6 ]
    SOCC [     1,    0 ]

  @DF-UKS Final Energy:  -157.81304836920819

   => Energetics <=

    Nuclear Repulsion Energy =            125.3947523279741461
    One-Electron Energy =                -458.7491120079655502
    Two-Electron Energy =                 195.8484621813578883
    DFT Exchange-Correlation Energy =     -20.3071508705746986
    Empirical Dispersion Energy =           0.0000000000000000
    VV10 Nonlocal Energy =                  0.0000000000000000
    Total Energy =                       -157.8130483692081896

  UHF NO Occupations:
  HONO-2 :    9 Ap 1.9996009
  HONO-1 :   10 Ap 1.9989805
  HONO-0 :   11 Ap 1.0000000
  LUNO+0 :   12 Ap 0.0010195
  LUNO+1 :   13 Ap 0.0003991
  LUNO+2 :    7App 0.0001987
  LUNO+3 :   14 Ap 0.0001964

Computation Completed

Properties will be evaluated at   0.000000,   0.000000,   0.000000 [a0]

Properties computed using the SCF density matrix

  Nuclear Dipole Moment: [e a0]
     X:     0.8272      Y:    -0.0121      Z:     0.0000

  Electronic Dipole Moment: [e a0]
     X:    -0.7493      Y:     0.0158      Z:     0.0000

  Dipole Moment: [e a0]
     X:     0.0779      Y:     0.0037      Z:     0.0000     Total:     0.0780

  Dipole Moment: [D]
     X:     0.1980      Y:     0.0093      Z:     0.0000     Total:     0.1983

*** tstop() called on n065 at Fri Nov  5 13:46:37 2021
Module time:
	user time   =     545.78 seconds =       9.10 minutes
	system time =      12.03 seconds =       0.20 minutes
	total time  =        140 seconds =       2.33 minutes
Total time:
	user time   =     545.78 seconds =       9.10 minutes
	system time =      12.03 seconds =       0.20 minutes
	total time  =        140 seconds =       2.33 minutes
Grab this energy -157.8130483692082
    Psi4 stopped on: Friday, 05 November 2021 01:46PM
    Psi4 wall time for execution: 0:02:20.27

*** Psi4 exiting successfully. Buy a developer a beer!
