                               Psi4 1.4a2.dev629

  ==> Input File <==

--------------------------------------------------------------------------
import os
memory 14 GB

molecule {
 C   -0.3218901123   -0.0000024682    0.0002589747
 C    0.0620592025   -1.4005883934   -2.4266470942
 C    0.0601642906    2.8018529500   -0.0007680464
 C    0.0585104721   -1.4012613767    2.4262761743
 H    2.0868124171   -1.6441797032   -2.8473479594
 H   -0.7658686881   -0.3884063188   -4.0253852624
 H   -0.7658955790   -3.2919461711   -2.3489792665
 H    2.0868488121    3.2880577245    0.0002365259
 H   -0.7653488650    3.6802108390    1.6767213651
 H   -0.7656215390    3.6802978023   -1.6763915912
 H    2.0871647824   -1.6439692532    2.8474567638
 H   -0.7649213846   -3.2921486408    2.3489392608
 H   -0.7646216856   -0.3879413040    4.0256301555
units bohr
0 2
}

basis {

assign 6-31g_2dfp_

[ 6-31g_2dfp_ ]

spherical

!----------------------------------------------------------------------
! Basis Set Exchange
! Version v0.8.13
! https://www.basissetexchange.org
!----------------------------------------------------------------------
!   Basis set: 6-31G(2df,p)
! Description: 6-31G(2df,p)
!        Role: orbital
!     Version: 0  (Data from the original Basis Set Exchange)
!----------------------------------------------------------------------

****
H     0
S    3   1.00
     18.7311370              0.03349460
      2.8253937              0.23472695
      0.6401217              0.81375733
S    1   1.00
      0.1612778              1.00000000
P    1   1.00
      1.5000000              1.0000000
P    1   1.00
      0.3750000              1.0000000
****
B     0
S    6   1.00
   2068.8823000              0.0018663
    310.6495700              0.0142515
     70.6830330              0.0695516
     19.8610800              0.2325729
      6.2993048              0.4670787
      2.1270270              0.3634314
SP   3   1.00
      4.7279710             -0.1303938              0.0745976
      1.1903377             -0.1307889              0.3078467
      0.3594117              1.1309444              0.7434568
SP   1   1.00
      0.1267512              1.0000000              1.0000000
D    1   1.00
      0.8020000              1.0000000
D    1   1.00
      0.2005000              1.0000000
F    1   1.00
      0.5000000              1.0000000
****
C     0
S    6   1.00
   3047.5249000              0.0018347
    457.3695100              0.0140373
    103.9486900              0.0688426
     29.2101550              0.2321844
      9.2866630              0.4679413
      3.1639270              0.3623120
SP   3   1.00
      7.8682724             -0.1193324              0.0689991
      1.8812885             -0.1608542              0.3164240
      0.5442493              1.1434564              0.7443083
SP   1   1.00
      0.1687144              1.0000000              1.0000000
D    1   1.00
      1.2520000              1.0000000
D    1   1.00
      0.3130000              1.0000000
F    1   1.00
      0.8000000              1.0000000
****
N     0
S    6   1.00
   4173.5110000              0.0018348
    627.4579000              0.0139950
    142.9021000              0.0685870
     40.2343300              0.2322410
     12.8202100              0.4690700
      4.3904370              0.3604550
SP   3   1.00
     11.6263580             -0.1149610              0.0675800
      2.7162800             -0.1691180              0.3239070
      0.7722180              1.1458520              0.7408950
SP   1   1.00
      0.2120313              1.0000000              1.0000000
D    1   1.00
      1.8260000              1.0000000
D    1   1.00
      0.4565000              1.0000000
F    1   1.00
      1.0000000              1.0000000
****
O     0
S    6   1.00
   5484.6717000              0.0018311
    825.2349500              0.0139501
    188.0469600              0.0684451
     52.9645000              0.2327143
     16.8975700              0.4701930
      5.7996353              0.3585209
SP   3   1.00
     15.5396160             -0.1107775              0.0708743
      3.5999336             -0.1480263              0.3397528
      1.0137618              1.1307670              0.7271586
SP   1   1.00
      0.2700058              1.0000000              1.0000000
D    1   1.00
      2.5840000              1.0000000
D    1   1.00
      0.6460000              1.0000000
F    1   1.00
      1.4000000              1.0000000
****
F     0
S    6   1.00
   7001.7130900              0.0018196169
   1051.3660900              0.0139160796
    239.2856900              0.0684053245
     67.3974453              0.233185760
     21.5199573              0.471267439
      7.40310130             0.356618546
SP   3   1.00
     20.8479528             -0.108506975            0.0716287243
      4.80830834            -0.146451658            0.3459121030
      1.34406986             1.128688580            0.7224699570
SP   1   1.00
      0.358151393            1.0000000              1.0000000
D    1   1.00
      3.5000000              1.0000000
D    1   1.00
      0.8750000              1.0000000
F    1   1.00
      1.8500000              1.0000000
****
Al     0
S    6   1.00
  13983.1000000              0.00194267
   2098.7500000              0.0148599
    477.7050000              0.0728494
    134.3600000              0.2468300
     42.8709000              0.4872580
     14.5189000              0.3234960
SP   6   1.00
    239.6680000             -0.00292619             0.00460285
     57.4419000             -0.0374080              0.0331990
     18.2859000             -0.1144870              0.1362820
      6.5991400              0.1156350              0.3304760
      2.4904900              0.6125950              0.4491460
      0.9445400              0.3937990              0.2657040
SP   3   1.00
      1.2779000             -0.2276060             -0.0175130
      0.3975900              0.00144583             0.2445330
      0.1600950              1.0927900              0.8049340
SP   1   1.00
      0.0556577              1.0000000              1.0000000
D    1   1.00
      0.6500000              1.0000000
D    1   1.00
      0.1625000              1.0000000
F    1   1.00
      0.2500000              1.0000000
****
Si     0
S    6   1.00
  16115.9000000              0.00195948
   2425.5800000              0.01492880
    553.8670000              0.07284780
    156.3400000              0.24613000
     50.0683000              0.48591400
     17.0178000              0.32500200
SP   6   1.00
    292.7180000             -0.00278094             0.00443826
     69.8731000             -0.03571460             0.03266790
     22.3363000             -0.11498500             0.13472100
      8.1503900              0.09356340             0.32867800
      3.1345800              0.60301700             0.44964000
      1.2254300              0.41895900             0.26137200
SP   3   1.00
      1.7273800             -0.24463000            -0.01779510
      0.5729220              0.00431572             0.25353900
      0.2221920              1.09818000             0.80066900
SP   1   1.00
      0.0778369              1.00000000             1.00000000
D    1   1.00
      0.9000000              1.0000000
D    1   1.00
      0.2250000              1.0000000
F    1   1.00
      0.3200000              1.0000000
****
P     0
S    6   1.00
  19413.3000000              0.0018516
   2909.4200000              0.0142062
    661.3640000              0.0699995
    185.7590000              0.2400790
     59.1943000              0.4847620
     20.0310000              0.3352000
SP   6   1.00
    339.4780000             -0.00278217             0.00456462
     81.0101000             -0.0360499              0.03369360
     25.8780000             -0.1166310              0.13975500
      9.4522100              0.0968328              0.33936200
      3.6656600              0.6144180              0.45092100
      1.4674600              0.4037980              0.23858600
SP   3   1.00
      2.1562300             -0.2529230             -0.01776530
      0.7489970              0.0328517              0.27405800
      0.2831450              1.0812500              0.78542100
SP   1   1.00
      0.0998317              1.0000000              1.00000000
D    1   1.00
      1.1000000              1.0000000
D    1   1.00
      0.2750000              1.0000000
F    1   1.00
      0.4500000              1.0000000
****
S     0
S    6   1.00
  21917.1000000              0.0018690
   3301.4900000              0.0142300
    754.1460000              0.0696960
    212.7110000              0.2384870
     67.9896000              0.4833070
     23.0515000              0.3380740
SP   6   1.00
    423.7350000             -0.0023767              0.0040610
    100.7100000             -0.0316930              0.0306810
     32.1599000             -0.1133170              0.1304520
     11.8079000              0.0560900              0.3272050
      4.6311000              0.5922550              0.4528510
      1.8702500              0.4550060              0.2560420
SP   3   1.00
      2.6158400             -0.2503740             -0.0145110
      0.9221670              0.0669570              0.3102630
      0.3412870              1.0545100              0.7544830
SP   1   1.00
      0.1171670              1.0000000              1.0000000
D    1   1.00
      1.3000000              1.0000000
D    1   1.00
      0.3250000              1.0000000
F    1   1.00
      0.5500000              1.0000000
****
Cl     0
S    6   1.00
  25180.1000000              0.0018330
   3780.3500000              0.0140340
    860.4740000              0.0690970
    242.1450000              0.2374520
     77.3349000              0.4830340
     26.2470000              0.3398560
SP   6   1.00
    491.7650000             -0.0022974              0.0039894
    116.9840000             -0.0307140              0.0303180
     37.4153000             -0.1125280              0.1298800
     13.7834000              0.0450160              0.3279510
      5.4521500              0.5893530              0.4535270
      2.2258800              0.4652060              0.2521540
SP   3   1.00
      3.1864900             -0.2518300             -0.0142990
      1.1442700              0.0615890              0.3235720
      0.4203770              1.0601800              0.7435070
SP   1   1.00
      0.1426570              1.0000000              1.0000000
D    1   1.00
      1.5000000              1.0000000
D    1   1.00
      0.3750000              1.0000000
F    1   1.00
      0.7000000              1.0000000
****
}

set {
reference uhf
freeze_core true
e_convergence 10
d_convergence 10
dft_spherical_points 1202
dft_radial_points 99
}

e = energy('b3lyp')

print_out('Grab this energy {0}'.format(e))
--------------------------------------------------------------------------

    Molecular point group: c1

    Geometry (in Bohr), charge = 0, multiplicity = 2:

       Center              X                  Y                   Z               Mass
    ------------   -----------------  -----------------  -----------------  -----------------
         C           -0.321675131408    -0.000002175917     0.000428467420    12.000000000000
         C            0.062274183392    -1.400588101117    -2.426477601480    12.000000000000
         C            0.060379271492     2.801853242283    -0.000598553680    12.000000000000
         C            0.058725452992    -1.401261084417     2.426445667020    12.000000000000
         H            2.087027397992    -1.644179410917    -2.847178466680     1.007825032230
         H           -0.765653707208    -0.388406026517    -4.025215769680     1.007825032230
         H           -0.765680598108    -3.291945878817    -2.348809773780     1.007825032230
         H            2.087063792992     3.288058016783     0.000406018620     1.007825032230
         H           -0.765133884108     3.680211131283     1.676890857820     1.007825032230
         H           -0.765406558108     3.680298094583    -1.676222098480     1.007825032230
         H            2.087379763292    -1.643968960917     2.847626256520     1.007825032230
         H           -0.764706403708    -3.292148348517     2.349108753520     1.007825032230
         H           -0.764406704708    -0.387941011717     4.025799648220     1.007825032230

  Charge       = 0
  Multiplicity = 2
  Basis Set: ANONYMOUS066C94A6
    Blend: 6-31G_2DFP_
  Basis Set: (ANONYMOUS066C94A6 AUX)
    Blend: DEF2-UNIVERSAL-JKFIT

    Orbital Energies [Eh]
    ---------------------

    Alpha Occupied:

       1A    -10.180277     2A    -10.167059     3A    -10.167028
       4A    -10.166982     5A     -0.797781     6A     -0.686237
       7A     -0.686171     8A     -0.530770     9A     -0.441069
      10A     -0.434835    11A     -0.434633    12A     -0.382642
      13A     -0.382342    14A     -0.363738    15A     -0.338175
      16A     -0.338006    17A     -0.168778

    Alpha Virtual:

      18A      0.076069    19A      0.134126    20A      0.134193
      21A      0.142589    22A      0.142714    23A      0.154799
      24A      0.178596    25A      0.178824    26A      0.203521
      27A      0.214850    28A      0.276103    29A      0.276213
      30A      0.399090    31A      0.399405    32A      0.403427
      33A      0.424077    34A      0.424173    35A      0.456499
      36A      0.495386    37A      0.495443    38A      0.512115
      39A      0.514078    40A      0.578603    41A      0.578776
      42A      0.591487    43A      0.591725    44A      0.602353
      45A      0.624842    46A      0.631835    47A      0.636298
      48A      0.636512    49A      0.663085    50A      0.663423
      51A      0.683813    52A      0.684110    53A      0.735191
      54A      0.825449    55A      0.825476    56A      0.853914
      57A      0.915069    58A      0.915111    59A      0.944078
      60A      0.944565    61A      0.961197    62A      0.961353
      63A      1.003452    64A      1.127912    65A      1.128119
      66A      1.142204    67A      1.162741    68A      1.162936
      69A      1.223486    70A      1.274413    71A      1.274695
      72A      1.279117    73A      1.324353    74A      1.324862
      75A      1.355748    76A      1.366127    77A      1.366735
      78A      1.392447    79A      1.403881    80A      1.404133
      81A      1.416584    82A      1.417164    83A      1.427860
      84A      1.491676    85A      1.498687    86A      1.542739
      87A      1.542818    88A      1.574578    89A      1.574884
      90A      1.670095    91A      1.739252    92A      1.740061
      93A      1.768268    94A      1.831584    95A      1.831979
      96A      1.971991    97A      2.018106    98A      2.019170
      99A      2.019527   100A      2.051873   101A      2.052621
     102A      2.738640   103A      2.738717   104A      2.790726
     105A      2.811458   106A      2.889932   107A      2.890477
     108A      2.894631   109A      2.929447   110A      2.929506
     111A      2.959064   112A      2.964379   113A      2.964589
     114A      3.033654   115A      3.072003   116A      3.072242
     117A      3.084430   118A      3.168542   119A      3.168783
     120A      3.180621   121A      3.284478   122A      3.284554
     123A      3.326659   124A      3.326956   125A      3.375450
     126A      3.490083   127A      3.490702   128A      3.514198
     129A      3.524864   130A      3.568568   131A      3.568790
     132A      3.574523   133A      3.666671   134A      3.667259
     135A      3.679871   136A      3.694039   137A      3.694071
     138A      3.777039   139A      3.777136   140A      3.790383
     141A      3.912163   142A      3.912328   143A      4.034766
     144A      4.111523   145A      4.111702   146A      4.148101
     147A      4.148212   148A      4.173280   149A      4.202494
     150A      4.202841   151A      4.203269   152A      4.210791
     153A      4.315326   154A      4.316187   155A      4.358504
     156A      4.424486   157A      4.424735   158A      4.443677
     159A      4.515495   160A      4.517597   161A      4.577954
     162A      4.578373   163A      4.618027   164A      4.709120
     165A      4.774229   166A      4.775255   167A      4.838104
     168A      4.962764   169A      5.002338   170A      5.003252
     171A      5.228158   172A      5.246895   173A      5.246937
     174A      5.355514   175A      5.356052   176A      5.479715

    Beta Occupied:

       1A    -10.167817     2A    -10.167786     3A    -10.167751
       4A    -10.166458     5A     -0.781102     6A     -0.684042
       7A     -0.683976     8A     -0.511750     9A     -0.431222
      10A     -0.431010    11A     -0.421733    12A     -0.376725
      13A     -0.376408    14A     -0.362723    15A     -0.333295
      16A     -0.333124

    Beta Virtual:

      17A     -0.025641    18A      0.077083    19A      0.135035
      20A      0.135084    21A      0.144461    22A      0.144577
      23A      0.163269    24A      0.182264    25A      0.182496
      26A      0.215079    27A      0.218926    28A      0.282442
      29A      0.282546    30A      0.400260    31A      0.400577
      32A      0.419897    33A      0.426883    34A      0.426984
      35A      0.468393    36A      0.497646    37A      0.497695
      38A      0.513855    39A      0.556424    40A      0.584171
      41A      0.584335    42A      0.597656    43A      0.597904
      44A      0.609803    45A      0.628194    46A      0.631990
      47A      0.639577    48A      0.639794    49A      0.666662
      50A      0.666968    51A      0.686451    52A      0.686754
      53A      0.757693    54A      0.830616    55A      0.830638
      56A      0.855272    57A      0.923032    58A      0.923071
      59A      0.945918    60A      0.953500    61A      0.966529
      62A      0.966699    63A      1.008674    64A      1.131894
      65A      1.132178    66A      1.155614    67A      1.167864
      68A      1.167963    69A      1.232462    70A      1.279990
      71A      1.280282    72A      1.284862    73A      1.329323
      74A      1.329853    75A      1.365189    76A      1.371374
      77A      1.371983    78A      1.393511    79A      1.407336
      80A      1.407613    81A      1.421672    82A      1.422220
      83A      1.428123    84A      1.492726    85A      1.509123
      86A      1.547158    87A      1.547217    88A      1.582502
      89A      1.582702    90A      1.674926    91A      1.745023
      92A      1.745817    93A      1.779068    94A      1.835448
      95A      1.835843    96A      1.972852    97A      2.024517
      98A      2.025789    99A      2.040681   100A      2.058593
     101A      2.059289   102A      2.746981   103A      2.747048
     104A      2.811861   105A      2.815881   106A      2.902585
     107A      2.903112   108A      2.924356   109A      2.931941
     110A      2.931996   111A      2.960126   112A      2.968917
     113A      2.969118   114A      3.041631   115A      3.081874
     116A      3.082099   117A      3.086264   118A      3.184413
     119A      3.184611   120A      3.188256   121A      3.289325
     122A      3.289382   123A      3.330441   124A      3.330766
     125A      3.383259   126A      3.492796   127A      3.493412
     128A      3.512557   129A      3.527901   130A      3.574378
     131A      3.581929   132A      3.582026   133A      3.671495
     134A      3.671963   135A      3.693171   136A      3.725537
     137A      3.725826   138A      3.781535   139A      3.781613
     140A      3.818938   141A      3.922001   142A      3.922198
     143A      4.045625   144A      4.118406   145A      4.118478
     146A      4.155250   147A      4.155452   148A      4.187382
     149A      4.208534   150A      4.208894   151A      4.211010
     152A      4.215285   153A      4.322721   154A      4.323630
     155A      4.361869   156A      4.432754   157A      4.432982
     158A      4.446556   159A      4.523306   160A      4.525402
     161A      4.588536   162A      4.588927   163A      4.625227
     164A      4.719440   165A      4.781187   166A      4.782175
     167A      4.841010   168A      4.967562   169A      5.006409
     170A      5.007287   171A      5.233872   172A      5.248679
     173A      5.248722   174A      5.361987   175A      5.362523
     176A      5.482030

    Final Occupation by Irrep:
              A
    DOCC [    16 ]
    SOCC [     1 ]

  @DF-UKS Final Energy:  -157.81307935106881

   => Energetics <=

    Nuclear Repulsion Energy =            125.3970217908562290
    One-Electron Energy =                -458.7535471211944014
    Two-Electron Energy =                 195.8506566848724049
    DFT Exchange-Correlation Energy =     -20.3072107056030333
    Empirical Dispersion Energy =           0.0000000000000000
    VV10 Nonlocal Energy =                  0.0000000000000000
    Total Energy =                       -157.8130793510688079

  UHF NO Occupations:
  HONO-2 :   15  A 1.9995994
  HONO-1 :   16  A 1.9989790
  HONO-0 :   17  A 1.0000000
  LUNO+0 :   18  A 0.0010210
  LUNO+1 :   19  A 0.0004006
  LUNO+2 :   20  A 0.0001975
  LUNO+3 :   21  A 0.0001973

Computation Completed

Properties will be evaluated at   0.000000,   0.000000,   0.000000 [a0]

Properties computed using the SCF density matrix

  Nuclear Dipole Moment: [e a0]
     X:     0.8287      Y:    -0.0000      Z:     0.0012

  Electronic Dipole Moment: [e a0]
     X:    -0.7516      Y:     0.0000      Z:    -0.0011

  Dipole Moment: [e a0]
     X:     0.0771      Y:     0.0000      Z:     0.0001     Total:     0.0771

  Dipole Moment: [D]
     X:     0.1961      Y:     0.0000      Z:     0.0003     Total:     0.1961

*** tstop() called on n083 at Fri Nov  5 11:28:53 2021
Module time:
	user time   =     498.06 seconds =       8.30 minutes
	system time =       4.40 seconds =       0.07 minutes
	total time  =        126 seconds =       2.10 minutes
Total time:
	user time   =     498.06 seconds =       8.30 minutes
	system time =       4.40 seconds =       0.07 minutes
	total time  =        126 seconds =       2.10 minutes
Grab this energy -157.8130793510688
    Psi4 stopped on: Friday, 05 November 2021 11:28AM
    Psi4 wall time for execution: 0:02:06.34

*** Psi4 exiting successfully. Buy a developer a beer!
