                               Psi4 1.4a2.dev629

  ==> Input File <==

--------------------------------------------------------------------------
import os
memory 14 GB

molecule {
 C   -0.3233315819    0.0000032213    0.0069969268
 C    0.0617969778   -1.3956086276   -2.4223458996
 C    0.0610196143    2.8017402183   -0.0050738079
 C    0.0604848668   -1.4061235300    2.4304105197
 H    2.0874144641   -1.6390577798   -2.8457777717
 H   -0.7656171722   -0.3765231369   -4.0164383991
 H   -0.7644060246   -3.2877468555   -2.3509149524
 H    2.0867962789    3.2880882835   -0.0070461492
 H   -0.7642637798    3.6934304468    1.6662120266
 H   -0.7670305986    3.6670035016   -1.6866872515
 H    2.0864578072   -1.6491175580    2.8491094458
 H   -0.7667425357   -3.2962060091    2.3470668483
 H   -0.7651861930   -0.3999064883    4.0344884641
units bohr
0 2
}

basis {

assign 6-31g_2dfp_

[ 6-31g_2dfp_ ]

spherical

!----------------------------------------------------------------------
! Basis Set Exchange
! Version v0.8.13
! https://www.basissetexchange.org
!----------------------------------------------------------------------
!   Basis set: 6-31G(2df,p)
! Description: 6-31G(2df,p)
!        Role: orbital
!     Version: 0  (Data from the original Basis Set Exchange)
!----------------------------------------------------------------------

****
H     0
S    3   1.00
     18.7311370              0.03349460
      2.8253937              0.23472695
      0.6401217              0.81375733
S    1   1.00
      0.1612778              1.00000000
P    1   1.00
      1.5000000              1.0000000
P    1   1.00
      0.3750000              1.0000000
****
B     0
S    6   1.00
   2068.8823000              0.0018663
    310.6495700              0.0142515
     70.6830330              0.0695516
     19.8610800              0.2325729
      6.2993048              0.4670787
      2.1270270              0.3634314
SP   3   1.00
      4.7279710             -0.1303938              0.0745976
      1.1903377             -0.1307889              0.3078467
      0.3594117              1.1309444              0.7434568
SP   1   1.00
      0.1267512              1.0000000              1.0000000
D    1   1.00
      0.8020000              1.0000000
D    1   1.00
      0.2005000              1.0000000
F    1   1.00
      0.5000000              1.0000000
****
C     0
S    6   1.00
   3047.5249000              0.0018347
    457.3695100              0.0140373
    103.9486900              0.0688426
     29.2101550              0.2321844
      9.2866630              0.4679413
      3.1639270              0.3623120
SP   3   1.00
      7.8682724             -0.1193324              0.0689991
      1.8812885             -0.1608542              0.3164240
      0.5442493              1.1434564              0.7443083
SP   1   1.00
      0.1687144              1.0000000              1.0000000
D    1   1.00
      1.2520000              1.0000000
D    1   1.00
      0.3130000              1.0000000
F    1   1.00
      0.8000000              1.0000000
****
N     0
S    6   1.00
   4173.5110000              0.0018348
    627.4579000              0.0139950
    142.9021000              0.0685870
     40.2343300              0.2322410
     12.8202100              0.4690700
      4.3904370              0.3604550
SP   3   1.00
     11.6263580             -0.1149610              0.0675800
      2.7162800             -0.1691180              0.3239070
      0.7722180              1.1458520              0.7408950
SP   1   1.00
      0.2120313              1.0000000              1.0000000
D    1   1.00
      1.8260000              1.0000000
D    1   1.00
      0.4565000              1.0000000
F    1   1.00
      1.0000000              1.0000000
****
O     0
S    6   1.00
   5484.6717000              0.0018311
    825.2349500              0.0139501
    188.0469600              0.0684451
     52.9645000              0.2327143
     16.8975700              0.4701930
      5.7996353              0.3585209
SP   3   1.00
     15.5396160             -0.1107775              0.0708743
      3.5999336             -0.1480263              0.3397528
      1.0137618              1.1307670              0.7271586
SP   1   1.00
      0.2700058              1.0000000              1.0000000
D    1   1.00
      2.5840000              1.0000000
D    1   1.00
      0.6460000              1.0000000
F    1   1.00
      1.4000000              1.0000000
****
F     0
S    6   1.00
   7001.7130900              0.0018196169
   1051.3660900              0.0139160796
    239.2856900              0.0684053245
     67.3974453              0.233185760
     21.5199573              0.471267439
      7.40310130             0.356618546
SP   3   1.00
     20.8479528             -0.108506975            0.0716287243
      4.80830834            -0.146451658            0.3459121030
      1.34406986             1.128688580            0.7224699570
SP   1   1.00
      0.358151393            1.0000000              1.0000000
D    1   1.00
      3.5000000              1.0000000
D    1   1.00
      0.8750000              1.0000000
F    1   1.00
      1.8500000              1.0000000
****
Al     0
S    6   1.00
  13983.1000000              0.00194267
   2098.7500000              0.0148599
    477.7050000              0.0728494
    134.3600000              0.2468300
     42.8709000              0.4872580
     14.5189000              0.3234960
SP   6   1.00
    239.6680000             -0.00292619             0.00460285
     57.4419000             -0.0374080              0.0331990
     18.2859000             -0.1144870              0.1362820
      6.5991400              0.1156350              0.3304760
      2.4904900              0.6125950              0.4491460
      0.9445400              0.3937990              0.2657040
SP   3   1.00
      1.2779000             -0.2276060             -0.0175130
      0.3975900              0.00144583             0.2445330
      0.1600950              1.0927900              0.8049340
SP   1   1.00
      0.0556577              1.0000000              1.0000000
D    1   1.00
      0.6500000              1.0000000
D    1   1.00
      0.1625000              1.0000000
F    1   1.00
      0.2500000              1.0000000
****
Si     0
S    6   1.00
  16115.9000000              0.00195948
   2425.5800000              0.01492880
    553.8670000              0.07284780
    156.3400000              0.24613000
     50.0683000              0.48591400
     17.0178000              0.32500200
SP   6   1.00
    292.7180000             -0.00278094             0.00443826
     69.8731000             -0.03571460             0.03266790
     22.3363000             -0.11498500             0.13472100
      8.1503900              0.09356340             0.32867800
      3.1345800              0.60301700             0.44964000
      1.2254300              0.41895900             0.26137200
SP   3   1.00
      1.7273800             -0.24463000            -0.01779510
      0.5729220              0.00431572             0.25353900
      0.2221920              1.09818000             0.80066900
SP   1   1.00
      0.0778369              1.00000000             1.00000000
D    1   1.00
      0.9000000              1.0000000
D    1   1.00
      0.2250000              1.0000000
F    1   1.00
      0.3200000              1.0000000
****
P     0
S    6   1.00
  19413.3000000              0.0018516
   2909.4200000              0.0142062
    661.3640000              0.0699995
    185.7590000              0.2400790
     59.1943000              0.4847620
     20.0310000              0.3352000
SP   6   1.00
    339.4780000             -0.00278217             0.00456462
     81.0101000             -0.0360499              0.03369360
     25.8780000             -0.1166310              0.13975500
      9.4522100              0.0968328              0.33936200
      3.6656600              0.6144180              0.45092100
      1.4674600              0.4037980              0.23858600
SP   3   1.00
      2.1562300             -0.2529230             -0.01776530
      0.7489970              0.0328517              0.27405800
      0.2831450              1.0812500              0.78542100
SP   1   1.00
      0.0998317              1.0000000              1.00000000
D    1   1.00
      1.1000000              1.0000000
D    1   1.00
      0.2750000              1.0000000
F    1   1.00
      0.4500000              1.0000000
****
S     0
S    6   1.00
  21917.1000000              0.0018690
   3301.4900000              0.0142300
    754.1460000              0.0696960
    212.7110000              0.2384870
     67.9896000              0.4833070
     23.0515000              0.3380740
SP   6   1.00
    423.7350000             -0.0023767              0.0040610
    100.7100000             -0.0316930              0.0306810
     32.1599000             -0.1133170              0.1304520
     11.8079000              0.0560900              0.3272050
      4.6311000              0.5922550              0.4528510
      1.8702500              0.4550060              0.2560420
SP   3   1.00
      2.6158400             -0.2503740             -0.0145110
      0.9221670              0.0669570              0.3102630
      0.3412870              1.0545100              0.7544830
SP   1   1.00
      0.1171670              1.0000000              1.0000000
D    1   1.00
      1.3000000              1.0000000
D    1   1.00
      0.3250000              1.0000000
F    1   1.00
      0.5500000              1.0000000
****
Cl     0
S    6   1.00
  25180.1000000              0.0018330
   3780.3500000              0.0140340
    860.4740000              0.0690970
    242.1450000              0.2374520
     77.3349000              0.4830340
     26.2470000              0.3398560
SP   6   1.00
    491.7650000             -0.0022974              0.0039894
    116.9840000             -0.0307140              0.0303180
     37.4153000             -0.1125280              0.1298800
     13.7834000              0.0450160              0.3279510
      5.4521500              0.5893530              0.4535270
      2.2258800              0.4652060              0.2521540
SP   3   1.00
      3.1864900             -0.2518300             -0.0142990
      1.1442700              0.0615890              0.3235720
      0.4203770              1.0601800              0.7435070
SP   1   1.00
      0.1426570              1.0000000              1.0000000
D    1   1.00
      1.5000000              1.0000000
D    1   1.00
      0.3750000              1.0000000
F    1   1.00
      0.7000000              1.0000000
****
}

set {
reference uhf
freeze_core true
e_convergence 10
d_convergence 10
dft_spherical_points 1202
dft_radial_points 99
}

e = energy('b3lyp')

print_out('Grab this energy {0}'.format(e))
--------------------------------------------------------------------------

    Molecular point group: c1

    Geometry (in Bohr), charge = 0, multiplicity = 2:

       Center              X                  Y                   Z               Mass
    ------------   -----------------  -----------------  -----------------  -----------------
         C           -0.323333481362     0.000001477669     0.005073216332    12.000000000000
         C            0.061795078338    -1.395610371231    -2.424269610068    12.000000000000
         C            0.061017714838     2.801738474669    -0.006997518368    12.000000000000
         C            0.060482967338    -1.406125273631     2.428486809232    12.000000000000
         H            2.087412564638    -1.639059523431    -2.847701482168     1.007825032230
         H           -0.765619071662    -0.376524880531    -4.018362109568     1.007825032230
         H           -0.764407924062    -3.287748599131    -2.352838662868     1.007825032230
         H            2.086794379438     3.288086539869    -0.008969859668     1.007825032230
         H           -0.764265679262     3.693428703169     1.664288316132     1.007825032230
         H           -0.767032498062     3.667001757969    -1.688610961968     1.007825032230
         H            2.086455907738    -1.649119301631     2.847185735332     1.007825032230
         H           -0.766744435162    -3.296207752731     2.345143137832     1.007825032230
         H           -0.765188092462    -0.399908231931     4.032564753632     1.007825032230

  Charge       = 0
  Multiplicity = 2
  Basis Set: ANONYMOUS0A77A2F2
    Blend: 6-31G_2DFP_
  Basis Set: (ANONYMOUS0A77A2F2 AUX)
    Blend: DEF2-UNIVERSAL-JKFIT

    Orbital Energies [Eh]
    ---------------------

    Alpha Occupied:

       1A    -10.180342     2A    -10.167131     3A    -10.167016
       4A    -10.166899     5A     -0.797768     6A     -0.686528
       7A     -0.685844     8A     -0.530777     9A     -0.441134
      10A     -0.435002    11A     -0.434333    12A     -0.382779
      13A     -0.382418    14A     -0.363606    15A     -0.338339
      16A     -0.337661    17A     -0.168961

    Alpha Virtual:

      18A      0.076072    19A      0.133948    20A      0.134364
      21A      0.142429    22A      0.142827    23A      0.154880
      24A      0.178515    25A      0.179041    26A      0.203544
      27A      0.214816    28A      0.275886    29A      0.276084
      30A      0.399118    31A      0.399324    32A      0.403365
      33A      0.423913    34A      0.424293    35A      0.456593
      36A      0.494924    37A      0.495844    38A      0.512179
      39A      0.513985    40A      0.578759    41A      0.578835
      42A      0.591368    43A      0.591912    44A      0.602575
      45A      0.624774    46A      0.631774    47A      0.635987
      48A      0.636505    49A      0.663161    50A      0.663661
      51A      0.683641    52A      0.684068    53A      0.734993
      54A      0.824362    55A      0.826435    56A      0.853913
      57A      0.914904    58A      0.915118    59A      0.944030
      60A      0.944480    61A      0.961011    62A      0.961862
      63A      1.003481    64A      1.126745    65A      1.129501
      66A      1.142219    67A      1.162676    68A      1.163860
      69A      1.223324    70A      1.274133    71A      1.274865
      72A      1.279374    73A      1.324261    74A      1.324424
      75A      1.355998    76A      1.365462    77A      1.366587
      78A      1.392479    79A      1.403580    80A      1.404564
      81A      1.417024    82A      1.417222    83A      1.427916
      84A      1.491429    85A      1.499071    86A      1.542214
      87A      1.543474    88A      1.572622    89A      1.576376
      90A      1.669814    91A      1.738712    92A      1.740080
      93A      1.768371    94A      1.831378    95A      1.831418
      96A      1.971745    97A      2.017323    98A      2.018439
      99A      2.020587   100A      2.050948   101A      2.054442
     102A      2.737944   103A      2.739029   104A      2.790921
     105A      2.811431   106A      2.889583   107A      2.890311
     108A      2.894952   109A      2.929341   110A      2.929651
     111A      2.958986   112A      2.963346   113A      2.965446
     114A      3.034007   115A      3.070136   116A      3.072385
     117A      3.084426   118A      3.168227   119A      3.169368
     120A      3.180579   121A      3.284546   122A      3.286050
     123A      3.326556   124A      3.327800   125A      3.375664
     126A      3.489739   127A      3.490395   128A      3.514089
     129A      3.525342   130A      3.567299   131A      3.568965
     132A      3.575720   133A      3.666095   134A      3.666665
     135A      3.679626   136A      3.693270   137A      3.695032
     138A      3.776330   139A      3.777172   140A      3.789265
     141A      3.911083   142A      3.913394   143A      4.034472
     144A      4.111270   145A      4.111486   146A      4.147319
     147A      4.148861   148A      4.173259   149A      4.201361
     150A      4.202688   151A      4.204645   152A      4.211033
     153A      4.315145   154A      4.316753   155A      4.358984
     156A      4.424050   157A      4.424822   158A      4.443549
     159A      4.516441   160A      4.517281   161A      4.577554
     162A      4.579036   163A      4.617491   164A      4.709441
     165A      4.772226   166A      4.776978   167A      4.836903
     168A      4.962859   169A      5.002320   170A      5.003587
     171A      5.228006   172A      5.246506   173A      5.247126
     174A      5.355477   175A      5.355519   176A      5.479339

    Beta Occupied:

       1A    -10.167886     2A    -10.167775     3A    -10.167664
       4A    -10.166520     5A     -0.781094     6A     -0.684327
       7A     -0.683650     8A     -0.511748     9A     -0.431380
      10A     -0.430713    11A     -0.421815    12A     -0.376869
      13A     -0.376498    14A     -0.362590    15A     -0.333462
      16A     -0.332784

    Beta Virtual:

      17A     -0.025743    18A      0.077081    19A      0.134819
      20A      0.135273    21A      0.144303    22A      0.144693
      23A      0.163340    24A      0.182194    25A      0.182704
      26A      0.215045    27A      0.218927    28A      0.282256
      29A      0.282410    30A      0.400321    31A      0.400483
      32A      0.419778    33A      0.426711    34A      0.427124
      35A      0.468503    36A      0.497184    37A      0.498106
      38A      0.513915    39A      0.556329    40A      0.584281
      41A      0.584418    42A      0.597571    43A      0.598061
      44A      0.610002    45A      0.628148    46A      0.631931
      47A      0.639238    48A      0.639828    49A      0.666697
      50A      0.667252    51A      0.686246    52A      0.686734
      53A      0.757515    54A      0.829498    55A      0.831635
      56A      0.855267    57A      0.922823    58A      0.923132
      59A      0.945899    60A      0.953376    61A      0.966429
      62A      0.967074    63A      1.008715    64A      1.130710
      65A      1.133600    66A      1.155593    67A      1.167796
      68A      1.168883    69A      1.232293    70A      1.279726
      71A      1.280468    72A      1.285127    73A      1.329218
      74A      1.329447    75A      1.365415    76A      1.370567
      77A      1.371954    78A      1.393542    79A      1.407110
      80A      1.407979    81A      1.422061    82A      1.422272
      83A      1.428190    84A      1.492481    85A      1.509514
      86A      1.546518    87A      1.547985    88A      1.580640
      89A      1.584100    90A      1.674660    91A      1.744488
      92A      1.745832    93A      1.779146    94A      1.835214
      95A      1.835293    96A      1.972606    97A      2.023876
      98A      2.026974    99A      2.039679   100A      2.057778
     101A      2.061038   102A      2.746251   103A      2.747395
     104A      2.811844   105A      2.816056   106A      2.902370
     107A      2.902909   108A      2.924648   109A      2.931900
     110A      2.932056   111A      2.960055   112A      2.967936
     113A      2.969938   114A      3.041941   115A      3.079892
     116A      3.082302   117A      3.086397   118A      3.184122
     119A      3.184966   120A      3.188258   121A      3.289387
     122A      3.290808   123A      3.330337   124A      3.331632
     125A      3.383481   126A      3.492448   127A      3.493128
     128A      3.512475   129A      3.528387   130A      3.574408
     131A      3.581229   132A      3.582882   133A      3.671055
     134A      3.671211   135A      3.692942   136A      3.725251
     137A      3.726290   138A      3.780960   139A      3.781673
     140A      3.817726   141A      3.920883   142A      3.923228
     143A      4.045361   144A      4.117980   145A      4.118404
     146A      4.154611   147A      4.155994   148A      4.187315
     149A      4.207299   150A      4.210366   151A      4.210820
     152A      4.215556   153A      4.322541   154A      4.324233
     155A      4.362349   156A      4.432329   157A      4.432958
     158A      4.446453   159A      4.524317   160A      4.524980
     161A      4.588072   162A      4.589718   163A      4.624685
     164A      4.719789   165A      4.779185   166A      4.783925
     167A      4.839820   168A      4.967654   169A      5.006369
     170A      5.007616   171A      5.233717   172A      5.248290
     173A      5.248916   174A      5.361955   175A      5.362002
     176A      5.481660

    Final Occupation by Irrep:
              A
    DOCC [    16 ]
    SOCC [     1 ]

  @DF-UKS Final Energy:  -157.81306509524606

   => Energetics <=

    Nuclear Repulsion Energy =            125.3948650078770584
    One-Electron Energy =                -458.7493802943721448
    Two-Electron Energy =                 195.8485944257064943
    DFT Exchange-Correlation Energy =     -20.3071442344574677
    Empirical Dispersion Energy =           0.0000000000000000
    VV10 Nonlocal Energy =                  0.0000000000000000
    Total Energy =                       -157.8130650952460599

  UHF NO Occupations:
  HONO-2 :   15  A 1.9996009
  HONO-1 :   16  A 1.9989804
  HONO-0 :   17  A 1.0000000
  LUNO+0 :   18  A 0.0010196
  LUNO+1 :   19  A 0.0003991
  LUNO+2 :   20  A 0.0001982
  LUNO+3 :   21  A 0.0001969

Computation Completed

Properties will be evaluated at   0.000000,   0.000000,   0.000000 [a0]

Properties computed using the SCF density matrix

  Nuclear Dipole Moment: [e a0]
     X:     0.8272      Y:    -0.0000      Z:    -0.0135

  Electronic Dipole Moment: [e a0]
     X:    -0.7493      Y:     0.0000      Z:     0.0143

  Dipole Moment: [e a0]
     X:     0.0779      Y:    -0.0000      Z:     0.0008     Total:     0.0779

  Dipole Moment: [D]
     X:     0.1980      Y:    -0.0000      Z:     0.0020     Total:     0.1981

*** tstop() called on n089 at Fri Nov  5 15:37:43 2021
Module time:
	user time   =     514.86 seconds =       8.58 minutes
	system time =       4.73 seconds =       0.08 minutes
	total time  =        131 seconds =       2.18 minutes
Total time:
	user time   =     514.86 seconds =       8.58 minutes
	system time =       4.73 seconds =       0.08 minutes
	total time  =        131 seconds =       2.18 minutes
Grab this energy -157.81306509524606
    Psi4 stopped on: Friday, 05 November 2021 03:37PM
    Psi4 wall time for execution: 0:02:10.63

*** Psi4 exiting successfully. Buy a developer a beer!
