                               Psi4 1.4a2.dev629

  ==> Input File <==

--------------------------------------------------------------------------
import os
memory 14 GB

molecule {
 C   -0.3233320245    0.0002620637   -0.0049996196
 C    0.0616460190   -1.4075666622   -2.4304163700
 C    0.0589703249    2.8017532238    0.0062245905
 C    0.0626886253   -1.3953181110    2.4216631261
 H    2.0861651056   -1.6527090098   -2.8516201758
 H   -0.7651405486   -0.3974250137   -4.0324049465
 H   -0.7683037526   -3.2975525732   -2.3493485386
 H    2.0869976249    3.2880725818    0.0111334410
 H   -0.7677597329    3.6726503176    1.6861356696
 H   -0.7622596044    3.6878352336   -1.6672426293
 H    2.0875090402   -1.6351278869    2.8434553098
 H   -0.7637169861   -3.2860143575    2.3489239106
 H   -0.7660719675   -0.3788841197    4.0184962322
units bohr
0 2
}

basis {

assign 6-31g_2dfp_

[ 6-31g_2dfp_ ]

spherical

!----------------------------------------------------------------------
! Basis Set Exchange
! Version v0.8.13
! https://www.basissetexchange.org
!----------------------------------------------------------------------
!   Basis set: 6-31G(2df,p)
! Description: 6-31G(2df,p)
!        Role: orbital
!     Version: 0  (Data from the original Basis Set Exchange)
!----------------------------------------------------------------------

****
H     0
S    3   1.00
     18.7311370              0.03349460
      2.8253937              0.23472695
      0.6401217              0.81375733
S    1   1.00
      0.1612778              1.00000000
P    1   1.00
      1.5000000              1.0000000
P    1   1.00
      0.3750000              1.0000000
****
B     0
S    6   1.00
   2068.8823000              0.0018663
    310.6495700              0.0142515
     70.6830330              0.0695516
     19.8610800              0.2325729
      6.2993048              0.4670787
      2.1270270              0.3634314
SP   3   1.00
      4.7279710             -0.1303938              0.0745976
      1.1903377             -0.1307889              0.3078467
      0.3594117              1.1309444              0.7434568
SP   1   1.00
      0.1267512              1.0000000              1.0000000
D    1   1.00
      0.8020000              1.0000000
D    1   1.00
      0.2005000              1.0000000
F    1   1.00
      0.5000000              1.0000000
****
C     0
S    6   1.00
   3047.5249000              0.0018347
    457.3695100              0.0140373
    103.9486900              0.0688426
     29.2101550              0.2321844
      9.2866630              0.4679413
      3.1639270              0.3623120
SP   3   1.00
      7.8682724             -0.1193324              0.0689991
      1.8812885             -0.1608542              0.3164240
      0.5442493              1.1434564              0.7443083
SP   1   1.00
      0.1687144              1.0000000              1.0000000
D    1   1.00
      1.2520000              1.0000000
D    1   1.00
      0.3130000              1.0000000
F    1   1.00
      0.8000000              1.0000000
****
N     0
S    6   1.00
   4173.5110000              0.0018348
    627.4579000              0.0139950
    142.9021000              0.0685870
     40.2343300              0.2322410
     12.8202100              0.4690700
      4.3904370              0.3604550
SP   3   1.00
     11.6263580             -0.1149610              0.0675800
      2.7162800             -0.1691180              0.3239070
      0.7722180              1.1458520              0.7408950
SP   1   1.00
      0.2120313              1.0000000              1.0000000
D    1   1.00
      1.8260000              1.0000000
D    1   1.00
      0.4565000              1.0000000
F    1   1.00
      1.0000000              1.0000000
****
O     0
S    6   1.00
   5484.6717000              0.0018311
    825.2349500              0.0139501
    188.0469600              0.0684451
     52.9645000              0.2327143
     16.8975700              0.4701930
      5.7996353              0.3585209
SP   3   1.00
     15.5396160             -0.1107775              0.0708743
      3.5999336             -0.1480263              0.3397528
      1.0137618              1.1307670              0.7271586
SP   1   1.00
      0.2700058              1.0000000              1.0000000
D    1   1.00
      2.5840000              1.0000000
D    1   1.00
      0.6460000              1.0000000
F    1   1.00
      1.4000000              1.0000000
****
F     0
S    6   1.00
   7001.7130900              0.0018196169
   1051.3660900              0.0139160796
    239.2856900              0.0684053245
     67.3974453              0.233185760
     21.5199573              0.471267439
      7.40310130             0.356618546
SP   3   1.00
     20.8479528             -0.108506975            0.0716287243
      4.80830834            -0.146451658            0.3459121030
      1.34406986             1.128688580            0.7224699570
SP   1   1.00
      0.358151393            1.0000000              1.0000000
D    1   1.00
      3.5000000              1.0000000
D    1   1.00
      0.8750000              1.0000000
F    1   1.00
      1.8500000              1.0000000
****
Al     0
S    6   1.00
  13983.1000000              0.00194267
   2098.7500000              0.0148599
    477.7050000              0.0728494
    134.3600000              0.2468300
     42.8709000              0.4872580
     14.5189000              0.3234960
SP   6   1.00
    239.6680000             -0.00292619             0.00460285
     57.4419000             -0.0374080              0.0331990
     18.2859000             -0.1144870              0.1362820
      6.5991400              0.1156350              0.3304760
      2.4904900              0.6125950              0.4491460
      0.9445400              0.3937990              0.2657040
SP   3   1.00
      1.2779000             -0.2276060             -0.0175130
      0.3975900              0.00144583             0.2445330
      0.1600950              1.0927900              0.8049340
SP   1   1.00
      0.0556577              1.0000000              1.0000000
D    1   1.00
      0.6500000              1.0000000
D    1   1.00
      0.1625000              1.0000000
F    1   1.00
      0.2500000              1.0000000
****
Si     0
S    6   1.00
  16115.9000000              0.00195948
   2425.5800000              0.01492880
    553.8670000              0.07284780
    156.3400000              0.24613000
     50.0683000              0.48591400
     17.0178000              0.32500200
SP   6   1.00
    292.7180000             -0.00278094             0.00443826
     69.8731000             -0.03571460             0.03266790
     22.3363000             -0.11498500             0.13472100
      8.1503900              0.09356340             0.32867800
      3.1345800              0.60301700             0.44964000
      1.2254300              0.41895900             0.26137200
SP   3   1.00
      1.7273800             -0.24463000            -0.01779510
      0.5729220              0.00431572             0.25353900
      0.2221920              1.09818000             0.80066900
SP   1   1.00
      0.0778369              1.00000000             1.00000000
D    1   1.00
      0.9000000              1.0000000
D    1   1.00
      0.2250000              1.0000000
F    1   1.00
      0.3200000              1.0000000
****
P     0
S    6   1.00
  19413.3000000              0.0018516
   2909.4200000              0.0142062
    661.3640000              0.0699995
    185.7590000              0.2400790
     59.1943000              0.4847620
     20.0310000              0.3352000
SP   6   1.00
    339.4780000             -0.00278217             0.00456462
     81.0101000             -0.0360499              0.03369360
     25.8780000             -0.1166310              0.13975500
      9.4522100              0.0968328              0.33936200
      3.6656600              0.6144180              0.45092100
      1.4674600              0.4037980              0.23858600
SP   3   1.00
      2.1562300             -0.2529230             -0.01776530
      0.7489970              0.0328517              0.27405800
      0.2831450              1.0812500              0.78542100
SP   1   1.00
      0.0998317              1.0000000              1.00000000
D    1   1.00
      1.1000000              1.0000000
D    1   1.00
      0.2750000              1.0000000
F    1   1.00
      0.4500000              1.0000000
****
S     0
S    6   1.00
  21917.1000000              0.0018690
   3301.4900000              0.0142300
    754.1460000              0.0696960
    212.7110000              0.2384870
     67.9896000              0.4833070
     23.0515000              0.3380740
SP   6   1.00
    423.7350000             -0.0023767              0.0040610
    100.7100000             -0.0316930              0.0306810
     32.1599000             -0.1133170              0.1304520
     11.8079000              0.0560900              0.3272050
      4.6311000              0.5922550              0.4528510
      1.8702500              0.4550060              0.2560420
SP   3   1.00
      2.6158400             -0.2503740             -0.0145110
      0.9221670              0.0669570              0.3102630
      0.3412870              1.0545100              0.7544830
SP   1   1.00
      0.1171670              1.0000000              1.0000000
D    1   1.00
      1.3000000              1.0000000
D    1   1.00
      0.3250000              1.0000000
F    1   1.00
      0.5500000              1.0000000
****
Cl     0
S    6   1.00
  25180.1000000              0.0018330
   3780.3500000              0.0140340
    860.4740000              0.0690970
    242.1450000              0.2374520
     77.3349000              0.4830340
     26.2470000              0.3398560
SP   6   1.00
    491.7650000             -0.0022974              0.0039894
    116.9840000             -0.0307140              0.0303180
     37.4153000             -0.1125280              0.1298800
     13.7834000              0.0450160              0.3279510
      5.4521500              0.5893530              0.4535270
      2.2258800              0.4652060              0.2521540
SP   3   1.00
      3.1864900             -0.2518300             -0.0142990
      1.1442700              0.0615890              0.3235720
      0.4203770              1.0601800              0.7435070
SP   1   1.00
      0.1426570              1.0000000              1.0000000
D    1   1.00
      1.5000000              1.0000000
D    1   1.00
      0.3750000              1.0000000
F    1   1.00
      0.7000000              1.0000000
****
}

set {
reference uhf
freeze_core true
e_convergence 10
d_convergence 10
dft_spherical_points 1202
dft_radial_points 99
}

e = energy('b3lyp')

print_out('Grab this energy {0}'.format(e))
--------------------------------------------------------------------------

    Molecular point group: c1

    Geometry (in Bohr), charge = 0, multiplicity = 2:

       Center              X                  Y                   Z               Mass
    ------------   -----------------  -----------------  -----------------  -----------------
         C           -0.323334514823     0.000429962268    -0.003549619997    12.000000000000
         C            0.061643528677    -1.407398763632    -2.428966370397    12.000000000000
         C            0.058967834577     2.801921122368     0.007674590103    12.000000000000
         C            0.062686134977    -1.395150212432     2.423113125703    12.000000000000
         H            2.086162615277    -1.652541111232    -2.850170176197     1.007825032230
         H           -0.765143038923    -0.397257115132    -4.030954946897     1.007825032230
         H           -0.768306242923    -3.297384674632    -2.347898538997     1.007825032230
         H            2.086995134577     3.288240480368     0.012583440603     1.007825032230
         H           -0.767762223223     3.672818216168     1.687585669203     1.007825032230
         H           -0.762262094723     3.688003132168    -1.665792629697     1.007825032230
         H            2.087506549877    -1.634959988332     2.844905309403     1.007825032230
         H           -0.763719476423    -3.285846458932     2.350373910203     1.007825032230
         H           -0.766074457823    -0.378716221132     4.019946231803     1.007825032230

  Charge       = 0
  Multiplicity = 2
  Basis Set: ANONYMOUS8FAE5EEF
    Blend: 6-31G_2DFP_
  Basis Set: (ANONYMOUS8FAE5EEF AUX)
    Blend: DEF2-UNIVERSAL-JKFIT

    Orbital Energies [Eh]
    ---------------------

    Alpha Occupied:

       1A    -10.180341     2A    -10.167271     3A    -10.167048
       4A    -10.166727     5A     -0.797769     6A     -0.686408
       7A     -0.685963     8A     -0.530776     9A     -0.441128
      10A     -0.434956    11A     -0.434385    12A     -0.382808
      13A     -0.382389    14A     -0.363611    15A     -0.338281
      16A     -0.337713    17A     -0.168961

    Alpha Virtual:

      18A      0.076072    19A      0.133914    20A      0.134397
      21A      0.142476    22A      0.142779    23A      0.154880
      24A      0.178529    25A      0.179029    26A      0.203544
      27A      0.214807    28A      0.275807    29A      0.276164
      30A      0.398974    31A      0.399416    32A      0.403416
      33A      0.423960    34A      0.424244    35A      0.456595
      36A      0.494983    37A      0.495787    38A      0.512172
      39A      0.513986    40A      0.578539    41A      0.579070
      42A      0.591519    43A      0.591755    44A      0.602575
      45A      0.624767    46A      0.631767    47A      0.636008
      48A      0.636493    49A      0.663139    50A      0.663690
      51A      0.683570    52A      0.684139    53A      0.734994
      54A      0.824578    55A      0.826224    56A      0.853915
      57A      0.914785    58A      0.915270    59A      0.944052
      60A      0.944517    61A      0.961126    62A      0.961663
      63A      1.003469    64A      1.126951    65A      1.129289
      66A      1.142213    67A      1.162773    68A      1.163761
      69A      1.223331    70A      1.273964    71A      1.275025
      72A      1.279360    73A      1.324082    74A      1.324625
      75A      1.355985    76A      1.365250    77A      1.366804
      78A      1.392427    79A      1.403293    80A      1.404889
      81A      1.416544    82A      1.417700    83A      1.427929
      84A      1.491435    85A      1.499065    86A      1.542475
      87A      1.543189    88A      1.572622    89A      1.576382
      90A      1.669822    91A      1.738278    92A      1.740516
      93A      1.768358    94A      1.830855    95A      1.831946
      96A      1.971726    97A      2.017405    98A      2.018365
      99A      2.020590   100A      2.050110   101A      2.055266
     102A      2.738219   103A      2.738749   104A      2.790922
     105A      2.811440   106A      2.889660   107A      2.890237
     108A      2.894947   109A      2.929317   110A      2.929672
     111A      2.958988   112A      2.963493   113A      2.965288
     114A      3.034011   115A      3.070282   116A      3.072250
     117A      3.084391   118A      3.168027   119A      3.169577
     120A      3.180561   121A      3.284602   122A      3.286013
     123A      3.326196   124A      3.328138   125A      3.375665
     126A      3.489545   127A      3.490705   128A      3.514038
     129A      3.525301   130A      3.567173   131A      3.569476
     132A      3.575359   133A      3.666081   134A      3.666707
     135A      3.679654   136A      3.693655   137A      3.694556
     138A      3.775927   139A      3.777589   140A      3.789290
     141A      3.910804   142A      3.913650   143A      4.034475
     144A      4.110015   145A      4.112751   146A      4.146448
     147A      4.149763   148A      4.173230   149A      4.201268
     150A      4.202769   151A      4.204700   152A      4.210967
     153A      4.315523   154A      4.316363   155A      4.359010
     156A      4.424216   157A      4.424572   158A      4.443531
     159A      4.515533   160A      4.518185   161A      4.577181
     162A      4.579363   163A      4.617536   164A      4.709435
     165A      4.773212   166A      4.775986   167A      4.836950
     168A      4.962860   169A      5.001860   170A      5.004046
     171A      5.228034   172A      5.246666   173A      5.246978
     174A      5.354758   175A      5.356250   176A      5.479331

    Beta Occupied:

       1A    -10.168026     2A    -10.167809     3A    -10.167490
       4A    -10.166518     5A     -0.781095     6A     -0.684215
       7A     -0.683762     8A     -0.511748     9A     -0.431336
      10A     -0.430750    11A     -0.421822    12A     -0.376906
      13A     -0.376461    14A     -0.362595    15A     -0.333408
      16A     -0.332832

    Beta Virtual:

      17A     -0.025743    18A      0.077081    19A      0.134794
      20A      0.135296    21A      0.144354    22A      0.144642
      23A      0.163339    24A      0.182190    25A      0.182710
      26A      0.215037    27A      0.218927    28A      0.282144
      29A      0.282523    30A      0.400197    31A      0.400591
      32A      0.419799    33A      0.426757    34A      0.427070
      35A      0.468505    36A      0.497241    37A      0.498053
      38A      0.513908    39A      0.556328    40A      0.584119
      41A      0.584592    42A      0.597689    43A      0.597941
      44A      0.609995    45A      0.628147    46A      0.631926
      47A      0.639276    48A      0.639794    49A      0.666690
      50A      0.667265    51A      0.686159    52A      0.686822
      53A      0.757516    54A      0.829736    55A      0.831402
      56A      0.855268    57A      0.922743    58A      0.923253
      59A      0.945911    60A      0.953432    61A      0.966372
      62A      0.967026    63A      1.008707    64A      1.130983
      65A      1.133316    66A      1.155584    67A      1.167824
      68A      1.168861    69A      1.232301    70A      1.279555
      71A      1.280631    72A      1.285112    73A      1.329056
      74A      1.329630    75A      1.365400    76A      1.370394
      77A      1.372139    78A      1.393491    79A      1.406790
      80A      1.408330    81A      1.421596    82A      1.422740
      83A      1.428203    84A      1.492486    85A      1.509508
      86A      1.546778    87A      1.547699    88A      1.580645
      89A      1.584105    90A      1.674669    91A      1.744046
      92A      1.746275    93A      1.779134    94A      1.834695
      95A      1.835818    96A      1.972588    97A      2.023825
      98A      2.027056    99A      2.039649   100A      2.056919
     101A      2.061892   102A      2.746510   103A      2.747129
     104A      2.811852   105A      2.816057   106A      2.902368
     107A      2.902908   108A      2.924650   109A      2.931890
     110A      2.932065   111A      2.960056   112A      2.968065
     113A      2.969799   114A      3.041947   115A      3.080065
     116A      3.082124   117A      3.086380   118A      3.183893
     119A      3.185182   120A      3.188258   121A      3.289471
     122A      3.290746   123A      3.329992   124A      3.331953
     125A      3.383481   126A      3.492279   127A      3.493423
     128A      3.512414   129A      3.528355   130A      3.574753
     131A      3.580803   132A      3.582987   133A      3.670865
     134A      3.671412   135A      3.692952   136A      3.725319
     137A      3.726152   138A      3.780479   139A      3.782166
     140A      3.817758   141A      3.920620   142A      3.923468
     143A      4.045362   144A      4.116840   145A      4.119556
     146A      4.153711   147A      4.156920   148A      4.187291
     149A      4.207238   150A      4.210612   151A      4.210702
     152A      4.215471   153A      4.322936   154A      4.323828
     155A      4.362376   156A      4.432435   157A      4.432736
     158A      4.446464   159A      4.523382   160A      4.525908
     161A      4.587707   162A      4.590041   163A      4.624728
     164A      4.719781   165A      4.780138   166A      4.782964
     167A      4.839870   168A      4.967653   169A      5.005907
     170A      5.008078   171A      5.233747   172A      5.248448
     173A      5.248768   174A      5.361222   175A      5.362747
     176A      5.481652

    Final Occupation by Irrep:
              A
    DOCC [    16 ]
    SOCC [     1 ]

  @DF-UKS Final Energy:  -157.81306287934601

   => Energetics <=

    Nuclear Repulsion Energy =            125.3948509839467107
    One-Electron Energy =                -458.7493507754495567
    Two-Electron Energy =                 195.8485824426718409
    DFT Exchange-Correlation Energy =     -20.3071455305149762
    Empirical Dispersion Energy =           0.0000000000000000
    VV10 Nonlocal Energy =                  0.0000000000000000
    Total Energy =                       -157.8130628793460062

  UHF NO Occupations:
  HONO-2 :   15  A 1.9996009
  HONO-1 :   16  A 1.9989804
  HONO-0 :   17  A 1.0000000
  LUNO+0 :   18  A 0.0010196
  LUNO+1 :   19  A 0.0003991
  LUNO+2 :   20  A 0.0001979
  LUNO+3 :   21  A 0.0001972

Computation Completed

Properties will be evaluated at   0.000000,   0.000000,   0.000000 [a0]

Properties computed using the SCF density matrix

  Nuclear Dipole Moment: [e a0]
     X:     0.8272      Y:     0.0012      Z:     0.0102

  Electronic Dipole Moment: [e a0]
     X:    -0.7493      Y:    -0.0011      Z:    -0.0110

  Dipole Moment: [e a0]
     X:     0.0779      Y:     0.0001      Z:    -0.0007     Total:     0.0779

  Dipole Moment: [D]
     X:     0.1980      Y:     0.0003      Z:    -0.0019     Total:     0.1980

*** tstop() called on n032 at Fri Nov  5 12:40:45 2021
Module time:
	user time   =     632.05 seconds =      10.53 minutes
	system time =      12.11 seconds =       0.20 minutes
	total time  =        162 seconds =       2.70 minutes
Total time:
	user time   =     632.05 seconds =      10.53 minutes
	system time =      12.11 seconds =       0.20 minutes
	total time  =        162 seconds =       2.70 minutes
Grab this energy -157.813062879346
    Psi4 stopped on: Friday, 05 November 2021 12:40PM
    Psi4 wall time for execution: 0:02:41.96

*** Psi4 exiting successfully. Buy a developer a beer!
