                               Psi4 1.4a2.dev629

  ==> Input File <==

--------------------------------------------------------------------------
import os
memory 14 GB

molecule {
 C   -0.3236409348   -0.0000020573   -0.0000000179
 C    0.0612784674   -1.4022131727   -2.4318965178
 C    0.0611585420    2.8072042322    0.0016012939
 C    0.0612786717   -1.4049867657    2.4302953948
 H    2.0872285875   -1.6479307853   -2.8528395971
 H   -0.7657672246   -0.3911829401   -4.0307775598
 H   -0.7655360186   -3.2955628787   -2.3537835390
 H    2.0870894078    3.2946949338   -0.0006201509
 H   -0.7660085293    3.6863212147    1.6765833382
 H   -0.7656140322    3.6861889087   -1.6771880539
 H    2.0872286214   -1.6468566265    2.8534596970
 H   -0.7659306007   -3.2951052793    2.3542004591
 H   -0.7653728343   -0.3905930973    4.0309652533
units bohr
0 2
}

basis {

assign 6-31g_2dfp_

[ 6-31g_2dfp_ ]

spherical

!----------------------------------------------------------------------
! Basis Set Exchange
! Version v0.8.13
! https://www.basissetexchange.org
!----------------------------------------------------------------------
!   Basis set: 6-31G(2df,p)
! Description: 6-31G(2df,p)
!        Role: orbital
!     Version: 0  (Data from the original Basis Set Exchange)
!----------------------------------------------------------------------

****
H     0
S    3   1.00
     18.7311370              0.03349460
      2.8253937              0.23472695
      0.6401217              0.81375733
S    1   1.00
      0.1612778              1.00000000
P    1   1.00
      1.5000000              1.0000000
P    1   1.00
      0.3750000              1.0000000
****
B     0
S    6   1.00
   2068.8823000              0.0018663
    310.6495700              0.0142515
     70.6830330              0.0695516
     19.8610800              0.2325729
      6.2993048              0.4670787
      2.1270270              0.3634314
SP   3   1.00
      4.7279710             -0.1303938              0.0745976
      1.1903377             -0.1307889              0.3078467
      0.3594117              1.1309444              0.7434568
SP   1   1.00
      0.1267512              1.0000000              1.0000000
D    1   1.00
      0.8020000              1.0000000
D    1   1.00
      0.2005000              1.0000000
F    1   1.00
      0.5000000              1.0000000
****
C     0
S    6   1.00
   3047.5249000              0.0018347
    457.3695100              0.0140373
    103.9486900              0.0688426
     29.2101550              0.2321844
      9.2866630              0.4679413
      3.1639270              0.3623120
SP   3   1.00
      7.8682724             -0.1193324              0.0689991
      1.8812885             -0.1608542              0.3164240
      0.5442493              1.1434564              0.7443083
SP   1   1.00
      0.1687144              1.0000000              1.0000000
D    1   1.00
      1.2520000              1.0000000
D    1   1.00
      0.3130000              1.0000000
F    1   1.00
      0.8000000              1.0000000
****
N     0
S    6   1.00
   4173.5110000              0.0018348
    627.4579000              0.0139950
    142.9021000              0.0685870
     40.2343300              0.2322410
     12.8202100              0.4690700
      4.3904370              0.3604550
SP   3   1.00
     11.6263580             -0.1149610              0.0675800
      2.7162800             -0.1691180              0.3239070
      0.7722180              1.1458520              0.7408950
SP   1   1.00
      0.2120313              1.0000000              1.0000000
D    1   1.00
      1.8260000              1.0000000
D    1   1.00
      0.4565000              1.0000000
F    1   1.00
      1.0000000              1.0000000
****
O     0
S    6   1.00
   5484.6717000              0.0018311
    825.2349500              0.0139501
    188.0469600              0.0684451
     52.9645000              0.2327143
     16.8975700              0.4701930
      5.7996353              0.3585209
SP   3   1.00
     15.5396160             -0.1107775              0.0708743
      3.5999336             -0.1480263              0.3397528
      1.0137618              1.1307670              0.7271586
SP   1   1.00
      0.2700058              1.0000000              1.0000000
D    1   1.00
      2.5840000              1.0000000
D    1   1.00
      0.6460000              1.0000000
F    1   1.00
      1.4000000              1.0000000
****
F     0
S    6   1.00
   7001.7130900              0.0018196169
   1051.3660900              0.0139160796
    239.2856900              0.0684053245
     67.3974453              0.233185760
     21.5199573              0.471267439
      7.40310130             0.356618546
SP   3   1.00
     20.8479528             -0.108506975            0.0716287243
      4.80830834            -0.146451658            0.3459121030
      1.34406986             1.128688580            0.7224699570
SP   1   1.00
      0.358151393            1.0000000              1.0000000
D    1   1.00
      3.5000000              1.0000000
D    1   1.00
      0.8750000              1.0000000
F    1   1.00
      1.8500000              1.0000000
****
Al     0
S    6   1.00
  13983.1000000              0.00194267
   2098.7500000              0.0148599
    477.7050000              0.0728494
    134.3600000              0.2468300
     42.8709000              0.4872580
     14.5189000              0.3234960
SP   6   1.00
    239.6680000             -0.00292619             0.00460285
     57.4419000             -0.0374080              0.0331990
     18.2859000             -0.1144870              0.1362820
      6.5991400              0.1156350              0.3304760
      2.4904900              0.6125950              0.4491460
      0.9445400              0.3937990              0.2657040
SP   3   1.00
      1.2779000             -0.2276060             -0.0175130
      0.3975900              0.00144583             0.2445330
      0.1600950              1.0927900              0.8049340
SP   1   1.00
      0.0556577              1.0000000              1.0000000
D    1   1.00
      0.6500000              1.0000000
D    1   1.00
      0.1625000              1.0000000
F    1   1.00
      0.2500000              1.0000000
****
Si     0
S    6   1.00
  16115.9000000              0.00195948
   2425.5800000              0.01492880
    553.8670000              0.07284780
    156.3400000              0.24613000
     50.0683000              0.48591400
     17.0178000              0.32500200
SP   6   1.00
    292.7180000             -0.00278094             0.00443826
     69.8731000             -0.03571460             0.03266790
     22.3363000             -0.11498500             0.13472100
      8.1503900              0.09356340             0.32867800
      3.1345800              0.60301700             0.44964000
      1.2254300              0.41895900             0.26137200
SP   3   1.00
      1.7273800             -0.24463000            -0.01779510
      0.5729220              0.00431572             0.25353900
      0.2221920              1.09818000             0.80066900
SP   1   1.00
      0.0778369              1.00000000             1.00000000
D    1   1.00
      0.9000000              1.0000000
D    1   1.00
      0.2250000              1.0000000
F    1   1.00
      0.3200000              1.0000000
****
P     0
S    6   1.00
  19413.3000000              0.0018516
   2909.4200000              0.0142062
    661.3640000              0.0699995
    185.7590000              0.2400790
     59.1943000              0.4847620
     20.0310000              0.3352000
SP   6   1.00
    339.4780000             -0.00278217             0.00456462
     81.0101000             -0.0360499              0.03369360
     25.8780000             -0.1166310              0.13975500
      9.4522100              0.0968328              0.33936200
      3.6656600              0.6144180              0.45092100
      1.4674600              0.4037980              0.23858600
SP   3   1.00
      2.1562300             -0.2529230             -0.01776530
      0.7489970              0.0328517              0.27405800
      0.2831450              1.0812500              0.78542100
SP   1   1.00
      0.0998317              1.0000000              1.00000000
D    1   1.00
      1.1000000              1.0000000
D    1   1.00
      0.2750000              1.0000000
F    1   1.00
      0.4500000              1.0000000
****
S     0
S    6   1.00
  21917.1000000              0.0018690
   3301.4900000              0.0142300
    754.1460000              0.0696960
    212.7110000              0.2384870
     67.9896000              0.4833070
     23.0515000              0.3380740
SP   6   1.00
    423.7350000             -0.0023767              0.0040610
    100.7100000             -0.0316930              0.0306810
     32.1599000             -0.1133170              0.1304520
     11.8079000              0.0560900              0.3272050
      4.6311000              0.5922550              0.4528510
      1.8702500              0.4550060              0.2560420
SP   3   1.00
      2.6158400             -0.2503740             -0.0145110
      0.9221670              0.0669570              0.3102630
      0.3412870              1.0545100              0.7544830
SP   1   1.00
      0.1171670              1.0000000              1.0000000
D    1   1.00
      1.3000000              1.0000000
D    1   1.00
      0.3250000              1.0000000
F    1   1.00
      0.5500000              1.0000000
****
Cl     0
S    6   1.00
  25180.1000000              0.0018330
   3780.3500000              0.0140340
    860.4740000              0.0690970
    242.1450000              0.2374520
     77.3349000              0.4830340
     26.2470000              0.3398560
SP   6   1.00
    491.7650000             -0.0022974              0.0039894
    116.9840000             -0.0307140              0.0303180
     37.4153000             -0.1125280              0.1298800
     13.7834000              0.0450160              0.3279510
      5.4521500              0.5893530              0.4535270
      2.2258800              0.4652060              0.2521540
SP   3   1.00
      3.1864900             -0.2518300             -0.0142990
      1.1442700              0.0615890              0.3235720
      0.4203770              1.0601800              0.7435070
SP   1   1.00
      0.1426570              1.0000000              1.0000000
D    1   1.00
      1.5000000              1.0000000
D    1   1.00
      0.3750000              1.0000000
F    1   1.00
      0.7000000              1.0000000
****
}

set {
reference uhf
freeze_core true
e_convergence 10
d_convergence 10
dft_spherical_points 1202
dft_radial_points 99
}

e = energy('b3lyp')

print_out('Grab this energy {0}'.format(e))
--------------------------------------------------------------------------

    Molecular point group: c1

    Geometry (in Bohr), charge = 0, multiplicity = 2:

       Center              X                  Y                   Z               Mass
    ------------   -----------------  -----------------  -----------------  -----------------
         C           -0.323663032845    -0.000002058706    -0.000000047367    12.000000000000
         C            0.061256369355    -1.402213174106    -2.431896547267    12.000000000000
         C            0.061136443955     2.807204230794     0.001601264433    12.000000000000
         C            0.061256573655    -1.404986767106     2.430295365333    12.000000000000
         H            2.087206489455    -1.647930786706    -2.852839626567     1.007825032230
         H           -0.765789322645    -0.391182941506    -4.030777589267     1.007825032230
         H           -0.765558116645    -3.295562880106    -2.353783568467     1.007825032230
         H            2.087067309755     3.294694932394    -0.000620180367     1.007825032230
         H           -0.766030627345     3.686321213294     1.676583308733     1.007825032230
         H           -0.765636130245     3.686188907294    -1.677188083367     1.007825032230
         H            2.087206523355    -1.646856627906     2.853459667533     1.007825032230
         H           -0.765952698745    -3.295105280706     2.354200429633     1.007825032230
         H           -0.765394932345    -0.390593098706     4.030965223833     1.007825032230

  Charge       = 0
  Multiplicity = 2
  Basis Set: ANONYMOUS85BD9553
    Blend: 6-31G_2DFP_
  Basis Set: (ANONYMOUS85BD9553 AUX)
    Blend: DEF2-UNIVERSAL-JKFIT

    Orbital Energies [Eh]
    ---------------------

    Alpha Occupied:

       1A    -10.181113     2A    -10.167391     3A    -10.167391
       4A    -10.167346     5A     -0.796721     6A     -0.685887
       7A     -0.685887     8A     -0.530778     9A     -0.440531
      10A     -0.434193    11A     -0.434192    12A     -0.382525
      13A     -0.382524    14A     -0.363728    15A     -0.337811
      16A     -0.337811    17A     -0.169285

    Alpha Virtual:

      18A      0.076102    19A      0.134114    20A      0.134115
      21A      0.142426    22A      0.142426    23A      0.154817
      24A      0.178603    25A      0.178604    26A      0.202435
      27A      0.214459    28A      0.275452    29A      0.275454
      30A      0.399247    31A      0.399251    32A      0.403547
      33A      0.424383    34A      0.424383    35A      0.456030
      36A      0.495164    37A      0.495165    38A      0.511819
      39A      0.513577    40A      0.578116    41A      0.578125
      42A      0.591089    43A      0.591091    44A      0.602123
      45A      0.624344    46A      0.631435    47A      0.635448
      48A      0.635451    49A      0.662931    50A      0.662931
      51A      0.683412    52A      0.683413    53A      0.735194
      54A      0.825560    55A      0.825563    56A      0.852911
      57A      0.914298    58A      0.914304    59A      0.942801
      60A      0.945184    61A      0.960327    62A      0.960343
      63A      1.002335    64A      1.127211    65A      1.127224
      66A      1.141878    67A      1.162484    68A      1.162496
      69A      1.222433    70A      1.273581    71A      1.273585
      72A      1.278834    73A      1.324018    74A      1.324020
      75A      1.355813    76A      1.364233    77A      1.364238
      78A      1.390948    79A      1.404323    80A      1.404325
      81A      1.416747    82A      1.416753    83A      1.426475
      84A      1.490261    85A      1.498552    86A      1.542087
      87A      1.542089    88A      1.573285    89A      1.573287
      90A      1.669896    91A      1.738779    92A      1.738791
      93A      1.766813    94A      1.830194    95A      1.830195
      96A      1.970359    97A      2.016012    98A      2.017932
      99A      2.017936   100A      2.048185   101A      2.048185
     102A      2.737882   103A      2.737883   104A      2.789753
     105A      2.808712   106A      2.888782   107A      2.888788
     108A      2.893416   109A      2.929325   110A      2.929333
     111A      2.958760   112A      2.964672   113A      2.964686
     114A      3.034038   115A      3.070340   116A      3.070354
     117A      3.082779   118A      3.167932   119A      3.167940
     120A      3.178732   121A      3.284786   122A      3.284787
     123A      3.326742   124A      3.326748   125A      3.376975
     126A      3.488349   127A      3.488369   128A      3.513197
     129A      3.523008   130A      3.568456   131A      3.568477
     132A      3.573033   133A      3.666421   134A      3.666428
     135A      3.677729   136A      3.692694   137A      3.692709
     138A      3.772330   139A      3.772356   140A      3.788414
     141A      3.910131   142A      3.910138   143A      4.032621
     144A      4.108477   145A      4.108482   146A      4.147426
     147A      4.147434   148A      4.172029   149A      4.200744
     150A      4.200747   151A      4.201218   152A      4.209237
     153A      4.314410   154A      4.314429   155A      4.356481
     156A      4.422399   157A      4.422401   158A      4.441009
     159A      4.513868   160A      4.513869   161A      4.574717
     162A      4.574729   163A      4.610240   164A      4.704690
     165A      4.768162   166A      4.768170   167A      4.832950
     168A      4.959848   169A      5.001327   170A      5.001339
     171A      5.227028   172A      5.245404   173A      5.245405
     174A      5.352900   175A      5.352913   176A      5.473652

    Beta Occupied:

       1A    -10.168142     2A    -10.168142     3A    -10.168124
       4A    -10.167260     5A     -0.780068     6A     -0.683710
       7A     -0.683710     8A     -0.511648     9A     -0.430582
      10A     -0.430582    11A     -0.421326    12A     -0.376647
      13A     -0.376646    14A     -0.362724    15A     -0.332929
      16A     -0.332929

    Beta Virtual:

      17A     -0.025774    18A      0.077099    19A      0.135010
      20A      0.135011    21A      0.144268    22A      0.144268
      23A      0.163233    24A      0.182248    25A      0.182249
      26A      0.214674    27A      0.218005    28A      0.281870
      29A      0.281872    30A      0.400383    31A      0.400388
      32A      0.420091    33A      0.427203    34A      0.427203
      35A      0.467584    36A      0.497410    37A      0.497411
      38A      0.513546    39A      0.555987    40A      0.583661
      41A      0.583669    42A      0.597328    43A      0.597329
      44A      0.609510    45A      0.627654    46A      0.631586
      47A      0.638661    48A      0.638665    49A      0.666535
      50A      0.666535    51A      0.685969    52A      0.685970
      53A      0.757895    54A      0.830712    55A      0.830714
      56A      0.854227    57A      0.922256    58A      0.922263
      59A      0.944635    60A      0.954203    61A      0.965608
      62A      0.965624    63A      1.007653    64A      1.131240
      65A      1.131252    66A      1.155246    67A      1.167554
      68A      1.167566    69A      1.231265    70A      1.279140
      71A      1.279143    72A      1.284653    73A      1.329010
      74A      1.329012    75A      1.365197    76A      1.369483
      77A      1.369487    78A      1.392000    79A      1.407822
      80A      1.407825    81A      1.421740    82A      1.421747
      83A      1.426711    84A      1.491327    85A      1.508914
      86A      1.546552    87A      1.546552    88A      1.581089
      89A      1.581089    90A      1.674734    91A      1.744538
      92A      1.744549    93A      1.777571    94A      1.834031
      95A      1.834032    96A      1.971216    97A      2.024327
      98A      2.024330    99A      2.037319   100A      2.054869
     101A      2.054869   102A      2.746312   103A      2.746314
     104A      2.809086   105A      2.814942   106A      2.901686
     107A      2.901692   108A      2.923062   109A      2.931647
     110A      2.931655   111A      2.959810   112A      2.969159
     113A      2.969173   114A      3.041885   115A      3.080166
     116A      3.080177   117A      3.084577   118A      3.183796
     119A      3.183800   120A      3.186459   121A      3.289410
     122A      3.289410   123A      3.330623   124A      3.330628
     125A      3.384811   126A      3.491097   127A      3.491117
     128A      3.511581   129A      3.526094   130A      3.572873
     131A      3.581777   132A      3.581799   133A      3.671271
     134A      3.671282   135A      3.691040   136A      3.724506
     137A      3.724522   138A      3.776815   139A      3.776841
     140A      3.817094   141A      3.919941   142A      3.919948
     143A      4.043577   144A      4.115566   145A      4.115569
     146A      4.154451   147A      4.154459   148A      4.185977
     149A      4.206683   150A      4.206686   151A      4.209122
     152A      4.213637   153A      4.321818   154A      4.321838
     155A      4.359864   156A      4.430511   157A      4.430514
     158A      4.443873   159A      4.521531   160A      4.521532
     161A      4.585299   162A      4.585311   163A      4.617448
     164A      4.714952   165A      4.775112   166A      4.775120
     167A      4.835868   168A      4.964620   169A      5.005327
     170A      5.005339   171A      5.232705   172A      5.247177
     173A      5.247177   174A      5.359326   175A      5.359339
     176A      5.475951

    Final Occupation by Irrep:
              A
    DOCC [    16 ]
    SOCC [     1 ]

  @DF-UKS Final Energy:  -157.81307161674698

   => Energetics <=

    Nuclear Repulsion Energy =            125.2136503374542968
    One-Electron Energy =                -458.3925751270800220
    Two-Electron Energy =                 195.6692036194812658
    DFT Exchange-Correlation Energy =     -20.3033504466024972
    Empirical Dispersion Energy =           0.0000000000000000
    VV10 Nonlocal Energy =                  0.0000000000000000
    Total Energy =                       -157.8130716167469814

  UHF NO Occupations:
  HONO-2 :   15  A 1.9996026
  HONO-1 :   16  A 1.9989734
  HONO-0 :   17  A 1.0000000
  LUNO+0 :   18  A 0.0010266
  LUNO+1 :   19  A 0.0003974
  LUNO+2 :   20  A 0.0001997
  LUNO+3 :   21  A 0.0001997

Computation Completed

Properties will be evaluated at   0.000000,   0.000000,   0.000000 [a0]

Properties computed using the SCF density matrix

  Nuclear Dipole Moment: [e a0]
     X:     0.8270      Y:    -0.0000      Z:    -0.0000

  Electronic Dipole Moment: [e a0]
     X:    -0.7483      Y:     0.0000      Z:     0.0000

  Dipole Moment: [e a0]
     X:     0.0788      Y:     0.0000      Z:    -0.0000     Total:     0.0788

  Dipole Moment: [D]
     X:     0.2002      Y:     0.0000      Z:    -0.0000     Total:     0.2002

*** tstop() called on n082 at Fri Nov  5 12:52:31 2021
Module time:
	user time   =     467.35 seconds =       7.79 minutes
	system time =       4.38 seconds =       0.07 minutes
	total time  =        119 seconds =       1.98 minutes
Total time:
	user time   =     467.35 seconds =       7.79 minutes
	system time =       4.38 seconds =       0.07 minutes
	total time  =        119 seconds =       1.98 minutes
Grab this energy -157.81307161674698
    Psi4 stopped on: Friday, 05 November 2021 12:52PM
    Psi4 wall time for execution: 0:01:58.65

*** Psi4 exiting successfully. Buy a developer a beer!
