                               Psi4 1.4a2.dev629

  ==> Input File <==

--------------------------------------------------------------------------
import os
memory 14 GB

molecule {
 C   -0.3233420149    0.0004955575   -0.0000007348
 C    0.0618270235   -1.3998736858   -2.4269047795
 C    0.0596416943    2.8018566482    0.0007971513
 C    0.0618273226   -1.4012559210    2.4261051946
 H    2.0848742456   -1.6427130018   -2.8485236978
 H   -0.7627384630   -0.3882281334   -4.0301082608
 H   -0.7663253016   -3.2906723755   -2.3450661853
 H    2.0909204283    3.2876101417    0.0015841748
 H   -0.7668839094    3.6847318876    1.6743778455
 H   -0.7682233041    3.6758760678   -1.6723605300
 H    2.0848749070   -1.6454510993    2.8469405499
 H   -0.7649757441   -3.2968590569    2.3517444894
 H   -0.7640847609   -0.3855413429    4.0214147825
units bohr
0 2
}

basis {

assign 6-31g_2dfp_

[ 6-31g_2dfp_ ]

spherical

!----------------------------------------------------------------------
! Basis Set Exchange
! Version v0.8.13
! https://www.basissetexchange.org
!----------------------------------------------------------------------
!   Basis set: 6-31G(2df,p)
! Description: 6-31G(2df,p)
!        Role: orbital
!     Version: 0  (Data from the original Basis Set Exchange)
!----------------------------------------------------------------------

****
H     0
S    3   1.00
     18.7311370              0.03349460
      2.8253937              0.23472695
      0.6401217              0.81375733
S    1   1.00
      0.1612778              1.00000000
P    1   1.00
      1.5000000              1.0000000
P    1   1.00
      0.3750000              1.0000000
****
B     0
S    6   1.00
   2068.8823000              0.0018663
    310.6495700              0.0142515
     70.6830330              0.0695516
     19.8610800              0.2325729
      6.2993048              0.4670787
      2.1270270              0.3634314
SP   3   1.00
      4.7279710             -0.1303938              0.0745976
      1.1903377             -0.1307889              0.3078467
      0.3594117              1.1309444              0.7434568
SP   1   1.00
      0.1267512              1.0000000              1.0000000
D    1   1.00
      0.8020000              1.0000000
D    1   1.00
      0.2005000              1.0000000
F    1   1.00
      0.5000000              1.0000000
****
C     0
S    6   1.00
   3047.5249000              0.0018347
    457.3695100              0.0140373
    103.9486900              0.0688426
     29.2101550              0.2321844
      9.2866630              0.4679413
      3.1639270              0.3623120
SP   3   1.00
      7.8682724             -0.1193324              0.0689991
      1.8812885             -0.1608542              0.3164240
      0.5442493              1.1434564              0.7443083
SP   1   1.00
      0.1687144              1.0000000              1.0000000
D    1   1.00
      1.2520000              1.0000000
D    1   1.00
      0.3130000              1.0000000
F    1   1.00
      0.8000000              1.0000000
****
N     0
S    6   1.00
   4173.5110000              0.0018348
    627.4579000              0.0139950
    142.9021000              0.0685870
     40.2343300              0.2322410
     12.8202100              0.4690700
      4.3904370              0.3604550
SP   3   1.00
     11.6263580             -0.1149610              0.0675800
      2.7162800             -0.1691180              0.3239070
      0.7722180              1.1458520              0.7408950
SP   1   1.00
      0.2120313              1.0000000              1.0000000
D    1   1.00
      1.8260000              1.0000000
D    1   1.00
      0.4565000              1.0000000
F    1   1.00
      1.0000000              1.0000000
****
O     0
S    6   1.00
   5484.6717000              0.0018311
    825.2349500              0.0139501
    188.0469600              0.0684451
     52.9645000              0.2327143
     16.8975700              0.4701930
      5.7996353              0.3585209
SP   3   1.00
     15.5396160             -0.1107775              0.0708743
      3.5999336             -0.1480263              0.3397528
      1.0137618              1.1307670              0.7271586
SP   1   1.00
      0.2700058              1.0000000              1.0000000
D    1   1.00
      2.5840000              1.0000000
D    1   1.00
      0.6460000              1.0000000
F    1   1.00
      1.4000000              1.0000000
****
F     0
S    6   1.00
   7001.7130900              0.0018196169
   1051.3660900              0.0139160796
    239.2856900              0.0684053245
     67.3974453              0.233185760
     21.5199573              0.471267439
      7.40310130             0.356618546
SP   3   1.00
     20.8479528             -0.108506975            0.0716287243
      4.80830834            -0.146451658            0.3459121030
      1.34406986             1.128688580            0.7224699570
SP   1   1.00
      0.358151393            1.0000000              1.0000000
D    1   1.00
      3.5000000              1.0000000
D    1   1.00
      0.8750000              1.0000000
F    1   1.00
      1.8500000              1.0000000
****
Al     0
S    6   1.00
  13983.1000000              0.00194267
   2098.7500000              0.0148599
    477.7050000              0.0728494
    134.3600000              0.2468300
     42.8709000              0.4872580
     14.5189000              0.3234960
SP   6   1.00
    239.6680000             -0.00292619             0.00460285
     57.4419000             -0.0374080              0.0331990
     18.2859000             -0.1144870              0.1362820
      6.5991400              0.1156350              0.3304760
      2.4904900              0.6125950              0.4491460
      0.9445400              0.3937990              0.2657040
SP   3   1.00
      1.2779000             -0.2276060             -0.0175130
      0.3975900              0.00144583             0.2445330
      0.1600950              1.0927900              0.8049340
SP   1   1.00
      0.0556577              1.0000000              1.0000000
D    1   1.00
      0.6500000              1.0000000
D    1   1.00
      0.1625000              1.0000000
F    1   1.00
      0.2500000              1.0000000
****
Si     0
S    6   1.00
  16115.9000000              0.00195948
   2425.5800000              0.01492880
    553.8670000              0.07284780
    156.3400000              0.24613000
     50.0683000              0.48591400
     17.0178000              0.32500200
SP   6   1.00
    292.7180000             -0.00278094             0.00443826
     69.8731000             -0.03571460             0.03266790
     22.3363000             -0.11498500             0.13472100
      8.1503900              0.09356340             0.32867800
      3.1345800              0.60301700             0.44964000
      1.2254300              0.41895900             0.26137200
SP   3   1.00
      1.7273800             -0.24463000            -0.01779510
      0.5729220              0.00431572             0.25353900
      0.2221920              1.09818000             0.80066900
SP   1   1.00
      0.0778369              1.00000000             1.00000000
D    1   1.00
      0.9000000              1.0000000
D    1   1.00
      0.2250000              1.0000000
F    1   1.00
      0.3200000              1.0000000
****
P     0
S    6   1.00
  19413.3000000              0.0018516
   2909.4200000              0.0142062
    661.3640000              0.0699995
    185.7590000              0.2400790
     59.1943000              0.4847620
     20.0310000              0.3352000
SP   6   1.00
    339.4780000             -0.00278217             0.00456462
     81.0101000             -0.0360499              0.03369360
     25.8780000             -0.1166310              0.13975500
      9.4522100              0.0968328              0.33936200
      3.6656600              0.6144180              0.45092100
      1.4674600              0.4037980              0.23858600
SP   3   1.00
      2.1562300             -0.2529230             -0.01776530
      0.7489970              0.0328517              0.27405800
      0.2831450              1.0812500              0.78542100
SP   1   1.00
      0.0998317              1.0000000              1.00000000
D    1   1.00
      1.1000000              1.0000000
D    1   1.00
      0.2750000              1.0000000
F    1   1.00
      0.4500000              1.0000000
****
S     0
S    6   1.00
  21917.1000000              0.0018690
   3301.4900000              0.0142300
    754.1460000              0.0696960
    212.7110000              0.2384870
     67.9896000              0.4833070
     23.0515000              0.3380740
SP   6   1.00
    423.7350000             -0.0023767              0.0040610
    100.7100000             -0.0316930              0.0306810
     32.1599000             -0.1133170              0.1304520
     11.8079000              0.0560900              0.3272050
      4.6311000              0.5922550              0.4528510
      1.8702500              0.4550060              0.2560420
SP   3   1.00
      2.6158400             -0.2503740             -0.0145110
      0.9221670              0.0669570              0.3102630
      0.3412870              1.0545100              0.7544830
SP   1   1.00
      0.1171670              1.0000000              1.0000000
D    1   1.00
      1.3000000              1.0000000
D    1   1.00
      0.3250000              1.0000000
F    1   1.00
      0.5500000              1.0000000
****
Cl     0
S    6   1.00
  25180.1000000              0.0018330
   3780.3500000              0.0140340
    860.4740000              0.0690970
    242.1450000              0.2374520
     77.3349000              0.4830340
     26.2470000              0.3398560
SP   6   1.00
    491.7650000             -0.0022974              0.0039894
    116.9840000             -0.0307140              0.0303180
     37.4153000             -0.1125280              0.1298800
     13.7834000              0.0450160              0.3279510
      5.4521500              0.5893530              0.4535270
      2.2258800              0.4652060              0.2521540
SP   3   1.00
      3.1864900             -0.2518300             -0.0142990
      1.1442700              0.0615890              0.3235720
      0.4203770              1.0601800              0.7435070
SP   1   1.00
      0.1426570              1.0000000              1.0000000
D    1   1.00
      1.5000000              1.0000000
D    1   1.00
      0.3750000              1.0000000
F    1   1.00
      0.7000000              1.0000000
****
}

set {
reference uhf
freeze_core true
e_convergence 10
d_convergence 10
dft_spherical_points 1202
dft_radial_points 99
}

e = energy('b3lyp')

print_out('Grab this energy {0}'.format(e))
--------------------------------------------------------------------------

    Molecular point group: c1

    Geometry (in Bohr), charge = 0, multiplicity = 2:

       Center              X                  Y                   Z               Mass
    ------------   -----------------  -----------------  -----------------  -----------------
         C           -0.323340861249     0.000260505511    -0.000000124540    12.000000000000
         C            0.061828177151    -1.400108737789    -2.426904169240    12.000000000000
         C            0.059642847951     2.801621596211     0.000797761560    12.000000000000
         C            0.061828476251    -1.401490972989     2.426105804860    12.000000000000
         H            2.084875399251    -1.642948053789    -2.848523087540     1.007825032230
         H           -0.762737309349    -0.388463185389    -4.030107650540     1.007825032230
         H           -0.766324147949    -3.290907427489    -2.345065575040     1.007825032230
         H            2.090921581951     3.287375089711     0.001584785060     1.007825032230
         H           -0.766882755749     3.684496835611     1.674378455760     1.007825032230
         H           -0.768222150449     3.675641015811    -1.672359919740     1.007825032230
         H            2.084876060651    -1.645686151289     2.846941160160     1.007825032230
         H           -0.764974590449    -3.297094108889     2.351745099660     1.007825032230
         H           -0.764083607249    -0.385776394889     4.021415392760     1.007825032230

  Charge       = 0
  Multiplicity = 2
  Basis Set: ANONYMOUSDC677DDD
    Blend: 6-31G_2DFP_
  Basis Set: (ANONYMOUSDC677DDD AUX)
    Blend: DEF2-UNIVERSAL-JKFIT

    Orbital Energies [Eh]
    ---------------------

    Alpha Occupied:

       1A    -10.180343     2A    -10.167048     3A    -10.167017
       4A    -10.166979     5A     -0.797767     6A     -0.686188
       7A     -0.686188     8A     -0.530777     9A     -0.441127
      10A     -0.434695    11A     -0.434648    12A     -0.382620
      13A     -0.382574    14A     -0.363610    15A     -0.338031
      16A     -0.337966    17A     -0.168961

    Alpha Virtual:

      18A      0.076071    19A      0.133984    20A      0.134321
      21A      0.142565    22A      0.142689    23A      0.154881
      24A      0.178695    25A      0.178865    26A      0.203530
      27A      0.214819    28A      0.275908    29A      0.276062
      30A      0.399197    31A      0.399260    32A      0.403343
      33A      0.424014    34A      0.424183    35A      0.456592
      36A      0.495246    37A      0.495532    38A      0.512160
      39A      0.513982    40A      0.578637    41A      0.578993
      42A      0.591477    43A      0.591784    44A      0.602580
      45A      0.624687    46A      0.631833    47A      0.636144
      48A      0.636369    49A      0.663049    50A      0.663786
      51A      0.683680    52A      0.684030    53A      0.734994
      54A      0.825380    55A      0.825426    56A      0.853921
      57A      0.914813    58A      0.915236    59A      0.944020
      60A      0.944701    61A      0.961176    62A      0.961416
      63A      1.003467    64A      1.128049    65A      1.128162
      66A      1.142209    67A      1.163146    68A      1.163400
      69A      1.223327    70A      1.274331    71A      1.274647
      72A      1.279366    73A      1.324314    74A      1.324396
      75A      1.355944    76A      1.366020    77A      1.366068
      78A      1.392463    79A      1.403580    80A      1.404489
      81A      1.416601    82A      1.417673    83A      1.427916
      84A      1.491490    85A      1.499081    86A      1.542385
      87A      1.543294    88A      1.574289    89A      1.574601
      90A      1.669827    91A      1.739224    92A      1.739582
      93A      1.768354    94A      1.830593    95A      1.832202
      96A      1.971714    97A      2.018019    98A      2.018891
      99A      2.019496   100A      2.051718   101A      2.053591
     102A      2.738076   103A      2.738894   104A      2.790921
     105A      2.811427   106A      2.889931   107A      2.889953
     108A      2.894966   109A      2.929483   110A      2.929513
     111A      2.959000   112A      2.964042   113A      2.964712
     114A      3.034021   115A      3.071271   116A      3.071289
     117A      3.084361   118A      3.168571   119A      3.168991
     120A      3.180600   121A      3.284978   122A      3.285629
     123A      3.326975   124A      3.327375   125A      3.375623
     126A      3.489978   127A      3.490318   128A      3.513929
     129A      3.525416   130A      3.568256   131A      3.568519
     132A      3.575158   133A      3.665663   134A      3.667115
     135A      3.679644   136A      3.693946   137A      3.694281
     138A      3.776804   139A      3.776837   140A      3.789125
     141A      3.912141   142A      3.912346   143A      4.034444
     144A      4.110899   145A      4.111814   146A      4.147523
     147A      4.148672   148A      4.173216   149A      4.202227
     150A      4.202297   151A      4.204226   152A      4.210925
     153A      4.315139   154A      4.316838   155A      4.358963
     156A      4.424148   157A      4.424786   158A      4.443435
     159A      4.516159   160A      4.517541   161A      4.578147
     162A      4.578377   163A      4.617570   164A      4.709431
     165A      4.774138   166A      4.775049   167A      4.836911
     168A      4.962893   169A      5.002206   170A      5.003691
     171A      5.228006   172A      5.244753   173A      5.248868
     174A      5.354344   175A      5.356731   176A      5.479377

    Beta Occupied:

       1A    -10.167805     2A    -10.167769     3A    -10.167749
       4A    -10.166520     5A     -0.781092     6A     -0.683996
       7A     -0.683986     8A     -0.511749     9A     -0.431059
      10A     -0.431030    11A     -0.421820    12A     -0.376727
      13A     -0.376637    14A     -0.362594    15A     -0.333146
      16A     -0.333097

    Beta Virtual:

      17A     -0.025743    18A      0.077081    19A      0.134886
      20A      0.135200    21A      0.144461    22A      0.144534
      23A      0.163338    24A      0.182347    25A      0.182555
      26A      0.214984    27A      0.218978    28A      0.282253
      29A      0.282413    30A      0.400368    31A      0.400428
      32A      0.419789    33A      0.426826    34A      0.426993
      35A      0.468499    36A      0.497499    37A      0.497801
      38A      0.513896    39A      0.556326    40A      0.584202
      41A      0.584527    42A      0.597636    43A      0.597988
      44A      0.610000    45A      0.628008    46A      0.632054
      47A      0.639429    48A      0.639645    49A      0.666646
      50A      0.667319    51A      0.686333    52A      0.686647
      53A      0.757517    54A      0.830546    55A      0.830596
      56A      0.855276    57A      0.922798    58A      0.923193
      59A      0.945938    60A      0.953549    61A      0.966453
      62A      0.966750    63A      1.008706    64A      1.132125
      65A      1.132138    66A      1.155585    67A      1.168190
      68A      1.168511    69A      1.232298    70A      1.279912
      71A      1.280255    72A      1.285121    73A      1.329305
      74A      1.329384    75A      1.365353    76A      1.371260
      77A      1.371315    78A      1.393524    79A      1.407011
      80A      1.408000    81A      1.421630    82A      1.422738
      83A      1.428185    84A      1.492540    85A      1.509523
      86A      1.546805    87A      1.547688    88A      1.582174
      89A      1.582461    90A      1.674673    91A      1.744993
      92A      1.745343    93A      1.779127    94A      1.834441
      95A      1.836066    96A      1.972577    97A      2.024965
      98A      2.025934    99A      2.039675   100A      2.058483
     101A      2.060262   102A      2.746421   103A      2.747221
     104A      2.811829   105A      2.816066   106A      2.902588
     107A      2.902694   108A      2.924645   109A      2.931932
     110A      2.932022   111A      2.960066   112A      2.968579
     113A      2.969270   114A      3.041954   115A      3.081087
     116A      3.081271   117A      3.086199   118A      3.184215
     119A      3.184837   120A      3.188294   121A      3.289765
     122A      3.290435   123A      3.330758   124A      3.331206
     125A      3.383439   126A      3.492747   127A      3.493011
     128A      3.512318   129A      3.528438   130A      3.574999
     131A      3.581566   132A      3.581899   133A      3.670361
     134A      3.671913   135A      3.692939   136A      3.725571
     137A      3.725919   138A      3.781280   139A      3.781420
     140A      3.817665   141A      3.921936   142A      3.922184
     143A      4.045330   144A      4.117736   145A      4.118607
     146A      4.154785   147A      4.155834   148A      4.187265
     149A      4.208116   150A      4.209412   151A      4.211071
     152A      4.215403   153A      4.322576   154A      4.324278
     155A      4.362327   156A      4.432362   157A      4.433003
     158A      4.446315   159A      4.523946   160A      4.525334
     161A      4.588737   162A      4.588989   163A      4.624763
     164A      4.719773   165A      4.781092   166A      4.782003
     167A      4.839831   168A      4.967687   169A      5.006265
     170A      5.007712   171A      5.233720   172A      5.246551
     173A      5.250641   174A      5.360813   175A      5.363220
     176A      5.481698

    Final Occupation by Irrep:
              A
    DOCC [    16 ]
    SOCC [     1 ]

  @DF-UKS Final Energy:  -157.81305736069316

   => Energetics <=

    Nuclear Repulsion Energy =            125.3946404761618538
    One-Electron Energy =                -458.7489091489506450
    Two-Electron Energy =                 195.8483570714321615
    DFT Exchange-Correlation Energy =     -20.3071457593365210
    Empirical Dispersion Energy =           0.0000000000000000
    VV10 Nonlocal Energy =                  0.0000000000000000
    Total Energy =                       -157.8130573606931648

  UHF NO Occupations:
  HONO-2 :   15  A 1.9996008
  HONO-1 :   16  A 1.9989804
  HONO-0 :   17  A 1.0000000
  LUNO+0 :   18  A 0.0010196
  LUNO+1 :   19  A 0.0003992
  LUNO+2 :   20  A 0.0001975
  LUNO+3 :   21  A 0.0001975

Computation Completed

Properties will be evaluated at   0.000000,   0.000000,   0.000000 [a0]

Properties computed using the SCF density matrix

  Nuclear Dipole Moment: [e a0]
     X:     0.8272      Y:    -0.0017      Z:     0.0000

  Electronic Dipole Moment: [e a0]
     X:    -0.7493      Y:     0.0023      Z:    -0.0000

  Dipole Moment: [e a0]
     X:     0.0779      Y:     0.0006      Z:     0.0000     Total:     0.0779

  Dipole Moment: [D]
     X:     0.1980      Y:     0.0016      Z:     0.0000     Total:     0.1980

*** tstop() called on n070 at Fri Nov  5 14:17:35 2021
Module time:
	user time   =     576.68 seconds =       9.61 minutes
	system time =      14.08 seconds =       0.23 minutes
	total time  =        148 seconds =       2.47 minutes
Total time:
	user time   =     576.68 seconds =       9.61 minutes
	system time =      14.08 seconds =       0.23 minutes
	total time  =        148 seconds =       2.47 minutes
Grab this energy -157.81305736069316
    Psi4 stopped on: Friday, 05 November 2021 02:17PM
    Psi4 wall time for execution: 0:02:28.93

*** Psi4 exiting successfully. Buy a developer a beer!
