                               Psi4 1.4a2.dev629

  ==> Input File <==

--------------------------------------------------------------------------
import os
memory 14 GB

molecule {
 C   -0.3243653780   -0.0000025440   -0.0002566962
 C    0.0583054496   -1.4012911545   -2.4263275382
 C    0.0599597086    2.8019128407    0.0007681688
 C    0.0618551859   -1.4006185866    2.4266994220
 H    2.0904259765   -1.6441997993   -2.8478554927
 H   -0.7657385218   -0.3898966601   -4.0242088506
 H   -0.7660368002   -3.2899393105   -2.3499225397
 H    2.0901104595    3.2885203234   -0.0002368497
 H   -0.7667368730    3.6800434982    1.6739850466
 H   -0.7664655235    3.6799559095   -1.6743156555
 H    2.0900741506   -1.6444124246    2.8477498086
 H   -0.7670112526   -3.2897330912    2.3499610778
 H   -0.7669844582   -0.3903633144    4.0239600987
units bohr
0 2
}

basis {

assign 6-31g_2dfp_

[ 6-31g_2dfp_ ]

spherical

!----------------------------------------------------------------------
! Basis Set Exchange
! Version v0.8.13
! https://www.basissetexchange.org
!----------------------------------------------------------------------
!   Basis set: 6-31G(2df,p)
! Description: 6-31G(2df,p)
!        Role: orbital
!     Version: 0  (Data from the original Basis Set Exchange)
!----------------------------------------------------------------------

****
H     0
S    3   1.00
     18.7311370              0.03349460
      2.8253937              0.23472695
      0.6401217              0.81375733
S    1   1.00
      0.1612778              1.00000000
P    1   1.00
      1.5000000              1.0000000
P    1   1.00
      0.3750000              1.0000000
****
B     0
S    6   1.00
   2068.8823000              0.0018663
    310.6495700              0.0142515
     70.6830330              0.0695516
     19.8610800              0.2325729
      6.2993048              0.4670787
      2.1270270              0.3634314
SP   3   1.00
      4.7279710             -0.1303938              0.0745976
      1.1903377             -0.1307889              0.3078467
      0.3594117              1.1309444              0.7434568
SP   1   1.00
      0.1267512              1.0000000              1.0000000
D    1   1.00
      0.8020000              1.0000000
D    1   1.00
      0.2005000              1.0000000
F    1   1.00
      0.5000000              1.0000000
****
C     0
S    6   1.00
   3047.5249000              0.0018347
    457.3695100              0.0140373
    103.9486900              0.0688426
     29.2101550              0.2321844
      9.2866630              0.4679413
      3.1639270              0.3623120
SP   3   1.00
      7.8682724             -0.1193324              0.0689991
      1.8812885             -0.1608542              0.3164240
      0.5442493              1.1434564              0.7443083
SP   1   1.00
      0.1687144              1.0000000              1.0000000
D    1   1.00
      1.2520000              1.0000000
D    1   1.00
      0.3130000              1.0000000
F    1   1.00
      0.8000000              1.0000000
****
N     0
S    6   1.00
   4173.5110000              0.0018348
    627.4579000              0.0139950
    142.9021000              0.0685870
     40.2343300              0.2322410
     12.8202100              0.4690700
      4.3904370              0.3604550
SP   3   1.00
     11.6263580             -0.1149610              0.0675800
      2.7162800             -0.1691180              0.3239070
      0.7722180              1.1458520              0.7408950
SP   1   1.00
      0.2120313              1.0000000              1.0000000
D    1   1.00
      1.8260000              1.0000000
D    1   1.00
      0.4565000              1.0000000
F    1   1.00
      1.0000000              1.0000000
****
O     0
S    6   1.00
   5484.6717000              0.0018311
    825.2349500              0.0139501
    188.0469600              0.0684451
     52.9645000              0.2327143
     16.8975700              0.4701930
      5.7996353              0.3585209
SP   3   1.00
     15.5396160             -0.1107775              0.0708743
      3.5999336             -0.1480263              0.3397528
      1.0137618              1.1307670              0.7271586
SP   1   1.00
      0.2700058              1.0000000              1.0000000
D    1   1.00
      2.5840000              1.0000000
D    1   1.00
      0.6460000              1.0000000
F    1   1.00
      1.4000000              1.0000000
****
F     0
S    6   1.00
   7001.7130900              0.0018196169
   1051.3660900              0.0139160796
    239.2856900              0.0684053245
     67.3974453              0.233185760
     21.5199573              0.471267439
      7.40310130             0.356618546
SP   3   1.00
     20.8479528             -0.108506975            0.0716287243
      4.80830834            -0.146451658            0.3459121030
      1.34406986             1.128688580            0.7224699570
SP   1   1.00
      0.358151393            1.0000000              1.0000000
D    1   1.00
      3.5000000              1.0000000
D    1   1.00
      0.8750000              1.0000000
F    1   1.00
      1.8500000              1.0000000
****
Al     0
S    6   1.00
  13983.1000000              0.00194267
   2098.7500000              0.0148599
    477.7050000              0.0728494
    134.3600000              0.2468300
     42.8709000              0.4872580
     14.5189000              0.3234960
SP   6   1.00
    239.6680000             -0.00292619             0.00460285
     57.4419000             -0.0374080              0.0331990
     18.2859000             -0.1144870              0.1362820
      6.5991400              0.1156350              0.3304760
      2.4904900              0.6125950              0.4491460
      0.9445400              0.3937990              0.2657040
SP   3   1.00
      1.2779000             -0.2276060             -0.0175130
      0.3975900              0.00144583             0.2445330
      0.1600950              1.0927900              0.8049340
SP   1   1.00
      0.0556577              1.0000000              1.0000000
D    1   1.00
      0.6500000              1.0000000
D    1   1.00
      0.1625000              1.0000000
F    1   1.00
      0.2500000              1.0000000
****
Si     0
S    6   1.00
  16115.9000000              0.00195948
   2425.5800000              0.01492880
    553.8670000              0.07284780
    156.3400000              0.24613000
     50.0683000              0.48591400
     17.0178000              0.32500200
SP   6   1.00
    292.7180000             -0.00278094             0.00443826
     69.8731000             -0.03571460             0.03266790
     22.3363000             -0.11498500             0.13472100
      8.1503900              0.09356340             0.32867800
      3.1345800              0.60301700             0.44964000
      1.2254300              0.41895900             0.26137200
SP   3   1.00
      1.7273800             -0.24463000            -0.01779510
      0.5729220              0.00431572             0.25353900
      0.2221920              1.09818000             0.80066900
SP   1   1.00
      0.0778369              1.00000000             1.00000000
D    1   1.00
      0.9000000              1.0000000
D    1   1.00
      0.2250000              1.0000000
F    1   1.00
      0.3200000              1.0000000
****
P     0
S    6   1.00
  19413.3000000              0.0018516
   2909.4200000              0.0142062
    661.3640000              0.0699995
    185.7590000              0.2400790
     59.1943000              0.4847620
     20.0310000              0.3352000
SP   6   1.00
    339.4780000             -0.00278217             0.00456462
     81.0101000             -0.0360499              0.03369360
     25.8780000             -0.1166310              0.13975500
      9.4522100              0.0968328              0.33936200
      3.6656600              0.6144180              0.45092100
      1.4674600              0.4037980              0.23858600
SP   3   1.00
      2.1562300             -0.2529230             -0.01776530
      0.7489970              0.0328517              0.27405800
      0.2831450              1.0812500              0.78542100
SP   1   1.00
      0.0998317              1.0000000              1.00000000
D    1   1.00
      1.1000000              1.0000000
D    1   1.00
      0.2750000              1.0000000
F    1   1.00
      0.4500000              1.0000000
****
S     0
S    6   1.00
  21917.1000000              0.0018690
   3301.4900000              0.0142300
    754.1460000              0.0696960
    212.7110000              0.2384870
     67.9896000              0.4833070
     23.0515000              0.3380740
SP   6   1.00
    423.7350000             -0.0023767              0.0040610
    100.7100000             -0.0316930              0.0306810
     32.1599000             -0.1133170              0.1304520
     11.8079000              0.0560900              0.3272050
      4.6311000              0.5922550              0.4528510
      1.8702500              0.4550060              0.2560420
SP   3   1.00
      2.6158400             -0.2503740             -0.0145110
      0.9221670              0.0669570              0.3102630
      0.3412870              1.0545100              0.7544830
SP   1   1.00
      0.1171670              1.0000000              1.0000000
D    1   1.00
      1.3000000              1.0000000
D    1   1.00
      0.3250000              1.0000000
F    1   1.00
      0.5500000              1.0000000
****
Cl     0
S    6   1.00
  25180.1000000              0.0018330
   3780.3500000              0.0140340
    860.4740000              0.0690970
    242.1450000              0.2374520
     77.3349000              0.4830340
     26.2470000              0.3398560
SP   6   1.00
    491.7650000             -0.0022974              0.0039894
    116.9840000             -0.0307140              0.0303180
     37.4153000             -0.1125280              0.1298800
     13.7834000              0.0450160              0.3279510
      5.4521500              0.5893530              0.4535270
      2.2258800              0.4652060              0.2521540
SP   3   1.00
      3.1864900             -0.2518300             -0.0142990
      1.1442700              0.0615890              0.3235720
      0.4203770              1.0601800              0.7435070
SP   1   1.00
      0.1426570              1.0000000              1.0000000
D    1   1.00
      1.5000000              1.0000000
D    1   1.00
      0.3750000              1.0000000
F    1   1.00
      0.7000000              1.0000000
****
}

set {
reference uhf
freeze_core true
e_convergence 10
d_convergence 10
dft_spherical_points 1202
dft_radial_points 99
}

e = energy('b3lyp')

print_out('Grab this energy {0}'.format(e))
--------------------------------------------------------------------------

    Molecular point group: c1

    Geometry (in Bohr), charge = 0, multiplicity = 2:

       Center              X                  Y                   Z               Mass
    ------------   -----------------  -----------------  -----------------  -----------------
         C           -0.323555455266    -0.000002221654    -0.000426837003    12.000000000000
         C            0.059115372334    -1.401290832154    -2.426497679003    12.000000000000
         C            0.060769631334     2.801913163046     0.000598027997    12.000000000000
         C            0.062665108634    -1.400618264254     2.426529281197    12.000000000000
         H            2.091235899234    -1.644199476954    -2.848025633503     1.007825032230
         H           -0.764928599066    -0.389896337754    -4.024378991403     1.007825032230
         H           -0.765226877466    -3.289938988154    -2.350092680503     1.007825032230
         H            2.090920382234     3.288520645746    -0.000406990503     1.007825032230
         H           -0.765926950266     3.680043820546     1.673814905797     1.007825032230
         H           -0.765655600766     3.679956231846    -1.674485796303     1.007825032230
         H            2.090884073334    -1.644412102254     2.847579667797     1.007825032230
         H           -0.766201329866    -3.289732768854     2.349790936997     1.007825032230
         H           -0.766174535466    -0.390362992054     4.023789957897     1.007825032230

  Charge       = 0
  Multiplicity = 2
  Basis Set: ANONYMOUS31DA124C
    Blend: 6-31G_2DFP_
  Basis Set: (ANONYMOUS31DA124C AUX)
    Blend: DEF2-UNIVERSAL-JKFIT

    Orbital Energies [Eh]
    ---------------------

    Alpha Occupied:

       1A    -10.180401     2A    -10.167054     3A    -10.167023
       4A    -10.166977     5A     -0.797729     6A     -0.686216
       7A     -0.686149     8A     -0.530769     9A     -0.441027
      10A     -0.434816    11A     -0.434614    12A     -0.382612
      13A     -0.382311    14A     -0.363790    15A     -0.338137
      16A     -0.337968    17A     -0.168998

    Alpha Virtual:

      18A      0.076157    19A      0.134113    20A      0.134182
      21A      0.142639    22A      0.142765    23A      0.154712
      24A      0.178492    25A      0.178717    26A      0.203505
      27A      0.215076    28A      0.275905    29A      0.276016
      30A      0.398950    31A      0.399265    32A      0.403259
      33A      0.424237    34A      0.424333    35A      0.456518
      36A      0.495540    37A      0.495598    38A      0.512043
      39A      0.513826    40A      0.578556    41A      0.578733
      42A      0.591251    43A      0.591487    44A      0.601819
      45A      0.625273    46A      0.632163    47A      0.636512
      48A      0.636728    49A      0.662760    50A      0.663094
      51A      0.683954    52A      0.684252    53A      0.735057
      54A      0.825360    55A      0.825387    56A      0.853637
      57A      0.914783    58A      0.914824    59A      0.944414
      60A      0.944753    61A      0.961117    62A      0.961273
      63A      1.003265    64A      1.128258    65A      1.128462
      66A      1.141500    67A      1.163439    68A      1.163633
      69A      1.223737    70A      1.274110    71A      1.274392
      72A      1.279195    73A      1.323886    74A      1.324395
      75A      1.356504    76A      1.365669    77A      1.366279
      78A      1.392398    79A      1.402911    80A      1.403141
      81A      1.417793    82A      1.418398    83A      1.427697
      84A      1.491482    85A      1.498154    86A      1.542418
      87A      1.542505    88A      1.574657    89A      1.574968
      90A      1.671089    91A      1.738169    92A      1.738979
      93A      1.766467    94A      1.832596    95A      1.832988
      96A      1.972746    97A      2.018103    98A      2.018479
      99A      2.019679   100A      2.051055   101A      2.051755
     102A      2.738763   103A      2.738844   104A      2.790534
     105A      2.811882   106A      2.889308   107A      2.889854
     108A      2.894599   109A      2.929674   110A      2.929735
     111A      2.958865   112A      2.963854   113A      2.964060
     114A      3.033319   115A      3.071131   116A      3.071372
     117A      3.085764   118A      3.168538   119A      3.168776
     120A      3.180541   121A      3.285182   122A      3.285259
     123A      3.327643   124A      3.327941   125A      3.375785
     126A      3.489633   127A      3.490244   128A      3.512805
     129A      3.526531   130A      3.567873   131A      3.568095
     132A      3.574317   133A      3.665728   134A      3.666301
     135A      3.680256   136A      3.694304   137A      3.694334
     138A      3.777175   139A      3.777272   140A      3.788332
     141A      3.912705   142A      3.912866   143A      4.034877
     144A      4.111228   145A      4.111414   146A      4.147450
     147A      4.147570   148A      4.171464   149A      4.202607
     150A      4.203762   151A      4.204137   152A      4.209654
     153A      4.315095   154A      4.315960   155A      4.360225
     156A      4.423612   157A      4.423843   158A      4.443671
     159A      4.515143   160A      4.517238   161A      4.578764
     162A      4.579183   163A      4.617394   164A      4.708932
     165A      4.774214   166A      4.775235   167A      4.838267
     168A      4.963171   169A      5.001174   170A      5.002098
     171A      5.225336   172A      5.249787   173A      5.249834
     174A      5.353276   175A      5.353836   176A      5.481309

    Beta Occupied:

       1A    -10.167811     2A    -10.167781     3A    -10.167746
       4A    -10.166584     5A     -0.781061     6A     -0.684031
       7A     -0.683964     8A     -0.511789     9A     -0.431218
      10A     -0.431006    11A     -0.421664    12A     -0.376680
      13A     -0.376362    14A     -0.362783    15A     -0.333258
      16A     -0.333086

    Beta Virtual:

      17A     -0.025872    18A      0.077183    19A      0.135084
      20A      0.135134    21A      0.144487    22A      0.144605
      23A      0.163191    24A      0.182133    25A      0.182362
      26A      0.215298    27A      0.218886    28A      0.282261
      29A      0.282366    30A      0.400121    31A      0.400439
      32A      0.419799    33A      0.427046    34A      0.427147
      35A      0.468326    36A      0.497814    37A      0.497864
      38A      0.513785    39A      0.556133    40A      0.584139
      41A      0.584306    42A      0.597417    43A      0.597662
      44A      0.609366    45A      0.628524    46A      0.632318
      47A      0.639758    48A      0.639977    49A      0.666370
      50A      0.666673    51A      0.686574    52A      0.686878
      53A      0.757576    54A      0.830552    55A      0.830574
      56A      0.854999    57A      0.922773    58A      0.922812
      59A      0.946242    60A      0.953731    61A      0.966382
      62A      0.966551    63A      1.008465    64A      1.132284
      65A      1.132564    66A      1.154959    67A      1.168535
      68A      1.168634    69A      1.232694    70A      1.279680
      71A      1.279972    72A      1.284891    73A      1.328912
      74A      1.329441    75A      1.365901    76A      1.370982
      77A      1.371596    78A      1.393472    79A      1.406304
      80A      1.406562    81A      1.422825    82A      1.423400
      83A      1.427972    84A      1.492504    85A      1.508605
      86A      1.546875    87A      1.546926    88A      1.582565
      89A      1.582771    90A      1.675987    91A      1.743932
      92A      1.744729    93A      1.777235    94A      1.836452
      95A      1.836845    96A      1.973592    97A      2.024620
      98A      2.025932    99A      2.039592   100A      2.057920
     101A      2.058571   102A      2.747112   103A      2.747184
     104A      2.812296   105A      2.815632   106A      2.901980
     107A      2.902508   108A      2.924109   109A      2.932158
     110A      2.932214   111A      2.959924   112A      2.968367
     113A      2.968565   114A      3.041470   115A      3.081031
     116A      3.081259   117A      3.087586   118A      3.184324
     119A      3.184519   120A      3.188209   121A      3.290020
     122A      3.290080   123A      3.331399   124A      3.331723
     125A      3.383578   126A      3.492325   127A      3.492933
     128A      3.511167   129A      3.529561   130A      3.574169
     131A      3.581449   132A      3.581546   133A      3.670439
     134A      3.670903   135A      3.693526   136A      3.725804
     137A      3.726087   138A      3.781647   139A      3.781724
     140A      3.816904   141A      3.922562   142A      3.922755
     143A      4.045827   144A      4.118101   145A      4.118179
     146A      4.154605   147A      4.154814   148A      4.185550
     149A      4.209726   150A      4.210088   151A      4.210717
     152A      4.214247   153A      4.322447   154A      4.323359
     155A      4.363544   156A      4.431834   157A      4.432047
     158A      4.446503   159A      4.522970   160A      4.525060
     161A      4.589337   162A      4.589729   163A      4.624494
     164A      4.719392   165A      4.781136   166A      4.782120
     167A      4.841172   168A      4.967979   169A      5.005258
     170A      5.006146   171A      5.231016   172A      5.251557
     173A      5.251605   174A      5.359730   175A      5.360287
     176A      5.483618

    Final Occupation by Irrep:
              A
    DOCC [    16 ]
    SOCC [     1 ]

  @DF-UKS Final Energy:  -157.81305866697653

   => Energetics <=

    Nuclear Repulsion Energy =            125.3892824785898910
    One-Electron Energy =                -458.7381695640572161
    Two-Electron Energy =                 195.8428649294540946
    DFT Exchange-Correlation Energy =     -20.3070365109633286
    Empirical Dispersion Energy =           0.0000000000000000
    VV10 Nonlocal Energy =                  0.0000000000000000
    Total Energy =                       -157.8130586669765307

  UHF NO Occupations:
  HONO-2 :   15  A 1.9995985
  HONO-1 :   16  A 1.9989796
  HONO-0 :   17  A 1.0000000
  LUNO+0 :   18  A 0.0010204
  LUNO+1 :   19  A 0.0004015
  LUNO+2 :   20  A 0.0001977
  LUNO+3 :   21  A 0.0001974

Computation Completed

Properties will be evaluated at   0.000000,   0.000000,   0.000000 [a0]

Properties computed using the SCF density matrix

  Nuclear Dipole Moment: [e a0]
     X:     0.8329      Y:    -0.0000      Z:    -0.0012

  Electronic Dipole Moment: [e a0]
     X:    -0.7582      Y:     0.0000      Z:     0.0011

  Dipole Moment: [e a0]
     X:     0.0747      Y:     0.0000      Z:    -0.0001     Total:     0.0747

  Dipole Moment: [D]
     X:     0.1899      Y:     0.0000      Z:    -0.0003     Total:     0.1899

*** tstop() called on n062 at Fri Nov  5 12:19:38 2021
Module time:
	user time   =     546.91 seconds =       9.12 minutes
	system time =      12.67 seconds =       0.21 minutes
	total time  =        141 seconds =       2.35 minutes
Total time:
	user time   =     546.91 seconds =       9.12 minutes
	system time =      12.67 seconds =       0.21 minutes
	total time  =        141 seconds =       2.35 minutes
Grab this energy -157.81305866697653
    Psi4 stopped on: Friday, 05 November 2021 12:19PM
    Psi4 wall time for execution: 0:02:20.70

*** Psi4 exiting successfully. Buy a developer a beer!
