                               Psi4 1.4a2.dev629

  ==> Input File <==

--------------------------------------------------------------------------
import os
memory 14 GB

molecule {
 C   -0.3233401184    0.0004955575   -0.0000012722
 C    0.0618295964   -1.3997279588   -2.4269893230
 C    0.0596435899    2.8018565954    0.0009649404
 C    0.0618285436   -1.4014015947    2.4260205593
 H    2.0848773408   -1.6418301290   -2.8490315988
 H   -0.7610524522   -0.3881527804   -4.0244404532
 H   -0.7680160296   -3.2955464732   -2.3479586043
 H    2.0909221440    3.2876087101    0.0026051531
 H   -0.7651927337    3.6797883212    1.6716129386
 H   -0.7699187269    3.6808121964   -1.6751342916
 H    2.0848752519   -1.6463325428    2.8464301754
 H   -0.7632892681   -3.2919889296    2.3488411895
 H   -0.7657750145   -0.3856052858    4.0270805867
units bohr
0 2
}

basis {

assign 6-31g_2dfp_

[ 6-31g_2dfp_ ]

spherical

!----------------------------------------------------------------------
! Basis Set Exchange
! Version v0.8.13
! https://www.basissetexchange.org
!----------------------------------------------------------------------
!   Basis set: 6-31G(2df,p)
! Description: 6-31G(2df,p)
!        Role: orbital
!     Version: 0  (Data from the original Basis Set Exchange)
!----------------------------------------------------------------------

****
H     0
S    3   1.00
     18.7311370              0.03349460
      2.8253937              0.23472695
      0.6401217              0.81375733
S    1   1.00
      0.1612778              1.00000000
P    1   1.00
      1.5000000              1.0000000
P    1   1.00
      0.3750000              1.0000000
****
B     0
S    6   1.00
   2068.8823000              0.0018663
    310.6495700              0.0142515
     70.6830330              0.0695516
     19.8610800              0.2325729
      6.2993048              0.4670787
      2.1270270              0.3634314
SP   3   1.00
      4.7279710             -0.1303938              0.0745976
      1.1903377             -0.1307889              0.3078467
      0.3594117              1.1309444              0.7434568
SP   1   1.00
      0.1267512              1.0000000              1.0000000
D    1   1.00
      0.8020000              1.0000000
D    1   1.00
      0.2005000              1.0000000
F    1   1.00
      0.5000000              1.0000000
****
C     0
S    6   1.00
   3047.5249000              0.0018347
    457.3695100              0.0140373
    103.9486900              0.0688426
     29.2101550              0.2321844
      9.2866630              0.4679413
      3.1639270              0.3623120
SP   3   1.00
      7.8682724             -0.1193324              0.0689991
      1.8812885             -0.1608542              0.3164240
      0.5442493              1.1434564              0.7443083
SP   1   1.00
      0.1687144              1.0000000              1.0000000
D    1   1.00
      1.2520000              1.0000000
D    1   1.00
      0.3130000              1.0000000
F    1   1.00
      0.8000000              1.0000000
****
N     0
S    6   1.00
   4173.5110000              0.0018348
    627.4579000              0.0139950
    142.9021000              0.0685870
     40.2343300              0.2322410
     12.8202100              0.4690700
      4.3904370              0.3604550
SP   3   1.00
     11.6263580             -0.1149610              0.0675800
      2.7162800             -0.1691180              0.3239070
      0.7722180              1.1458520              0.7408950
SP   1   1.00
      0.2120313              1.0000000              1.0000000
D    1   1.00
      1.8260000              1.0000000
D    1   1.00
      0.4565000              1.0000000
F    1   1.00
      1.0000000              1.0000000
****
O     0
S    6   1.00
   5484.6717000              0.0018311
    825.2349500              0.0139501
    188.0469600              0.0684451
     52.9645000              0.2327143
     16.8975700              0.4701930
      5.7996353              0.3585209
SP   3   1.00
     15.5396160             -0.1107775              0.0708743
      3.5999336             -0.1480263              0.3397528
      1.0137618              1.1307670              0.7271586
SP   1   1.00
      0.2700058              1.0000000              1.0000000
D    1   1.00
      2.5840000              1.0000000
D    1   1.00
      0.6460000              1.0000000
F    1   1.00
      1.4000000              1.0000000
****
F     0
S    6   1.00
   7001.7130900              0.0018196169
   1051.3660900              0.0139160796
    239.2856900              0.0684053245
     67.3974453              0.233185760
     21.5199573              0.471267439
      7.40310130             0.356618546
SP   3   1.00
     20.8479528             -0.108506975            0.0716287243
      4.80830834            -0.146451658            0.3459121030
      1.34406986             1.128688580            0.7224699570
SP   1   1.00
      0.358151393            1.0000000              1.0000000
D    1   1.00
      3.5000000              1.0000000
D    1   1.00
      0.8750000              1.0000000
F    1   1.00
      1.8500000              1.0000000
****
Al     0
S    6   1.00
  13983.1000000              0.00194267
   2098.7500000              0.0148599
    477.7050000              0.0728494
    134.3600000              0.2468300
     42.8709000              0.4872580
     14.5189000              0.3234960
SP   6   1.00
    239.6680000             -0.00292619             0.00460285
     57.4419000             -0.0374080              0.0331990
     18.2859000             -0.1144870              0.1362820
      6.5991400              0.1156350              0.3304760
      2.4904900              0.6125950              0.4491460
      0.9445400              0.3937990              0.2657040
SP   3   1.00
      1.2779000             -0.2276060             -0.0175130
      0.3975900              0.00144583             0.2445330
      0.1600950              1.0927900              0.8049340
SP   1   1.00
      0.0556577              1.0000000              1.0000000
D    1   1.00
      0.6500000              1.0000000
D    1   1.00
      0.1625000              1.0000000
F    1   1.00
      0.2500000              1.0000000
****
Si     0
S    6   1.00
  16115.9000000              0.00195948
   2425.5800000              0.01492880
    553.8670000              0.07284780
    156.3400000              0.24613000
     50.0683000              0.48591400
     17.0178000              0.32500200
SP   6   1.00
    292.7180000             -0.00278094             0.00443826
     69.8731000             -0.03571460             0.03266790
     22.3363000             -0.11498500             0.13472100
      8.1503900              0.09356340             0.32867800
      3.1345800              0.60301700             0.44964000
      1.2254300              0.41895900             0.26137200
SP   3   1.00
      1.7273800             -0.24463000            -0.01779510
      0.5729220              0.00431572             0.25353900
      0.2221920              1.09818000             0.80066900
SP   1   1.00
      0.0778369              1.00000000             1.00000000
D    1   1.00
      0.9000000              1.0000000
D    1   1.00
      0.2250000              1.0000000
F    1   1.00
      0.3200000              1.0000000
****
P     0
S    6   1.00
  19413.3000000              0.0018516
   2909.4200000              0.0142062
    661.3640000              0.0699995
    185.7590000              0.2400790
     59.1943000              0.4847620
     20.0310000              0.3352000
SP   6   1.00
    339.4780000             -0.00278217             0.00456462
     81.0101000             -0.0360499              0.03369360
     25.8780000             -0.1166310              0.13975500
      9.4522100              0.0968328              0.33936200
      3.6656600              0.6144180              0.45092100
      1.4674600              0.4037980              0.23858600
SP   3   1.00
      2.1562300             -0.2529230             -0.01776530
      0.7489970              0.0328517              0.27405800
      0.2831450              1.0812500              0.78542100
SP   1   1.00
      0.0998317              1.0000000              1.00000000
D    1   1.00
      1.1000000              1.0000000
D    1   1.00
      0.2750000              1.0000000
F    1   1.00
      0.4500000              1.0000000
****
S     0
S    6   1.00
  21917.1000000              0.0018690
   3301.4900000              0.0142300
    754.1460000              0.0696960
    212.7110000              0.2384870
     67.9896000              0.4833070
     23.0515000              0.3380740
SP   6   1.00
    423.7350000             -0.0023767              0.0040610
    100.7100000             -0.0316930              0.0306810
     32.1599000             -0.1133170              0.1304520
     11.8079000              0.0560900              0.3272050
      4.6311000              0.5922550              0.4528510
      1.8702500              0.4550060              0.2560420
SP   3   1.00
      2.6158400             -0.2503740             -0.0145110
      0.9221670              0.0669570              0.3102630
      0.3412870              1.0545100              0.7544830
SP   1   1.00
      0.1171670              1.0000000              1.0000000
D    1   1.00
      1.3000000              1.0000000
D    1   1.00
      0.3250000              1.0000000
F    1   1.00
      0.5500000              1.0000000
****
Cl     0
S    6   1.00
  25180.1000000              0.0018330
   3780.3500000              0.0140340
    860.4740000              0.0690970
    242.1450000              0.2374520
     77.3349000              0.4830340
     26.2470000              0.3398560
SP   6   1.00
    491.7650000             -0.0022974              0.0039894
    116.9840000             -0.0307140              0.0303180
     37.4153000             -0.1125280              0.1298800
     13.7834000              0.0450160              0.3279510
      5.4521500              0.5893530              0.4535270
      2.2258800              0.4652060              0.2521540
SP   3   1.00
      3.1864900             -0.2518300             -0.0142990
      1.1442700              0.0615890              0.3235720
      0.4203770              1.0601800              0.7435070
SP   1   1.00
      0.1426570              1.0000000              1.0000000
D    1   1.00
      1.5000000              1.0000000
D    1   1.00
      0.3750000              1.0000000
F    1   1.00
      0.7000000              1.0000000
****
}

set {
reference uhf
freeze_core true
e_convergence 10
d_convergence 10
dft_spherical_points 1202
dft_radial_points 99
}

e = energy('b3lyp')

print_out('Grab this energy {0}'.format(e))
--------------------------------------------------------------------------

    Molecular point group: c1

    Geometry (in Bohr), charge = 0, multiplicity = 2:

       Center              X                  Y                   Z               Mass
    ------------   -----------------  -----------------  -----------------  -----------------
         C           -0.323340425866     0.000260505413    -0.000000290768    12.000000000000
         C            0.061829288934    -1.399963010887    -2.426988341568    12.000000000000
         C            0.059643282434     2.801621543313     0.000965921832    12.000000000000
         C            0.061828236134    -1.401636646787     2.426021540732    12.000000000000
         H            2.084877033334    -1.642065181087    -2.849030617368     1.007825032230
         H           -0.761052759666    -0.388387832487    -4.024439471768     1.007825032230
         H           -0.768016337066    -3.295781525287    -2.347957622868     1.007825032230
         H            2.090921836534     3.287373658013     0.002606134532     1.007825032230
         H           -0.765193041166     3.679553269113     1.671613920032     1.007825032230
         H           -0.769919034366     3.680577144313    -1.675133310168     1.007825032230
         H            2.084874944434    -1.646567594887     2.846431156832     1.007825032230
         H           -0.763289575566    -3.292223981687     2.348842170932     1.007825032230
         H           -0.765775321966    -0.385840337887     4.027081568132     1.007825032230

  Charge       = 0
  Multiplicity = 2
  Basis Set: ANONYMOUSD13A1168
    Blend: 6-31G_2DFP_
  Basis Set: (ANONYMOUSD13A1168 AUX)
    Blend: DEF2-UNIVERSAL-JKFIT

    Orbital Energies [Eh]
    ---------------------

    Alpha Occupied:

       1A    -10.180342     2A    -10.167048     3A    -10.167017
       4A    -10.166979     5A     -0.797766     6A     -0.686189
       7A     -0.686188     8A     -0.530780     9A     -0.441126
      10A     -0.434694    11A     -0.434647    12A     -0.382621
      13A     -0.382575    14A     -0.363610    15A     -0.338031
      16A     -0.337966    17A     -0.168961

    Alpha Virtual:

      18A      0.076070    19A      0.133976    20A      0.134312
      21A      0.142571    22A      0.142695    23A      0.154879
      24A      0.178697    25A      0.178866    26A      0.203546
      27A      0.214805    28A      0.275909    29A      0.276063
      30A      0.399197    31A      0.399260    32A      0.403343
      33A      0.424012    34A      0.424181    35A      0.456590
      36A      0.495246    37A      0.495532    38A      0.512159
      39A      0.513982    40A      0.578637    41A      0.578994
      42A      0.591475    43A      0.591783    44A      0.602579
      45A      0.624718    46A      0.631809    47A      0.636137
      48A      0.636362    49A      0.663050    50A      0.663787
      51A      0.683689    52A      0.684041    53A      0.734995
      54A      0.825379    55A      0.825425    56A      0.853921
      57A      0.914815    58A      0.915238    59A      0.944099
      60A      0.944637    61A      0.961173    62A      0.961413
      63A      1.003455    64A      1.128055    65A      1.128168
      66A      1.142209    67A      1.163145    68A      1.163399
      69A      1.223323    70A      1.274325    71A      1.274641
      72A      1.279367    73A      1.324301    74A      1.324385
      75A      1.355953    76A      1.366025    77A      1.366074
      78A      1.392466    79A      1.403604    80A      1.404512
      81A      1.416588    82A      1.417660    83A      1.427911
      84A      1.491453    85A      1.499100    86A      1.542379
      87A      1.543288    88A      1.574294    89A      1.574607
      90A      1.669830    91A      1.739210    92A      1.739568
      93A      1.768348    94A      1.830600    95A      1.832209
      96A      1.971685    97A      2.018043    98A      2.018902
      99A      2.019497   100A      2.051724   101A      2.053597
     102A      2.738074   103A      2.738892   104A      2.790923
     105A      2.811427   106A      2.889929   107A      2.889950
     108A      2.894966   109A      2.929480   110A      2.929510
     111A      2.958996   112A      2.964049   113A      2.964719
     114A      3.034003   115A      3.071275   116A      3.071294
     117A      3.084384   118A      3.168570   119A      3.168990
     120A      3.180607   121A      3.284981   122A      3.285632
     123A      3.326971   124A      3.327370   125A      3.375624
     126A      3.489993   127A      3.490333   128A      3.514004
     129A      3.525336   130A      3.568260   131A      3.568524
     132A      3.575146   133A      3.665657   134A      3.667109
     135A      3.679665   136A      3.693961   137A      3.694295
     138A      3.776797   139A      3.776811   140A      3.789125
     141A      3.912129   142A      3.912334   143A      4.034429
     144A      4.110835   145A      4.111750   146A      4.147571
     147A      4.148719   148A      4.173104   149A      4.202218
     150A      4.202311   151A      4.204240   152A      4.211073
     153A      4.315136   154A      4.316836   155A      4.358973
     156A      4.424154   157A      4.424792   158A      4.443437
     159A      4.516160   160A      4.517542   161A      4.578151
     162A      4.578381   163A      4.617558   164A      4.709456
     165A      4.774149   166A      4.775060   167A      4.836895
     168A      4.962881   169A      5.002209   170A      5.003695
     171A      5.227992   172A      5.244676   173A      5.248786
     174A      5.354431   175A      5.356813   176A      5.479409

    Beta Occupied:

       1A    -10.167805     2A    -10.167769     3A    -10.167749
       4A    -10.166520     5A     -0.781092     6A     -0.683997
       7A     -0.683987     8A     -0.511751     9A     -0.431058
      10A     -0.431030    11A     -0.421819    12A     -0.376728
      13A     -0.376638    14A     -0.362594    15A     -0.333146
      16A     -0.333097

    Beta Virtual:

      17A     -0.025743    18A      0.077079    19A      0.134878
      20A      0.135191    21A      0.144468    22A      0.144540
      23A      0.163337    24A      0.182349    25A      0.182556
      26A      0.215028    27A      0.218936    28A      0.282254
      29A      0.282414    30A      0.400367    31A      0.400428
      32A      0.419790    33A      0.426824    34A      0.426992
      35A      0.468498    36A      0.497499    37A      0.497801
      38A      0.513896    39A      0.556325    40A      0.584202
      41A      0.584528    42A      0.597634    43A      0.597986
      44A      0.609998    45A      0.628064    46A      0.632005
      47A      0.639422    48A      0.639639    49A      0.666647
      50A      0.667321    51A      0.686342    52A      0.686657
      53A      0.757518    54A      0.830545    55A      0.830595
      56A      0.855275    57A      0.922800    58A      0.923194
      59A      0.945959    60A      0.953543    61A      0.966450
      62A      0.966748    63A      1.008696    64A      1.132135
      65A      1.132143    66A      1.155585    67A      1.168187
      68A      1.168507    69A      1.232296    70A      1.279908
      71A      1.280251    72A      1.285122    73A      1.329291
      74A      1.329371    75A      1.365362    76A      1.371266
      77A      1.371322    78A      1.393526    79A      1.407031
      80A      1.408019    81A      1.421621    82A      1.422730
      83A      1.428180    84A      1.492515    85A      1.509530
      86A      1.546800    87A      1.547683    88A      1.582178
      89A      1.582466    90A      1.674675    91A      1.744978
      92A      1.745329    93A      1.779121    94A      1.834448
      95A      1.836074    96A      1.972560    97A      2.024964
      98A      2.025933    99A      2.039700   100A      2.058489
     101A      2.060268   102A      2.746420   103A      2.747219
     104A      2.811835   105A      2.816063   106A      2.902586
     107A      2.902692   108A      2.924648   109A      2.931930
     110A      2.932020   111A      2.960060   112A      2.968585
     113A      2.969277   114A      3.041932   115A      3.081092
     116A      3.081277   117A      3.086227   118A      3.184213
     119A      3.184835   120A      3.188299   121A      3.289770
     122A      3.290440   123A      3.330752   124A      3.331201
     125A      3.383441   126A      3.492762   127A      3.493026
     128A      3.512374   129A      3.528377   130A      3.574990
     131A      3.581574   132A      3.581907   133A      3.670357
     134A      3.671909   135A      3.692958   136A      3.725584
     137A      3.725930   138A      3.781265   139A      3.781400
     140A      3.817666   141A      3.921924   142A      3.922172
     143A      4.045316   144A      4.117666   145A      4.118537
     146A      4.154842   147A      4.155890   148A      4.187109
     149A      4.208134   150A      4.209410   151A      4.211052
     152A      4.215614   153A      4.322575   154A      4.324278
     155A      4.362335   156A      4.432368   157A      4.433008
     158A      4.446317   159A      4.523948   160A      4.525335
     161A      4.588740   162A      4.588992   163A      4.624752
     164A      4.719800   165A      4.781102   166A      4.782013
     167A      4.839812   168A      4.967677   169A      5.006268
     170A      5.007715   171A      5.233706   172A      5.246478
     173A      5.250564   174A      5.360897   175A      5.363299
     176A      5.481730

    Final Occupation by Irrep:
              A
    DOCC [    16 ]
    SOCC [     1 ]

  @DF-UKS Final Energy:  -157.81305074504348

   => Energetics <=

    Nuclear Repulsion Energy =            125.3946677961323957
    One-Electron Energy =                -458.7489432208827793
    Two-Electron Energy =                 195.8483736401321664
    DFT Exchange-Correlation Energy =     -20.3071489604252839
    Empirical Dispersion Energy =           0.0000000000000000
    VV10 Nonlocal Energy =                  0.0000000000000000
    Total Energy =                       -157.8130507450434834

  UHF NO Occupations:
  HONO-2 :   15  A 1.9996009
  HONO-1 :   16  A 1.9989805
  HONO-0 :   17  A 1.0000000
  LUNO+0 :   18  A 0.0010195
  LUNO+1 :   19  A 0.0003991
  LUNO+2 :   20  A 0.0001975
  LUNO+3 :   21  A 0.0001975

Computation Completed

Properties will be evaluated at   0.000000,   0.000000,   0.000000 [a0]

Properties computed using the SCF density matrix

  Nuclear Dipole Moment: [e a0]
     X:     0.8272      Y:    -0.0017      Z:     0.0000

  Electronic Dipole Moment: [e a0]
     X:    -0.7493      Y:     0.0023      Z:    -0.0000

  Dipole Moment: [e a0]
     X:     0.0779      Y:     0.0006      Z:    -0.0000     Total:     0.0779

  Dipole Moment: [D]
     X:     0.1980      Y:     0.0016      Z:    -0.0000     Total:     0.1980

*** tstop() called on n049 at Fri Nov  5 14:13:59 2021
Module time:
	user time   =     512.37 seconds =       8.54 minutes
	system time =      11.66 seconds =       0.19 minutes
	total time  =        132 seconds =       2.20 minutes
Total time:
	user time   =     512.37 seconds =       8.54 minutes
	system time =      11.66 seconds =       0.19 minutes
	total time  =        132 seconds =       2.20 minutes
Grab this energy -157.81305074504348
    Psi4 stopped on: Friday, 05 November 2021 02:13PM
    Psi4 wall time for execution: 0:02:11.83

*** Psi4 exiting successfully. Buy a developer a beer!
