                               Psi4 1.4a2.dev629

  ==> Input File <==

--------------------------------------------------------------------------
import os
memory 14 GB

molecule {
 C   -0.3243654767   -0.0000015801   -0.0002249598
 C    0.0599345960   -1.3997627243   -2.4249331456
 C    0.0599597565    2.8019139600   -0.0004831461
 C    0.0602241829   -1.4021458141    2.4280949832
 H    2.0901769068   -1.6446864624   -2.8482740685
 H   -0.7662770046   -0.3905747087   -4.0244974132
 H   -0.7663790263   -3.2900437517   -2.3504793488
 H    2.0901105939    3.2885216586    0.0001865841
 H   -0.7665409253    3.6799896464    1.6742421830
 H   -0.7666618283    3.6800122895   -1.6740583109
 H    2.0903173867   -1.6439291231    2.8473352698
 H   -0.7666649637   -3.2896296189    2.3494133264
 H   -0.7664420744   -0.3896880848    4.0236780465
units bohr
0 2
}

basis {

assign 6-31g_2dfp_

[ 6-31g_2dfp_ ]

spherical

!----------------------------------------------------------------------
! Basis Set Exchange
! Version v0.8.13
! https://www.basissetexchange.org
!----------------------------------------------------------------------
!   Basis set: 6-31G(2df,p)
! Description: 6-31G(2df,p)
!        Role: orbital
!     Version: 0  (Data from the original Basis Set Exchange)
!----------------------------------------------------------------------

****
H     0
S    3   1.00
     18.7311370              0.03349460
      2.8253937              0.23472695
      0.6401217              0.81375733
S    1   1.00
      0.1612778              1.00000000
P    1   1.00
      1.5000000              1.0000000
P    1   1.00
      0.3750000              1.0000000
****
B     0
S    6   1.00
   2068.8823000              0.0018663
    310.6495700              0.0142515
     70.6830330              0.0695516
     19.8610800              0.2325729
      6.2993048              0.4670787
      2.1270270              0.3634314
SP   3   1.00
      4.7279710             -0.1303938              0.0745976
      1.1903377             -0.1307889              0.3078467
      0.3594117              1.1309444              0.7434568
SP   1   1.00
      0.1267512              1.0000000              1.0000000
D    1   1.00
      0.8020000              1.0000000
D    1   1.00
      0.2005000              1.0000000
F    1   1.00
      0.5000000              1.0000000
****
C     0
S    6   1.00
   3047.5249000              0.0018347
    457.3695100              0.0140373
    103.9486900              0.0688426
     29.2101550              0.2321844
      9.2866630              0.4679413
      3.1639270              0.3623120
SP   3   1.00
      7.8682724             -0.1193324              0.0689991
      1.8812885             -0.1608542              0.3164240
      0.5442493              1.1434564              0.7443083
SP   1   1.00
      0.1687144              1.0000000              1.0000000
D    1   1.00
      1.2520000              1.0000000
D    1   1.00
      0.3130000              1.0000000
F    1   1.00
      0.8000000              1.0000000
****
N     0
S    6   1.00
   4173.5110000              0.0018348
    627.4579000              0.0139950
    142.9021000              0.0685870
     40.2343300              0.2322410
     12.8202100              0.4690700
      4.3904370              0.3604550
SP   3   1.00
     11.6263580             -0.1149610              0.0675800
      2.7162800             -0.1691180              0.3239070
      0.7722180              1.1458520              0.7408950
SP   1   1.00
      0.2120313              1.0000000              1.0000000
D    1   1.00
      1.8260000              1.0000000
D    1   1.00
      0.4565000              1.0000000
F    1   1.00
      1.0000000              1.0000000
****
O     0
S    6   1.00
   5484.6717000              0.0018311
    825.2349500              0.0139501
    188.0469600              0.0684451
     52.9645000              0.2327143
     16.8975700              0.4701930
      5.7996353              0.3585209
SP   3   1.00
     15.5396160             -0.1107775              0.0708743
      3.5999336             -0.1480263              0.3397528
      1.0137618              1.1307670              0.7271586
SP   1   1.00
      0.2700058              1.0000000              1.0000000
D    1   1.00
      2.5840000              1.0000000
D    1   1.00
      0.6460000              1.0000000
F    1   1.00
      1.4000000              1.0000000
****
F     0
S    6   1.00
   7001.7130900              0.0018196169
   1051.3660900              0.0139160796
    239.2856900              0.0684053245
     67.3974453              0.233185760
     21.5199573              0.471267439
      7.40310130             0.356618546
SP   3   1.00
     20.8479528             -0.108506975            0.0716287243
      4.80830834            -0.146451658            0.3459121030
      1.34406986             1.128688580            0.7224699570
SP   1   1.00
      0.358151393            1.0000000              1.0000000
D    1   1.00
      3.5000000              1.0000000
D    1   1.00
      0.8750000              1.0000000
F    1   1.00
      1.8500000              1.0000000
****
Al     0
S    6   1.00
  13983.1000000              0.00194267
   2098.7500000              0.0148599
    477.7050000              0.0728494
    134.3600000              0.2468300
     42.8709000              0.4872580
     14.5189000              0.3234960
SP   6   1.00
    239.6680000             -0.00292619             0.00460285
     57.4419000             -0.0374080              0.0331990
     18.2859000             -0.1144870              0.1362820
      6.5991400              0.1156350              0.3304760
      2.4904900              0.6125950              0.4491460
      0.9445400              0.3937990              0.2657040
SP   3   1.00
      1.2779000             -0.2276060             -0.0175130
      0.3975900              0.00144583             0.2445330
      0.1600950              1.0927900              0.8049340
SP   1   1.00
      0.0556577              1.0000000              1.0000000
D    1   1.00
      0.6500000              1.0000000
D    1   1.00
      0.1625000              1.0000000
F    1   1.00
      0.2500000              1.0000000
****
Si     0
S    6   1.00
  16115.9000000              0.00195948
   2425.5800000              0.01492880
    553.8670000              0.07284780
    156.3400000              0.24613000
     50.0683000              0.48591400
     17.0178000              0.32500200
SP   6   1.00
    292.7180000             -0.00278094             0.00443826
     69.8731000             -0.03571460             0.03266790
     22.3363000             -0.11498500             0.13472100
      8.1503900              0.09356340             0.32867800
      3.1345800              0.60301700             0.44964000
      1.2254300              0.41895900             0.26137200
SP   3   1.00
      1.7273800             -0.24463000            -0.01779510
      0.5729220              0.00431572             0.25353900
      0.2221920              1.09818000             0.80066900
SP   1   1.00
      0.0778369              1.00000000             1.00000000
D    1   1.00
      0.9000000              1.0000000
D    1   1.00
      0.2250000              1.0000000
F    1   1.00
      0.3200000              1.0000000
****
P     0
S    6   1.00
  19413.3000000              0.0018516
   2909.4200000              0.0142062
    661.3640000              0.0699995
    185.7590000              0.2400790
     59.1943000              0.4847620
     20.0310000              0.3352000
SP   6   1.00
    339.4780000             -0.00278217             0.00456462
     81.0101000             -0.0360499              0.03369360
     25.8780000             -0.1166310              0.13975500
      9.4522100              0.0968328              0.33936200
      3.6656600              0.6144180              0.45092100
      1.4674600              0.4037980              0.23858600
SP   3   1.00
      2.1562300             -0.2529230             -0.01776530
      0.7489970              0.0328517              0.27405800
      0.2831450              1.0812500              0.78542100
SP   1   1.00
      0.0998317              1.0000000              1.00000000
D    1   1.00
      1.1000000              1.0000000
D    1   1.00
      0.2750000              1.0000000
F    1   1.00
      0.4500000              1.0000000
****
S     0
S    6   1.00
  21917.1000000              0.0018690
   3301.4900000              0.0142300
    754.1460000              0.0696960
    212.7110000              0.2384870
     67.9896000              0.4833070
     23.0515000              0.3380740
SP   6   1.00
    423.7350000             -0.0023767              0.0040610
    100.7100000             -0.0316930              0.0306810
     32.1599000             -0.1133170              0.1304520
     11.8079000              0.0560900              0.3272050
      4.6311000              0.5922550              0.4528510
      1.8702500              0.4550060              0.2560420
SP   3   1.00
      2.6158400             -0.2503740             -0.0145110
      0.9221670              0.0669570              0.3102630
      0.3412870              1.0545100              0.7544830
SP   1   1.00
      0.1171670              1.0000000              1.0000000
D    1   1.00
      1.3000000              1.0000000
D    1   1.00
      0.3250000              1.0000000
F    1   1.00
      0.5500000              1.0000000
****
Cl     0
S    6   1.00
  25180.1000000              0.0018330
   3780.3500000              0.0140340
    860.4740000              0.0690970
    242.1450000              0.2374520
     77.3349000              0.4830340
     26.2470000              0.3398560
SP   6   1.00
    491.7650000             -0.0022974              0.0039894
    116.9840000             -0.0307140              0.0303180
     37.4153000             -0.1125280              0.1298800
     13.7834000              0.0450160              0.3279510
      5.4521500              0.5893530              0.4535270
      2.2258800              0.4652060              0.2521540
SP   3   1.00
      3.1864900             -0.2518300             -0.0142990
      1.1442700              0.0615890              0.3235720
      0.4203770              1.0601800              0.7435070
SP   1   1.00
      0.1426570              1.0000000              1.0000000
D    1   1.00
      1.5000000              1.0000000
D    1   1.00
      0.3750000              1.0000000
F    1   1.00
      0.7000000              1.0000000
****
}

set {
reference uhf
freeze_core true
e_convergence 10
d_convergence 10
dft_spherical_points 1202
dft_radial_points 99
}

e = energy('b3lyp')

print_out('Grab this energy {0}'.format(e))
--------------------------------------------------------------------------

    Molecular point group: c1

    Geometry (in Bohr), charge = 0, multiplicity = 2:

       Center              X                  Y                   Z               Mass
    ------------   -----------------  -----------------  -----------------  -----------------
         C           -0.323555186589    -0.000001890639    -0.000697566200    12.000000000000
         C            0.060744886111    -1.399763034839    -2.425405752000    12.000000000000
         C            0.060770046611     2.801913649461    -0.000955752500    12.000000000000
         C            0.061034473011    -1.402146124639     2.427622376800    12.000000000000
         H            2.090987196911    -1.644686772939    -2.848746674900     1.007825032230
         H           -0.765466714489    -0.390575019239    -4.024970019600     1.007825032230
         H           -0.765568736189    -3.290044062239    -2.350951955200     1.007825032230
         H            2.090920884011     3.288521348061    -0.000286022300     1.007825032230
         H           -0.765730635189     3.679989335861     1.673769576600     1.007825032230
         H           -0.765851538189     3.680011978961    -1.674530917300     1.007825032230
         H            2.091127676811    -1.643929433639     2.846862663400     1.007825032230
         H           -0.765854673589    -3.289629929439     2.348940720000     1.007825032230
         H           -0.765631784289    -0.389688395339     4.023205440100     1.007825032230

  Charge       = 0
  Multiplicity = 2
  Basis Set: ANONYMOUS0EDA869E
    Blend: 6-31G_2DFP_
  Basis Set: (ANONYMOUS0EDA869E AUX)
    Blend: DEF2-UNIVERSAL-JKFIT

    Orbital Energies [Eh]
    ---------------------

    Alpha Occupied:

       1A    -10.180401     2A    -10.167061     3A    -10.167022
       4A    -10.166971     5A     -0.797729     6A     -0.686206
       7A     -0.686159     8A     -0.530769     9A     -0.441025
      10A     -0.434799    11A     -0.434634    12A     -0.382552
      13A     -0.382371    14A     -0.363791    15A     -0.338261
      16A     -0.337844    17A     -0.168999

    Alpha Virtual:

      18A      0.076157    19A      0.134125    20A      0.134169
      21A      0.142635    22A      0.142771    23A      0.154712
      24A      0.178523    25A      0.178686    26A      0.203503
      27A      0.215076    28A      0.275736    29A      0.276186
      30A      0.399097    31A      0.399118    32A      0.403258
      33A      0.424242    34A      0.424330    35A      0.456518
      36A      0.495547    37A      0.495591    38A      0.512042
      39A      0.513827    40A      0.578609    41A      0.578674
      42A      0.591315    43A      0.591427    44A      0.601821
      45A      0.625274    46A      0.632160    47A      0.636456
      48A      0.636786    49A      0.662863    50A      0.662989
      51A      0.684081    52A      0.684125    53A      0.735056
      54A      0.825320    55A      0.825428    56A      0.853637
      57A      0.914788    58A      0.914819    59A      0.944414
      60A      0.944753    61A      0.961162    62A      0.961229
      63A      1.003264    64A      1.128282    65A      1.128432
      66A      1.141508    67A      1.163248    68A      1.163823
      69A      1.223738    70A      1.273942    71A      1.274546
      72A      1.279209    73A      1.324076    74A      1.324207
      75A      1.356510    76A      1.365821    77A      1.366130
      78A      1.392394    79A      1.402824    80A      1.403217
      81A      1.417922    82A      1.418259    83A      1.427710
      84A      1.491480    85A      1.498153    86A      1.542396
      87A      1.542530    88A      1.574618    89A      1.575002
      90A      1.671083    91A      1.738447    92A      1.738710
      93A      1.766457    94A      1.832289    95A      1.833303
      96A      1.972745    97A      2.018150    98A      2.018525
      99A      2.019583   100A      2.050733   101A      2.052088
     102A      2.738683   103A      2.738926   104A      2.790533
     105A      2.811882   106A      2.889500   107A      2.889656
     108A      2.894604   109A      2.929642   110A      2.929765
     111A      2.958863   112A      2.963879   113A      2.964038
     114A      3.033319   115A      3.071118   116A      3.071390
     117A      3.085759   118A      3.168453   119A      3.168840
     120A      3.180560   121A      3.285206   122A      3.285234
     123A      3.327608   124A      3.327972   125A      3.375781
     126A      3.489606   127A      3.490257   128A      3.512803
     129A      3.526534   130A      3.567904   131A      3.568072
     132A      3.574318   133A      3.665308   134A      3.666686
     135A      3.680272   136A      3.694209   137A      3.694438
     138A      3.777037   139A      3.777403   140A      3.788335
     141A      3.912041   142A      3.913536   143A      4.034875
     144A      4.111163   145A      4.111476   146A      4.147215
     147A      4.147798   148A      4.171470   149A      4.202554
     150A      4.203593   151A      4.204370   152A      4.209669
     153A      4.314803   154A      4.316240   155A      4.360219
     156A      4.422761   157A      4.424613   158A      4.443774
     159A      4.515518   160A      4.516857   161A      4.578942
     162A      4.578991   163A      4.617400   164A      4.708937
     165A      4.774387   166A      4.775031   167A      4.838277
     168A      4.963137   169A      5.000955   170A      5.002374
     171A      5.225326   172A      5.249608   173A      5.250013
     174A      5.353488   175A      5.353618   176A      5.481307

    Beta Occupied:

       1A    -10.167820     2A    -10.167780     3A    -10.167737
       4A    -10.166584     5A     -0.781061     6A     -0.684026
       7A     -0.683969     8A     -0.511790     9A     -0.431195
      10A     -0.431027    11A     -0.421664    12A     -0.376632
      13A     -0.376411    14A     -0.362784    15A     -0.333381
      16A     -0.332963

    Beta Virtual:

      17A     -0.025873    18A      0.077183    19A      0.135108
      20A      0.135109    21A      0.144496    22A      0.144598
      23A      0.163191    24A      0.182178    25A      0.182317
      26A      0.215298    27A      0.218884    28A      0.282098
      29A      0.282530    30A      0.400272    31A      0.400287
      32A      0.419799    33A      0.427052    34A      0.427142
      35A      0.468326    36A      0.497810    37A      0.497868
      38A      0.513785    39A      0.556133    40A      0.584182
      41A      0.584258    42A      0.597486    43A      0.597598
      44A      0.609367    45A      0.628525    46A      0.632317
      47A      0.639708    48A      0.640028    49A      0.666451
      50A      0.666590    51A      0.686716    52A      0.686736
      53A      0.757576    54A      0.830505    55A      0.830623
      56A      0.854999    57A      0.922775    58A      0.922811
      59A      0.946242    60A      0.953731    61A      0.966437
      62A      0.966498    63A      1.008465    64A      1.132354
      65A      1.132494    66A      1.154960    67A      1.168280
      68A      1.168891    69A      1.232695    70A      1.279513
      71A      1.280124    72A      1.284906    73A      1.329126
      74A      1.329229    75A      1.365907    76A      1.371163
      77A      1.371418    78A      1.393469    79A      1.406281
      80A      1.406575    81A      1.422951    82A      1.423255
      83A      1.427993    84A      1.492502    85A      1.508605
      86A      1.546826    87A      1.546977    88A      1.582468
      89A      1.582863    90A      1.675981    91A      1.744199
      92A      1.744470    93A      1.777227    94A      1.836155
      95A      1.837149    96A      1.973591    97A      2.024728
      98A      2.025836    99A      2.039569   100A      2.057579
     101A      2.058931   102A      2.747050   103A      2.747247
     104A      2.812296   105A      2.815631   106A      2.902187
     107A      2.902299   108A      2.924106   109A      2.932140
     110A      2.932233   111A      2.959922   112A      2.968373
     113A      2.968561   114A      3.041470   115A      3.081020
     116A      3.081280   117A      3.087577   118A      3.184182
     119A      3.184598   120A      3.188271   121A      3.290037
     122A      3.290063   123A      3.331385   124A      3.331733
     125A      3.383574   126A      3.492274   127A      3.492969
     128A      3.511167   129A      3.529565   130A      3.574167
     131A      3.581399   132A      3.581604   133A      3.669944
     134A      3.671373   135A      3.693540   136A      3.725818
     137A      3.726076   138A      3.781457   139A      3.781907
     140A      3.816908   141A      3.921964   142A      3.923360
     143A      4.045825   144A      4.117879   145A      4.118396
     146A      4.154512   147A      4.154903   148A      4.185553
     149A      4.209471   150A      4.210211   151A      4.210855
     152A      4.214269   153A      4.322151   154A      4.323644
     155A      4.363536   156A      4.430994   157A      4.432781
     158A      4.446633   159A      4.523347   160A      4.524676
     161A      4.589487   162A      4.589565   163A      4.624501
     164A      4.719398   165A      4.781309   166A      4.781915
     167A      4.841183   168A      4.967945   169A      5.005035
     170A      5.006425   171A      5.231006   172A      5.251386
     173A      5.251776   174A      5.359920   175A      5.360091
     176A      5.483616

    Final Occupation by Irrep:
              A
    DOCC [    16 ]
    SOCC [     1 ]

  @DF-UKS Final Energy:  -157.81305848530877

   => Energetics <=

    Nuclear Repulsion Energy =            125.3892794927127028
    One-Electron Energy =                -458.7381621563725957
    Two-Electron Energy =                 195.8428608235538775
    DFT Exchange-Correlation Energy =     -20.3070366452027571
    Empirical Dispersion Energy =           0.0000000000000000
    VV10 Nonlocal Energy =                  0.0000000000000000
    Total Energy =                       -157.8130584853087726

  UHF NO Occupations:
  HONO-2 :   15  A 1.9995985
  HONO-1 :   16  A 1.9989796
  HONO-0 :   17  A 1.0000000
  LUNO+0 :   18  A 0.0010204
  LUNO+1 :   19  A 0.0004015
  LUNO+2 :   20  A 0.0001979
  LUNO+3 :   21  A 0.0001972

Computation Completed

Properties will be evaluated at   0.000000,   0.000000,   0.000000 [a0]

Properties computed using the SCF density matrix

  Nuclear Dipole Moment: [e a0]
     X:     0.8329      Y:    -0.0000      Z:    -0.0033

  Electronic Dipole Moment: [e a0]
     X:    -0.7582      Y:     0.0000      Z:     0.0034

  Dipole Moment: [e a0]
     X:     0.0747      Y:     0.0000      Z:     0.0001     Total:     0.0747

  Dipole Moment: [D]
     X:     0.1899      Y:     0.0000      Z:     0.0002     Total:     0.1899

*** tstop() called on n059 at Fri Nov  5 13:11:14 2021
Module time:
	user time   =     512.65 seconds =       8.54 minutes
	system time =      11.35 seconds =       0.19 minutes
	total time  =        131 seconds =       2.18 minutes
Total time:
	user time   =     512.65 seconds =       8.54 minutes
	system time =      11.35 seconds =       0.19 minutes
	total time  =        131 seconds =       2.18 minutes
Grab this energy -157.81305848530877
    Psi4 stopped on: Friday, 05 November 2021 01:11PM
    Psi4 wall time for execution: 0:02:11.82

*** Psi4 exiting successfully. Buy a developer a beer!
