                               Psi4 1.4a2.dev629

  ==> Input File <==

--------------------------------------------------------------------------
import os
memory 14 GB

molecule {
 C   -0.3251196025   -0.0000022355   -0.0000000179
 C    0.0605824516   -1.3996192551   -2.4274038857
 C    0.0604627910    2.8020165430    0.0016014137
 C    0.0605826560   -1.4023930556    2.4258026429
 H    2.0872538048   -1.6416199847   -2.8419018299
 H   -0.7651826618   -0.3906138178   -4.0279011483
 H   -0.7649573333   -3.2933555125   -2.3518558660
 H    2.0871153137    3.2820670538   -0.0006237637
 H   -0.7654235092    3.6835463512    1.6756380243
 H   -0.7650354379    3.6834154113   -1.6762402261
 H    2.0872538385   -1.6405395688    2.8425255420
 H   -0.7653454902   -3.2928994076    2.3522703459
 H   -0.7647946973   -0.3900268354    4.0280887688
units bohr
0 2
}

basis {

assign 6-31g_2dfp_

[ 6-31g_2dfp_ ]

spherical

!----------------------------------------------------------------------
! Basis Set Exchange
! Version v0.8.13
! https://www.basissetexchange.org
!----------------------------------------------------------------------
!   Basis set: 6-31G(2df,p)
! Description: 6-31G(2df,p)
!        Role: orbital
!     Version: 0  (Data from the original Basis Set Exchange)
!----------------------------------------------------------------------

****
H     0
S    3   1.00
     18.7311370              0.03349460
      2.8253937              0.23472695
      0.6401217              0.81375733
S    1   1.00
      0.1612778              1.00000000
P    1   1.00
      1.5000000              1.0000000
P    1   1.00
      0.3750000              1.0000000
****
B     0
S    6   1.00
   2068.8823000              0.0018663
    310.6495700              0.0142515
     70.6830330              0.0695516
     19.8610800              0.2325729
      6.2993048              0.4670787
      2.1270270              0.3634314
SP   3   1.00
      4.7279710             -0.1303938              0.0745976
      1.1903377             -0.1307889              0.3078467
      0.3594117              1.1309444              0.7434568
SP   1   1.00
      0.1267512              1.0000000              1.0000000
D    1   1.00
      0.8020000              1.0000000
D    1   1.00
      0.2005000              1.0000000
F    1   1.00
      0.5000000              1.0000000
****
C     0
S    6   1.00
   3047.5249000              0.0018347
    457.3695100              0.0140373
    103.9486900              0.0688426
     29.2101550              0.2321844
      9.2866630              0.4679413
      3.1639270              0.3623120
SP   3   1.00
      7.8682724             -0.1193324              0.0689991
      1.8812885             -0.1608542              0.3164240
      0.5442493              1.1434564              0.7443083
SP   1   1.00
      0.1687144              1.0000000              1.0000000
D    1   1.00
      1.2520000              1.0000000
D    1   1.00
      0.3130000              1.0000000
F    1   1.00
      0.8000000              1.0000000
****
N     0
S    6   1.00
   4173.5110000              0.0018348
    627.4579000              0.0139950
    142.9021000              0.0685870
     40.2343300              0.2322410
     12.8202100              0.4690700
      4.3904370              0.3604550
SP   3   1.00
     11.6263580             -0.1149610              0.0675800
      2.7162800             -0.1691180              0.3239070
      0.7722180              1.1458520              0.7408950
SP   1   1.00
      0.2120313              1.0000000              1.0000000
D    1   1.00
      1.8260000              1.0000000
D    1   1.00
      0.4565000              1.0000000
F    1   1.00
      1.0000000              1.0000000
****
O     0
S    6   1.00
   5484.6717000              0.0018311
    825.2349500              0.0139501
    188.0469600              0.0684451
     52.9645000              0.2327143
     16.8975700              0.4701930
      5.7996353              0.3585209
SP   3   1.00
     15.5396160             -0.1107775              0.0708743
      3.5999336             -0.1480263              0.3397528
      1.0137618              1.1307670              0.7271586
SP   1   1.00
      0.2700058              1.0000000              1.0000000
D    1   1.00
      2.5840000              1.0000000
D    1   1.00
      0.6460000              1.0000000
F    1   1.00
      1.4000000              1.0000000
****
F     0
S    6   1.00
   7001.7130900              0.0018196169
   1051.3660900              0.0139160796
    239.2856900              0.0684053245
     67.3974453              0.233185760
     21.5199573              0.471267439
      7.40310130             0.356618546
SP   3   1.00
     20.8479528             -0.108506975            0.0716287243
      4.80830834            -0.146451658            0.3459121030
      1.34406986             1.128688580            0.7224699570
SP   1   1.00
      0.358151393            1.0000000              1.0000000
D    1   1.00
      3.5000000              1.0000000
D    1   1.00
      0.8750000              1.0000000
F    1   1.00
      1.8500000              1.0000000
****
Al     0
S    6   1.00
  13983.1000000              0.00194267
   2098.7500000              0.0148599
    477.7050000              0.0728494
    134.3600000              0.2468300
     42.8709000              0.4872580
     14.5189000              0.3234960
SP   6   1.00
    239.6680000             -0.00292619             0.00460285
     57.4419000             -0.0374080              0.0331990
     18.2859000             -0.1144870              0.1362820
      6.5991400              0.1156350              0.3304760
      2.4904900              0.6125950              0.4491460
      0.9445400              0.3937990              0.2657040
SP   3   1.00
      1.2779000             -0.2276060             -0.0175130
      0.3975900              0.00144583             0.2445330
      0.1600950              1.0927900              0.8049340
SP   1   1.00
      0.0556577              1.0000000              1.0000000
D    1   1.00
      0.6500000              1.0000000
D    1   1.00
      0.1625000              1.0000000
F    1   1.00
      0.2500000              1.0000000
****
Si     0
S    6   1.00
  16115.9000000              0.00195948
   2425.5800000              0.01492880
    553.8670000              0.07284780
    156.3400000              0.24613000
     50.0683000              0.48591400
     17.0178000              0.32500200
SP   6   1.00
    292.7180000             -0.00278094             0.00443826
     69.8731000             -0.03571460             0.03266790
     22.3363000             -0.11498500             0.13472100
      8.1503900              0.09356340             0.32867800
      3.1345800              0.60301700             0.44964000
      1.2254300              0.41895900             0.26137200
SP   3   1.00
      1.7273800             -0.24463000            -0.01779510
      0.5729220              0.00431572             0.25353900
      0.2221920              1.09818000             0.80066900
SP   1   1.00
      0.0778369              1.00000000             1.00000000
D    1   1.00
      0.9000000              1.0000000
D    1   1.00
      0.2250000              1.0000000
F    1   1.00
      0.3200000              1.0000000
****
P     0
S    6   1.00
  19413.3000000              0.0018516
   2909.4200000              0.0142062
    661.3640000              0.0699995
    185.7590000              0.2400790
     59.1943000              0.4847620
     20.0310000              0.3352000
SP   6   1.00
    339.4780000             -0.00278217             0.00456462
     81.0101000             -0.0360499              0.03369360
     25.8780000             -0.1166310              0.13975500
      9.4522100              0.0968328              0.33936200
      3.6656600              0.6144180              0.45092100
      1.4674600              0.4037980              0.23858600
SP   3   1.00
      2.1562300             -0.2529230             -0.01776530
      0.7489970              0.0328517              0.27405800
      0.2831450              1.0812500              0.78542100
SP   1   1.00
      0.0998317              1.0000000              1.00000000
D    1   1.00
      1.1000000              1.0000000
D    1   1.00
      0.2750000              1.0000000
F    1   1.00
      0.4500000              1.0000000
****
S     0
S    6   1.00
  21917.1000000              0.0018690
   3301.4900000              0.0142300
    754.1460000              0.0696960
    212.7110000              0.2384870
     67.9896000              0.4833070
     23.0515000              0.3380740
SP   6   1.00
    423.7350000             -0.0023767              0.0040610
    100.7100000             -0.0316930              0.0306810
     32.1599000             -0.1133170              0.1304520
     11.8079000              0.0560900              0.3272050
      4.6311000              0.5922550              0.4528510
      1.8702500              0.4550060              0.2560420
SP   3   1.00
      2.6158400             -0.2503740             -0.0145110
      0.9221670              0.0669570              0.3102630
      0.3412870              1.0545100              0.7544830
SP   1   1.00
      0.1171670              1.0000000              1.0000000
D    1   1.00
      1.3000000              1.0000000
D    1   1.00
      0.3250000              1.0000000
F    1   1.00
      0.5500000              1.0000000
****
Cl     0
S    6   1.00
  25180.1000000              0.0018330
   3780.3500000              0.0140340
    860.4740000              0.0690970
    242.1450000              0.2374520
     77.3349000              0.4830340
     26.2470000              0.3398560
SP   6   1.00
    491.7650000             -0.0022974              0.0039894
    116.9840000             -0.0307140              0.0303180
     37.4153000             -0.1125280              0.1298800
     13.7834000              0.0450160              0.3279510
      5.4521500              0.5893530              0.4535270
      2.2258800              0.4652060              0.2521540
SP   3   1.00
      3.1864900             -0.2518300             -0.0142990
      1.1442700              0.0615890              0.3235720
      0.4203770              1.0601800              0.7435070
SP   1   1.00
      0.1426570              1.0000000              1.0000000
D    1   1.00
      1.5000000              1.0000000
D    1   1.00
      0.3750000              1.0000000
F    1   1.00
      0.7000000              1.0000000
****
}

set {
reference uhf
freeze_core true
e_convergence 10
d_convergence 10
dft_spherical_points 1202
dft_radial_points 99
}

e = energy('b3lyp')

print_out('Grab this energy {0}'.format(e))
--------------------------------------------------------------------------

    Molecular point group: c1

    Geometry (in Bohr), charge = 0, multiplicity = 2:

       Center              X                  Y                   Z               Mass
    ------------   -----------------  -----------------  -----------------  -----------------
         C           -0.324454776550    -0.000002190735    -0.000000047369    12.000000000000
         C            0.061247277550    -1.399619210335    -2.427403915169    12.000000000000
         C            0.061127616950     2.802016587765     0.001601384231    12.000000000000
         C            0.061247481950    -1.402393010835     2.425802613431    12.000000000000
         H            2.087918630750    -1.641619939935    -2.841901859369     1.007825032230
         H           -0.764517835850    -0.390613773035    -4.027901177769     1.007825032230
         H           -0.764292507350    -3.293355467735    -2.351855895469     1.007825032230
         H            2.087780139650     3.282067098565    -0.000623793169     1.007825032230
         H           -0.764758683250     3.683546395965     1.675637994831     1.007825032230
         H           -0.764370611950     3.683415456065    -1.676240255569     1.007825032230
         H            2.087918664450    -1.640539524035     2.842525512531     1.007825032230
         H           -0.764680664250    -3.292899362835     2.352270316431     1.007825032230
         H           -0.764129871350    -0.390026790635     4.028088739331     1.007825032230

  Charge       = 0
  Multiplicity = 2
  Basis Set: ANONYMOUS44058009
    Blend: 6-31G_2DFP_
  Basis Set: (ANONYMOUS44058009 AUX)
    Blend: DEF2-UNIVERSAL-JKFIT

    Orbital Energies [Eh]
    ---------------------

    Alpha Occupied:

       1A    -10.180355     2A    -10.167077     3A    -10.167077
       4A    -10.167031     5A     -0.797702     6A     -0.686149
       7A     -0.686149     8A     -0.530764     9A     -0.441294
      10A     -0.434461    11A     -0.434460    12A     -0.382753
      13A     -0.382751    14A     -0.363472    15A     -0.337975
      16A     -0.337975    17A     -0.168871

    Alpha Virtual:

      18A      0.076036    19A      0.134204    20A      0.134205
      21A      0.142559    22A      0.142559    23A      0.154673
      24A      0.178816    25A      0.178817    26A      0.203413
      27A      0.214583    28A      0.275945    29A      0.275947
      30A      0.399001    31A      0.399005    32A      0.403418
      33A      0.424249    34A      0.424250    35A      0.456357
      36A      0.495412    37A      0.495413    38A      0.512341
      39A      0.513932    40A      0.578650    41A      0.578658
      42A      0.591834    43A      0.591836    44A      0.602802
      45A      0.624689    46A      0.631537    47A      0.636151
      48A      0.636155    49A      0.663135    50A      0.663135
      51A      0.683938    52A      0.683939    53A      0.734909
      54A      0.825504    55A      0.825507    56A      0.853575
      57A      0.914881    58A      0.914887    59A      0.943904
      60A      0.945409    61A      0.961562    62A      0.961579
      63A      1.002724    64A      1.127651    65A      1.127664
      66A      1.142807    67A      1.162712    68A      1.162725
      69A      1.223404    70A      1.274510    71A      1.274513
      72A      1.279138    73A      1.324074    74A      1.324077
      75A      1.356399    76A      1.365736    77A      1.365741
      78A      1.392653    79A      1.404322    80A      1.404324
      81A      1.417255    82A      1.417261    83A      1.427289
      84A      1.490859    85A      1.499437    86A      1.542761
      87A      1.542763    88A      1.575075    89A      1.575077
      90A      1.669761    91A      1.739551    92A      1.739563
      93A      1.768473    94A      1.831114    95A      1.831114
      96A      1.971633    97A      2.018202    98A      2.018206
      99A      2.018512   100A      2.052160   101A      2.052161
     102A      2.738903   103A      2.738904   104A      2.790691
     105A      2.810918   106A      2.889787   107A      2.889793
     108A      2.894690   109A      2.929037   110A      2.929045
     111A      2.958936   112A      2.964320   113A      2.964334
     114A      3.033529   115A      3.071753   116A      3.071767
     117A      3.084705   118A      3.168849   119A      3.168856
     120A      3.180428   121A      3.285717   122A      3.285717
     123A      3.326052   124A      3.326058   125A      3.375904
     126A      3.490643   127A      3.490662   128A      3.513709
     129A      3.525177   130A      3.567841   131A      3.567861
     132A      3.574339   133A      3.666428   134A      3.666436
     135A      3.678557   136A      3.694640   137A      3.694655
     138A      3.775641   139A      3.775666   140A      3.790432
     141A      3.912122   142A      3.912128   143A      4.035574
     144A      4.111250   145A      4.111254   146A      4.148355
     147A      4.148364   148A      4.173297   149A      4.202268
     150A      4.202271   151A      4.203034   152A      4.210353
     153A      4.315645   154A      4.315665   155A      4.357793
     156A      4.424958   157A      4.424960   158A      4.442433
     159A      4.516016   160A      4.516017   161A      4.577306
     162A      4.577318   163A      4.616993   164A      4.709172
     165A      4.774214   166A      4.774222   167A      4.837923
     168A      4.962346   169A      5.003054   170A      5.003066
     171A      5.227690   172A      5.246871   173A      5.246872
     174A      5.354921   175A      5.354934   176A      5.479087

    Beta Occupied:

       1A    -10.167829     2A    -10.167829     3A    -10.167803
       4A    -10.166527     5A     -0.781023     6A     -0.683954
       7A     -0.683954     8A     -0.511739     9A     -0.430840
      10A     -0.430840    11A     -0.421986    12A     -0.376848
      13A     -0.376846    14A     -0.362462    15A     -0.333095
      16A     -0.333095

    Beta Virtual:

      17A     -0.025576    18A      0.077049    19A      0.135079
      20A      0.135080    21A      0.144419    22A      0.144419
      23A      0.163083    24A      0.182494    25A      0.182495
      26A      0.214804    27A      0.218841    28A      0.282304
      29A      0.282306    30A      0.400165    31A      0.400169
      32A      0.419844    33A      0.427066    34A      0.427066
      35A      0.468187    36A      0.497658    37A      0.497659
      38A      0.514079    39A      0.556354    40A      0.584180
      41A      0.584188    42A      0.598039    43A      0.598039
      44A      0.610206    45A      0.628055    46A      0.631695
      47A      0.639445    48A      0.639449    49A      0.666675
      50A      0.666676    51A      0.686592    52A      0.686593
      53A      0.757469    54A      0.830657    55A      0.830660
      56A      0.854925    57A      0.922806    58A      0.922813
      59A      0.945742    60A      0.954256    61A      0.966895
      62A      0.966911    63A      1.007936    64A      1.131678
      65A      1.131689    66A      1.156406    67A      1.167792
      68A      1.167805    69A      1.232272    70A      1.280088
      71A      1.280092    72A      1.284825    73A      1.329025
      74A      1.329027    75A      1.365872    76A      1.370986
      77A      1.370990    78A      1.393698    79A      1.407772
      80A      1.407775    81A      1.422359    82A      1.422365
      83A      1.427555    84A      1.491934    85A      1.509886
      86A      1.547175    87A      1.547175    88A      1.582937
      89A      1.582938    90A      1.674605    91A      1.745311
      92A      1.745322    93A      1.779239    94A      1.834971
      95A      1.834972    96A      1.972486    97A      2.024576
      98A      2.024579    99A      2.039870   100A      2.058889
     101A      2.058890   102A      2.747228   103A      2.747229
     104A      2.811286   105A      2.815862   106A      2.902541
     107A      2.902547   108A      2.924414   109A      2.931502
     110A      2.931511   111A      2.959995   112A      2.968826
     113A      2.968840   114A      3.041472   115A      3.081678
     116A      3.081690   117A      3.086520   118A      3.184613
     119A      3.184618   120A      3.188083   121A      3.290538
     122A      3.290538   123A      3.329881   124A      3.329886
     125A      3.383749   126A      3.493306   127A      3.493326
     128A      3.512073   129A      3.528252   130A      3.574212
     131A      3.581238   132A      3.581259   133A      3.671268
     134A      3.671279   135A      3.691909   136A      3.726110
     137A      3.726126   138A      3.780103   139A      3.780128
     140A      3.818953   141A      3.921986   142A      3.921993
     143A      4.046407   144A      4.117977   145A      4.117979
     146A      4.155640   147A      4.155650   148A      4.187394
     149A      4.208241   150A      4.208244   151A      4.210955
     152A      4.214795   153A      4.323070   154A      4.323090
     155A      4.361132   156A      4.433169   157A      4.433172
     158A      4.445335   159A      4.523819   160A      4.523820
     161A      4.587886   162A      4.587898   163A      4.624262
     164A      4.719410   165A      4.781181   166A      4.781189
     167A      4.840836   168A      4.967144   169A      5.007077
     170A      5.007089   171A      5.233421   172A      5.248652
     173A      5.248652   174A      5.361399   175A      5.361413
     176A      5.481403

    Final Occupation by Irrep:
              A
    DOCC [    16 ]
    SOCC [     1 ]

  @DF-UKS Final Energy:  -157.81306067710676

   => Energetics <=

    Nuclear Repulsion Energy =            125.3830146653050690
    One-Electron Energy =                -458.7262370820017168
    Two-Electron Energy =                 195.8369590381535374
    DFT Exchange-Correlation Energy =     -20.3067972985636302
    Empirical Dispersion Energy =           0.0000000000000000
    VV10 Nonlocal Energy =                  0.0000000000000000
    Total Energy =                       -157.8130606771067619

  UHF NO Occupations:
  HONO-2 :   15  A 1.9996022
  HONO-1 :   16  A 1.9989785
  HONO-0 :   17  A 1.0000000
  LUNO+0 :   18  A 0.0010215
  LUNO+1 :   19  A 0.0003978
  LUNO+2 :   20  A 0.0001978
  LUNO+3 :   21  A 0.0001978

Computation Completed

Properties will be evaluated at   0.000000,   0.000000,   0.000000 [a0]

Properties computed using the SCF density matrix

  Nuclear Dipole Moment: [e a0]
     X:     0.8319      Y:    -0.0000      Z:    -0.0000

  Electronic Dipole Moment: [e a0]
     X:    -0.7535      Y:     0.0000      Z:     0.0000

  Dipole Moment: [e a0]
     X:     0.0783      Y:     0.0000      Z:    -0.0000     Total:     0.0783

  Dipole Moment: [D]
     X:     0.1991      Y:     0.0000      Z:    -0.0000     Total:     0.1991

*** tstop() called on n041 at Fri Nov  5 12:52:32 2021
Module time:
	user time   =     798.45 seconds =      13.31 minutes
	system time =      15.60 seconds =       0.26 minutes
	total time  =        207 seconds =       3.45 minutes
Total time:
	user time   =     798.45 seconds =      13.31 minutes
	system time =      15.60 seconds =       0.26 minutes
	total time  =        207 seconds =       3.45 minutes
Grab this energy -157.81306067710676
    Psi4 stopped on: Friday, 05 November 2021 12:52PM
    Psi4 wall time for execution: 0:03:26.30

*** Psi4 exiting successfully. Buy a developer a beer!
