                               Psi4 1.4a2.dev629

  ==> Input File <==

--------------------------------------------------------------------------
import os
memory 14 GB

molecule {
 C   -0.3201739095   -0.0000019787   -0.0000000190
 C    0.0624648941   -1.4000960256   -2.4266235018
 C    0.0623451513    2.8015789738    0.0007982203
 C    0.0624649679   -1.4014785735    2.4258252683
 H    2.0866047497   -1.6425950480   -2.8480025087
 H   -0.7657596538   -0.3900390677   -4.0298328662
 H   -0.7672623736   -3.2886775960   -2.3460673085
 H    2.0864659300    3.2878384157    0.0015822649
 H   -0.7660007639    3.6849309518    1.6771016161
 H   -0.7673399335    3.6760634039   -1.6750834445
 H    2.0866049373   -1.6453359852    2.8464210931
 H   -0.7659227080   -3.2948589334    2.3527371901
 H   -0.7670991647   -0.3873528508    4.0211439960
units bohr
0 2
}

basis {

assign 6-31g_2dfp_

[ 6-31g_2dfp_ ]

spherical

!----------------------------------------------------------------------
! Basis Set Exchange
! Version v0.8.13
! https://www.basissetexchange.org
!----------------------------------------------------------------------
!   Basis set: 6-31G(2df,p)
! Description: 6-31G(2df,p)
!        Role: orbital
!     Version: 0  (Data from the original Basis Set Exchange)
!----------------------------------------------------------------------

****
H     0
S    3   1.00
     18.7311370              0.03349460
      2.8253937              0.23472695
      0.6401217              0.81375733
S    1   1.00
      0.1612778              1.00000000
P    1   1.00
      1.5000000              1.0000000
P    1   1.00
      0.3750000              1.0000000
****
B     0
S    6   1.00
   2068.8823000              0.0018663
    310.6495700              0.0142515
     70.6830330              0.0695516
     19.8610800              0.2325729
      6.2993048              0.4670787
      2.1270270              0.3634314
SP   3   1.00
      4.7279710             -0.1303938              0.0745976
      1.1903377             -0.1307889              0.3078467
      0.3594117              1.1309444              0.7434568
SP   1   1.00
      0.1267512              1.0000000              1.0000000
D    1   1.00
      0.8020000              1.0000000
D    1   1.00
      0.2005000              1.0000000
F    1   1.00
      0.5000000              1.0000000
****
C     0
S    6   1.00
   3047.5249000              0.0018347
    457.3695100              0.0140373
    103.9486900              0.0688426
     29.2101550              0.2321844
      9.2866630              0.4679413
      3.1639270              0.3623120
SP   3   1.00
      7.8682724             -0.1193324              0.0689991
      1.8812885             -0.1608542              0.3164240
      0.5442493              1.1434564              0.7443083
SP   1   1.00
      0.1687144              1.0000000              1.0000000
D    1   1.00
      1.2520000              1.0000000
D    1   1.00
      0.3130000              1.0000000
F    1   1.00
      0.8000000              1.0000000
****
N     0
S    6   1.00
   4173.5110000              0.0018348
    627.4579000              0.0139950
    142.9021000              0.0685870
     40.2343300              0.2322410
     12.8202100              0.4690700
      4.3904370              0.3604550
SP   3   1.00
     11.6263580             -0.1149610              0.0675800
      2.7162800             -0.1691180              0.3239070
      0.7722180              1.1458520              0.7408950
SP   1   1.00
      0.2120313              1.0000000              1.0000000
D    1   1.00
      1.8260000              1.0000000
D    1   1.00
      0.4565000              1.0000000
F    1   1.00
      1.0000000              1.0000000
****
O     0
S    6   1.00
   5484.6717000              0.0018311
    825.2349500              0.0139501
    188.0469600              0.0684451
     52.9645000              0.2327143
     16.8975700              0.4701930
      5.7996353              0.3585209
SP   3   1.00
     15.5396160             -0.1107775              0.0708743
      3.5999336             -0.1480263              0.3397528
      1.0137618              1.1307670              0.7271586
SP   1   1.00
      0.2700058              1.0000000              1.0000000
D    1   1.00
      2.5840000              1.0000000
D    1   1.00
      0.6460000              1.0000000
F    1   1.00
      1.4000000              1.0000000
****
F     0
S    6   1.00
   7001.7130900              0.0018196169
   1051.3660900              0.0139160796
    239.2856900              0.0684053245
     67.3974453              0.233185760
     21.5199573              0.471267439
      7.40310130             0.356618546
SP   3   1.00
     20.8479528             -0.108506975            0.0716287243
      4.80830834            -0.146451658            0.3459121030
      1.34406986             1.128688580            0.7224699570
SP   1   1.00
      0.358151393            1.0000000              1.0000000
D    1   1.00
      3.5000000              1.0000000
D    1   1.00
      0.8750000              1.0000000
F    1   1.00
      1.8500000              1.0000000
****
Al     0
S    6   1.00
  13983.1000000              0.00194267
   2098.7500000              0.0148599
    477.7050000              0.0728494
    134.3600000              0.2468300
     42.8709000              0.4872580
     14.5189000              0.3234960
SP   6   1.00
    239.6680000             -0.00292619             0.00460285
     57.4419000             -0.0374080              0.0331990
     18.2859000             -0.1144870              0.1362820
      6.5991400              0.1156350              0.3304760
      2.4904900              0.6125950              0.4491460
      0.9445400              0.3937990              0.2657040
SP   3   1.00
      1.2779000             -0.2276060             -0.0175130
      0.3975900              0.00144583             0.2445330
      0.1600950              1.0927900              0.8049340
SP   1   1.00
      0.0556577              1.0000000              1.0000000
D    1   1.00
      0.6500000              1.0000000
D    1   1.00
      0.1625000              1.0000000
F    1   1.00
      0.2500000              1.0000000
****
Si     0
S    6   1.00
  16115.9000000              0.00195948
   2425.5800000              0.01492880
    553.8670000              0.07284780
    156.3400000              0.24613000
     50.0683000              0.48591400
     17.0178000              0.32500200
SP   6   1.00
    292.7180000             -0.00278094             0.00443826
     69.8731000             -0.03571460             0.03266790
     22.3363000             -0.11498500             0.13472100
      8.1503900              0.09356340             0.32867800
      3.1345800              0.60301700             0.44964000
      1.2254300              0.41895900             0.26137200
SP   3   1.00
      1.7273800             -0.24463000            -0.01779510
      0.5729220              0.00431572             0.25353900
      0.2221920              1.09818000             0.80066900
SP   1   1.00
      0.0778369              1.00000000             1.00000000
D    1   1.00
      0.9000000              1.0000000
D    1   1.00
      0.2250000              1.0000000
F    1   1.00
      0.3200000              1.0000000
****
P     0
S    6   1.00
  19413.3000000              0.0018516
   2909.4200000              0.0142062
    661.3640000              0.0699995
    185.7590000              0.2400790
     59.1943000              0.4847620
     20.0310000              0.3352000
SP   6   1.00
    339.4780000             -0.00278217             0.00456462
     81.0101000             -0.0360499              0.03369360
     25.8780000             -0.1166310              0.13975500
      9.4522100              0.0968328              0.33936200
      3.6656600              0.6144180              0.45092100
      1.4674600              0.4037980              0.23858600
SP   3   1.00
      2.1562300             -0.2529230             -0.01776530
      0.7489970              0.0328517              0.27405800
      0.2831450              1.0812500              0.78542100
SP   1   1.00
      0.0998317              1.0000000              1.00000000
D    1   1.00
      1.1000000              1.0000000
D    1   1.00
      0.2750000              1.0000000
F    1   1.00
      0.4500000              1.0000000
****
S     0
S    6   1.00
  21917.1000000              0.0018690
   3301.4900000              0.0142300
    754.1460000              0.0696960
    212.7110000              0.2384870
     67.9896000              0.4833070
     23.0515000              0.3380740
SP   6   1.00
    423.7350000             -0.0023767              0.0040610
    100.7100000             -0.0316930              0.0306810
     32.1599000             -0.1133170              0.1304520
     11.8079000              0.0560900              0.3272050
      4.6311000              0.5922550              0.4528510
      1.8702500              0.4550060              0.2560420
SP   3   1.00
      2.6158400             -0.2503740             -0.0145110
      0.9221670              0.0669570              0.3102630
      0.3412870              1.0545100              0.7544830
SP   1   1.00
      0.1171670              1.0000000              1.0000000
D    1   1.00
      1.3000000              1.0000000
D    1   1.00
      0.3250000              1.0000000
F    1   1.00
      0.5500000              1.0000000
****
Cl     0
S    6   1.00
  25180.1000000              0.0018330
   3780.3500000              0.0140340
    860.4740000              0.0690970
    242.1450000              0.2374520
     77.3349000              0.4830340
     26.2470000              0.3398560
SP   6   1.00
    491.7650000             -0.0022974              0.0039894
    116.9840000             -0.0307140              0.0303180
     37.4153000             -0.1125280              0.1298800
     13.7834000              0.0450160              0.3279510
      5.4521500              0.5893530              0.4535270
      2.2258800              0.4652060              0.2521540
SP   3   1.00
      3.1864900             -0.2518300             -0.0142990
      1.1442700              0.0615890              0.3235720
      0.4203770              1.0601800              0.7435070
SP   1   1.00
      0.1426570              1.0000000              1.0000000
D    1   1.00
      1.5000000              1.0000000
D    1   1.00
      0.3750000              1.0000000
F    1   1.00
      0.7000000              1.0000000
****
}

set {
reference uhf
freeze_core true
e_convergence 10
d_convergence 10
dft_spherical_points 1202
dft_radial_points 99
}

e = energy('b3lyp')

print_out('Grab this energy {0}'.format(e))
--------------------------------------------------------------------------

    Molecular point group: c1

    Geometry (in Bohr), charge = 0, multiplicity = 2:

       Center              X                  Y                   Z               Mass
    ------------   -----------------  -----------------  -----------------  -----------------
         C           -0.321549334607    -0.000002010823    -0.000000012800    12.000000000000
         C            0.061089468993    -1.400096057723    -2.426623495600    12.000000000000
         C            0.060969726193     2.801578941677     0.000798226500    12.000000000000
         C            0.061089542793    -1.401478605623     2.425825274500    12.000000000000
         H            2.085229324593    -1.642595080123    -2.848002502500     1.007825032230
         H           -0.767135078907    -0.390039099823    -4.029832860000     1.007825032230
         H           -0.768637798707    -3.288677628123    -2.346067302300     1.007825032230
         H            2.085090504893     3.287838383577     0.001582271100     1.007825032230
         H           -0.767376189007     3.684930919677     1.677101622300     1.007825032230
         H           -0.768715358607     3.676063371777    -1.675083438300     1.007825032230
         H            2.085229512193    -1.645336017323     2.846421099300     1.007825032230
         H           -0.767298133107    -3.294858965523     2.352737196300     1.007825032230
         H           -0.768474589807    -0.387352882923     4.021144002200     1.007825032230

  Charge       = 0
  Multiplicity = 2
  Basis Set: ANONYMOUSD803E6CF
    Blend: 6-31G_2DFP_
  Basis Set: (ANONYMOUSD803E6CF AUX)
    Blend: DEF2-UNIVERSAL-JKFIT

    Orbital Energies [Eh]
    ---------------------

    Alpha Occupied:

       1A    -10.180229     2A    -10.167007     3A    -10.167006
       4A    -10.166961     5A     -0.797820     6A     -0.686200
       7A     -0.686199     8A     -0.530754     9A     -0.441359
      10A     -0.434527    11A     -0.434527    12A     -0.382847
      13A     -0.382845    14A     -0.363328    15A     -0.337949
      16A     -0.337949    17A     -0.168846

    Alpha Virtual:

      18A      0.076056    19A      0.134145    20A      0.134146
      21A      0.142548    22A      0.142548    23A      0.154944
      24A      0.178884    25A      0.178884    26A      0.203575
      27A      0.214687    28A      0.276122    29A      0.276124
      30A      0.399245    31A      0.399249    32A      0.403382
      33A      0.424104    34A      0.424104    35A      0.456597
      36A      0.495339    37A      0.495339    38A      0.512264
      39A      0.513976    40A      0.578722    41A      0.578731
      42A      0.591939    43A      0.591941    44A      0.602881
      45A      0.624546    46A      0.631713    47A      0.636114
      48A      0.636118    49A      0.663583    50A      0.663583
      51A      0.683828    52A      0.683829    53A      0.735121
      54A      0.825579    55A      0.825582    56A      0.853869
      57A      0.915189    58A      0.915195    59A      0.944114
      60A      0.944731    61A      0.961192    62A      0.961208
      63A      1.002588    64A      1.127861    65A      1.127874
      66A      1.142589    67A      1.163420    68A      1.163432
      69A      1.223743    70A      1.274781    71A      1.274785
      72A      1.279498    73A      1.324239    74A      1.324241
      75A      1.357010    76A      1.365699    77A      1.365703
      78A      1.392386    79A      1.404649    80A      1.404651
      81A      1.417736    82A      1.417742    83A      1.428099
      84A      1.491030    85A      1.499587    86A      1.542426
      87A      1.542428    88A      1.574373    89A      1.574374
      90A      1.669298    91A      1.739628    92A      1.739640
      93A      1.768528    94A      1.831072    95A      1.831072
      96A      1.971169    97A      2.018579    98A      2.019344
      99A      2.019348   100A      2.053016   101A      2.053017
     102A      2.738816   103A      2.738816   104A      2.791142
     105A      2.811153   106A      2.890129   107A      2.890135
     108A      2.894902   109A      2.929344   110A      2.929353
     111A      2.958833   112A      2.964400   113A      2.964414
     114A      3.034055   115A      3.071899   116A      3.071913
     117A      3.084284   118A      3.168798   119A      3.168806
     120A      3.180387   121A      3.284951   122A      3.284951
     123A      3.326246   124A      3.326251   125A      3.375912
     126A      3.490331   127A      3.490351   128A      3.514382
     129A      3.525265   130A      3.568798   131A      3.568818
     132A      3.575603   133A      3.666395   134A      3.666403
     135A      3.678620   136A      3.694387   137A      3.694403
     138A      3.777689   139A      3.777715   140A      3.790435
     141A      3.912134   142A      3.912140   143A      4.035634
     144A      4.110996   145A      4.111000   146A      4.147894
     147A      4.147902   148A      4.173361   149A      4.203034
     150A      4.203381   151A      4.203385   152A      4.210954
     153A      4.316156   154A      4.316175   155A      4.358842
     156A      4.425064   157A      4.425066   158A      4.442567
     159A      4.516716   160A      4.516718   161A      4.578172
     162A      4.578185   163A      4.618372   164A      4.709876
     165A      4.774836   166A      4.774844   167A      4.837147
     168A      4.962821   169A      5.003652   170A      5.003664
     171A      5.228124   172A      5.246798   173A      5.246799
     174A      5.355055   175A      5.355068   176A      5.479860

    Beta Occupied:

       1A    -10.167760     2A    -10.167760     3A    -10.167734
       4A    -10.166405     5A     -0.781129     6A     -0.683998
       7A     -0.683998     8A     -0.511720     9A     -0.430887
      10A     -0.430886    11A     -0.422065    12A     -0.376944
      13A     -0.376942    14A     -0.362311    15A     -0.333075
      16A     -0.333075

    Beta Virtual:

      17A     -0.025595    18A      0.077064    19A      0.135003
      20A      0.135004    21A      0.144427    22A      0.144428
      23A      0.163372    24A      0.182565    25A      0.182566
      26A      0.214857    27A      0.219043    28A      0.282458
      29A      0.282461    30A      0.400410    31A      0.400414
      32A      0.419770    33A      0.426918    34A      0.426919
      35A      0.468569    36A      0.497599    37A      0.497600
      38A      0.513996    39A      0.556369    40A      0.584281
      41A      0.584289    42A      0.598102    43A      0.598103
      44A      0.610277    45A      0.627898    46A      0.631925
      47A      0.639418    48A      0.639422    49A      0.667119
      50A      0.667120    51A      0.686465    52A      0.686467
      53A      0.757638    54A      0.830727    55A      0.830730
      56A      0.855220    57A      0.923155    58A      0.923162
      59A      0.946042    60A      0.953604    61A      0.966516
      62A      0.966532    63A      1.007778    64A      1.131994
      65A      1.132005    66A      1.155958    67A      1.168434
      68A      1.168446    69A      1.232722    70A      1.280360
      71A      1.280364    72A      1.285259    73A      1.329171
      74A      1.329173    75A      1.366442    76A      1.370937
      77A      1.370941    78A      1.393434    79A      1.408138
      80A      1.408141    81A      1.422796    82A      1.422803
      83A      1.428386    84A      1.492075    85A      1.510050
      86A      1.546731    87A      1.546732    88A      1.582343
      89A      1.582344    90A      1.674160    91A      1.745381
      92A      1.745392    93A      1.779303    94A      1.834934
      95A      1.834934    96A      1.972032    97A      2.025785
      98A      2.025788    99A      2.039928   100A      2.059706
     101A      2.059707   102A      2.747148   103A      2.747150
     104A      2.811556   105A      2.816338   106A      2.902803
     107A      2.902809   108A      2.924694   109A      2.931849
     110A      2.931858   111A      2.959899   112A      2.968930
     113A      2.968944   114A      3.041950   115A      3.081785
     116A      3.081797   117A      3.086094   118A      3.184631
     119A      3.184636   120A      3.187997   121A      3.289792
     122A      3.289793   123A      3.330035   124A      3.330040
     125A      3.383767   126A      3.493054   127A      3.493074
     128A      3.512770   129A      3.528322   130A      3.575473
     131A      3.582062   132A      3.582084   133A      3.671210
     134A      3.671221   135A      3.691932   136A      3.725995
     137A      3.726011   138A      3.782178   139A      3.782204
     140A      3.818955   141A      3.921947   142A      3.921955
     143A      4.046510   144A      4.117835   145A      4.117837
     146A      4.155084   147A      4.155093   148A      4.187392
     149A      4.209324   150A      4.209327   151A      4.211008
     152A      4.215399   153A      4.323608   154A      4.323628
     155A      4.362192   156A      4.433221   157A      4.433224
     158A      4.445477   159A      4.524505   160A      4.524507
     161A      4.588798   162A      4.588810   163A      4.625639
     164A      4.720127   165A      4.781813   166A      4.781820
     167A      4.840070   168A      4.967598   169A      5.007679
     170A      5.007691   171A      5.233871   172A      5.248592
     173A      5.248593   174A      5.361552   175A      5.361566
     176A      5.482182

    Final Occupation by Irrep:
              A
    DOCC [    16 ]
    SOCC [     1 ]

  @DF-UKS Final Energy:  -157.81306994420891

   => Energetics <=

    Nuclear Repulsion Energy =            125.4033564743685218
    One-Electron Energy =                -458.7664695065259366
    Two-Electron Energy =                 195.8574411571684948
    DFT Exchange-Correlation Energy =     -20.3073980692199996
    Empirical Dispersion Energy =           0.0000000000000000
    VV10 Nonlocal Energy =                  0.0000000000000000
    Total Energy =                       -157.8130699442089053

  UHF NO Occupations:
  HONO-2 :   15  A 1.9996019
  HONO-1 :   16  A 1.9989796
  HONO-0 :   17  A 1.0000000
  LUNO+0 :   18  A 0.0010204
  LUNO+1 :   19  A 0.0003981
  LUNO+2 :   20  A 0.0001975
  LUNO+3 :   21  A 0.0001975

Computation Completed

Properties will be evaluated at   0.000000,   0.000000,   0.000000 [a0]

Properties computed using the SCF density matrix

  Nuclear Dipole Moment: [e a0]
     X:     0.8175      Y:    -0.0000      Z:     0.0000

  Electronic Dipole Moment: [e a0]
     X:    -0.7395      Y:     0.0000      Z:    -0.0000

  Dipole Moment: [e a0]
     X:     0.0780      Y:     0.0000      Z:    -0.0000     Total:     0.0780

  Dipole Moment: [D]
     X:     0.1984      Y:     0.0000      Z:    -0.0000     Total:     0.1984

*** tstop() called on n091 at Fri Nov  5 13:36:14 2021
Module time:
	user time   =     462.88 seconds =       7.71 minutes
	system time =       4.50 seconds =       0.07 minutes
	total time  =        117 seconds =       1.95 minutes
Total time:
	user time   =     462.88 seconds =       7.71 minutes
	system time =       4.50 seconds =       0.07 minutes
	total time  =        117 seconds =       1.95 minutes
Grab this energy -157.8130699442089
    Psi4 stopped on: Friday, 05 November 2021 01:36PM
    Psi4 wall time for execution: 0:01:57.57

*** Psi4 exiting successfully. Buy a developer a beer!
