                               Psi4 1.4a2.dev629

  ==> Input File <==

--------------------------------------------------------------------------
import os
memory 14 GB

molecule {
 C   -0.3265727306   -0.0000022750   -0.0000000000
 C    0.0614383706   -1.4009577638   -2.4265194913
 C    0.0613186150    2.8019198341   -0.0000000000
 C    0.0614383706   -1.4009577638    2.4265194913
 H    2.0872055468   -1.6411014087   -2.8422511313
 H   -0.7651502714   -0.3903694246   -4.0279659087
 H   -0.7653129880   -3.2930777491   -2.3520910947
 H    2.0870670370    3.2821102966    0.0000000000
 H   -0.7653910570    3.6834802615    1.6758820804
 H   -0.7653910570    3.6834802615   -1.6758820804
 H    2.0872055468   -1.6411014087    2.8422511313
 H   -0.7653129880   -3.2930777491    2.3520910947
 H   -0.7651502714   -0.3903694246    4.0279659087
units bohr
0 2
}

basis {

assign 6-31g_2dfp_

[ 6-31g_2dfp_ ]

spherical

!----------------------------------------------------------------------
! Basis Set Exchange
! Version v0.8.13
! https://www.basissetexchange.org
!----------------------------------------------------------------------
!   Basis set: 6-31G(2df,p)
! Description: 6-31G(2df,p)
!        Role: orbital
!     Version: 0  (Data from the original Basis Set Exchange)
!----------------------------------------------------------------------

****
H     0
S    3   1.00
     18.7311370              0.03349460
      2.8253937              0.23472695
      0.6401217              0.81375733
S    1   1.00
      0.1612778              1.00000000
P    1   1.00
      1.5000000              1.0000000
P    1   1.00
      0.3750000              1.0000000
****
B     0
S    6   1.00
   2068.8823000              0.0018663
    310.6495700              0.0142515
     70.6830330              0.0695516
     19.8610800              0.2325729
      6.2993048              0.4670787
      2.1270270              0.3634314
SP   3   1.00
      4.7279710             -0.1303938              0.0745976
      1.1903377             -0.1307889              0.3078467
      0.3594117              1.1309444              0.7434568
SP   1   1.00
      0.1267512              1.0000000              1.0000000
D    1   1.00
      0.8020000              1.0000000
D    1   1.00
      0.2005000              1.0000000
F    1   1.00
      0.5000000              1.0000000
****
C     0
S    6   1.00
   3047.5249000              0.0018347
    457.3695100              0.0140373
    103.9486900              0.0688426
     29.2101550              0.2321844
      9.2866630              0.4679413
      3.1639270              0.3623120
SP   3   1.00
      7.8682724             -0.1193324              0.0689991
      1.8812885             -0.1608542              0.3164240
      0.5442493              1.1434564              0.7443083
SP   1   1.00
      0.1687144              1.0000000              1.0000000
D    1   1.00
      1.2520000              1.0000000
D    1   1.00
      0.3130000              1.0000000
F    1   1.00
      0.8000000              1.0000000
****
N     0
S    6   1.00
   4173.5110000              0.0018348
    627.4579000              0.0139950
    142.9021000              0.0685870
     40.2343300              0.2322410
     12.8202100              0.4690700
      4.3904370              0.3604550
SP   3   1.00
     11.6263580             -0.1149610              0.0675800
      2.7162800             -0.1691180              0.3239070
      0.7722180              1.1458520              0.7408950
SP   1   1.00
      0.2120313              1.0000000              1.0000000
D    1   1.00
      1.8260000              1.0000000
D    1   1.00
      0.4565000              1.0000000
F    1   1.00
      1.0000000              1.0000000
****
O     0
S    6   1.00
   5484.6717000              0.0018311
    825.2349500              0.0139501
    188.0469600              0.0684451
     52.9645000              0.2327143
     16.8975700              0.4701930
      5.7996353              0.3585209
SP   3   1.00
     15.5396160             -0.1107775              0.0708743
      3.5999336             -0.1480263              0.3397528
      1.0137618              1.1307670              0.7271586
SP   1   1.00
      0.2700058              1.0000000              1.0000000
D    1   1.00
      2.5840000              1.0000000
D    1   1.00
      0.6460000              1.0000000
F    1   1.00
      1.4000000              1.0000000
****
F     0
S    6   1.00
   7001.7130900              0.0018196169
   1051.3660900              0.0139160796
    239.2856900              0.0684053245
     67.3974453              0.233185760
     21.5199573              0.471267439
      7.40310130             0.356618546
SP   3   1.00
     20.8479528             -0.108506975            0.0716287243
      4.80830834            -0.146451658            0.3459121030
      1.34406986             1.128688580            0.7224699570
SP   1   1.00
      0.358151393            1.0000000              1.0000000
D    1   1.00
      3.5000000              1.0000000
D    1   1.00
      0.8750000              1.0000000
F    1   1.00
      1.8500000              1.0000000
****
Al     0
S    6   1.00
  13983.1000000              0.00194267
   2098.7500000              0.0148599
    477.7050000              0.0728494
    134.3600000              0.2468300
     42.8709000              0.4872580
     14.5189000              0.3234960
SP   6   1.00
    239.6680000             -0.00292619             0.00460285
     57.4419000             -0.0374080              0.0331990
     18.2859000             -0.1144870              0.1362820
      6.5991400              0.1156350              0.3304760
      2.4904900              0.6125950              0.4491460
      0.9445400              0.3937990              0.2657040
SP   3   1.00
      1.2779000             -0.2276060             -0.0175130
      0.3975900              0.00144583             0.2445330
      0.1600950              1.0927900              0.8049340
SP   1   1.00
      0.0556577              1.0000000              1.0000000
D    1   1.00
      0.6500000              1.0000000
D    1   1.00
      0.1625000              1.0000000
F    1   1.00
      0.2500000              1.0000000
****
Si     0
S    6   1.00
  16115.9000000              0.00195948
   2425.5800000              0.01492880
    553.8670000              0.07284780
    156.3400000              0.24613000
     50.0683000              0.48591400
     17.0178000              0.32500200
SP   6   1.00
    292.7180000             -0.00278094             0.00443826
     69.8731000             -0.03571460             0.03266790
     22.3363000             -0.11498500             0.13472100
      8.1503900              0.09356340             0.32867800
      3.1345800              0.60301700             0.44964000
      1.2254300              0.41895900             0.26137200
SP   3   1.00
      1.7273800             -0.24463000            -0.01779510
      0.5729220              0.00431572             0.25353900
      0.2221920              1.09818000             0.80066900
SP   1   1.00
      0.0778369              1.00000000             1.00000000
D    1   1.00
      0.9000000              1.0000000
D    1   1.00
      0.2250000              1.0000000
F    1   1.00
      0.3200000              1.0000000
****
P     0
S    6   1.00
  19413.3000000              0.0018516
   2909.4200000              0.0142062
    661.3640000              0.0699995
    185.7590000              0.2400790
     59.1943000              0.4847620
     20.0310000              0.3352000
SP   6   1.00
    339.4780000             -0.00278217             0.00456462
     81.0101000             -0.0360499              0.03369360
     25.8780000             -0.1166310              0.13975500
      9.4522100              0.0968328              0.33936200
      3.6656600              0.6144180              0.45092100
      1.4674600              0.4037980              0.23858600
SP   3   1.00
      2.1562300             -0.2529230             -0.01776530
      0.7489970              0.0328517              0.27405800
      0.2831450              1.0812500              0.78542100
SP   1   1.00
      0.0998317              1.0000000              1.00000000
D    1   1.00
      1.1000000              1.0000000
D    1   1.00
      0.2750000              1.0000000
F    1   1.00
      0.4500000              1.0000000
****
S     0
S    6   1.00
  21917.1000000              0.0018690
   3301.4900000              0.0142300
    754.1460000              0.0696960
    212.7110000              0.2384870
     67.9896000              0.4833070
     23.0515000              0.3380740
SP   6   1.00
    423.7350000             -0.0023767              0.0040610
    100.7100000             -0.0316930              0.0306810
     32.1599000             -0.1133170              0.1304520
     11.8079000              0.0560900              0.3272050
      4.6311000              0.5922550              0.4528510
      1.8702500              0.4550060              0.2560420
SP   3   1.00
      2.6158400             -0.2503740             -0.0145110
      0.9221670              0.0669570              0.3102630
      0.3412870              1.0545100              0.7544830
SP   1   1.00
      0.1171670              1.0000000              1.0000000
D    1   1.00
      1.3000000              1.0000000
D    1   1.00
      0.3250000              1.0000000
F    1   1.00
      0.5500000              1.0000000
****
Cl     0
S    6   1.00
  25180.1000000              0.0018330
   3780.3500000              0.0140340
    860.4740000              0.0690970
    242.1450000              0.2374520
     77.3349000              0.4830340
     26.2470000              0.3398560
SP   6   1.00
    491.7650000             -0.0022974              0.0039894
    116.9840000             -0.0307140              0.0303180
     37.4153000             -0.1125280              0.1298800
     13.7834000              0.0450160              0.3279510
      5.4521500              0.5893530              0.4535270
      2.2258800              0.4652060              0.2521540
SP   3   1.00
      3.1864900             -0.2518300             -0.0142990
      1.1442700              0.0615890              0.3235720
      0.4203770              1.0601800              0.7435070
SP   1   1.00
      0.1426570              1.0000000              1.0000000
D    1   1.00
      1.5000000              1.0000000
D    1   1.00
      0.3750000              1.0000000
F    1   1.00
      0.7000000              1.0000000
****
}

set {
reference uhf
freeze_core true
e_convergence 10
d_convergence 10
dft_spherical_points 1202
dft_radial_points 99
}

e = energy('b3lyp')

print_out('Grab this energy {0}'.format(e))
--------------------------------------------------------------------------

    Molecular point group: cs

    Geometry (in Bohr), charge = 0, multiplicity = 2:

       Center              X                  Y                   Z               Mass
    ------------   -----------------  -----------------  -----------------  -----------------
         C           -0.326122532538    -0.000002236918     0.000000000000    12.000000000000
         C            0.061888568662    -1.400957725718    -2.426519491300    12.000000000000
         C            0.061768813062     2.801919872182     0.000000000000    12.000000000000
         C            0.061888568662    -1.400957725718     2.426519491300    12.000000000000
         H            2.087655744862    -1.641101370618    -2.842251131300     1.007825032230
         H           -0.764700073338    -0.390369386518    -4.027965908700     1.007825032230
         H           -0.764862789938    -3.293077711018    -2.352091094700     1.007825032230
         H            2.087517235062     3.282110334682     0.000000000000     1.007825032230
         H           -0.764940858938     3.683480299582     1.675882080400     1.007825032230
         H           -0.764940858938     3.683480299582    -1.675882080400     1.007825032230
         H            2.087655744862    -1.641101370618     2.842251131300     1.007825032230
         H           -0.764862789938    -3.293077711018     2.352091094700     1.007825032230
         H           -0.764700073338    -0.390369386518     4.027965908700     1.007825032230

  Charge       = 0
  Multiplicity = 2
  Basis Set: ANONYMOUS2B96480B
    Blend: 6-31G_2DFP_
  Basis Set: (ANONYMOUS2B96480B AUX)
    Blend: DEF2-UNIVERSAL-JKFIT

    Orbital Energies [Eh]
    ---------------------

    Alpha Occupied:

       1Ap   -10.180420     2Ap   -10.167069     1App  -10.167068
       3Ap   -10.167023     4Ap    -0.797686     5Ap    -0.686132
       2App   -0.686131     6Ap    -0.530770     7Ap    -0.441350
       3App   -0.434397     8Ap    -0.434396     9Ap    -0.382859
       4App   -0.382858     5App   -0.363347     6App   -0.337885
      10Ap    -0.337885    11Ap    -0.169055

    Alpha Virtual:

      12Ap     0.076040    13Ap     0.134201     7App    0.134202
      14Ap     0.142536     8App    0.142536    15Ap     0.154752
      16Ap     0.178885     9App    0.178885    17Ap     0.203441
      10App    0.214534    11App    0.275773    18Ap     0.275774
      19Ap     0.398981    12App    0.398985    20Ap     0.403337
      13App    0.424220    21Ap     0.424221    22Ap     0.456451
      23Ap     0.495388    14App    0.495389    15App    0.512395
      24Ap     0.513824    25Ap     0.578775    16App    0.578783
      17App    0.591864    26Ap     0.591865    27Ap     0.603021
      28Ap     0.624620    18App    0.631465    19App    0.635993
      29Ap     0.635997    30Ap     0.663294    20App    0.663294
      31Ap     0.683825    21App    0.683827    32Ap     0.734713
      22App    0.825450    33Ap     0.825453    23App    0.853577
      24App    0.914817    34Ap     0.914823    25App    0.943953
      35Ap     0.945458    26App    0.961578    36Ap     0.961595
      37Ap     1.002726    38Ap     1.127749    27App    1.127761
      39Ap     1.142823    40Ap     1.163143    28App    1.163156
      41Ap     1.223245    42Ap     1.274448    29App    1.274451
      43Ap     1.279377    30App    1.323829    44Ap     1.323831
      45Ap     1.356645    31App    1.365354    46Ap     1.365358
      32App    1.392650    47Ap     1.404374    33App    1.404376
      34App    1.417486    48Ap     1.417492    35App    1.427347
      36App    1.490713    49Ap     1.499784    37App    1.542815
      50Ap     1.542817    51Ap     1.574784    38App    1.574786
      52Ap     1.669492    53Ap     1.739305    39App    1.739316
      54Ap     1.768517    40App    1.830731    55Ap     1.830731
      41App    1.971369    56Ap     2.017507    57Ap     2.018497
      42App    2.018500    58Ap     2.052552    43App    2.052552
      44App    2.738706    59Ap     2.738707    60Ap     2.790892
      45App    2.810879    61Ap     2.889540    46App    2.889546
      62Ap     2.895010    63Ap     2.929056    47App    2.929065
      48App    2.958868    64Ap     2.964205    49App    2.964219
      65Ap     3.033886    50App    3.070911    66Ap     3.070925
      51App    3.084636    67Ap     3.168966    52App    3.168973
      68Ap     3.180389    53App    3.286514    69Ap     3.286515
      70Ap     3.326411    54App    3.326417    71Ap     3.376071
      55App    3.490414    72Ap     3.490434    56App    3.513560
      73Ap     3.525621    57App    3.567552    74Ap     3.567573
      58App    3.574948    75Ap     3.665870    59App    3.665879
      76Ap     3.678336    60App    3.694699    77Ap     3.694715
      78Ap     3.775354    61App    3.775380    79Ap     3.789159
      80Ap     3.912099    62App    3.912105    81Ap     4.035262
      82Ap     4.111013    63App    4.111017    83Ap     4.148329
      64App    4.148337    84Ap     4.173254    65App    4.202544
      85Ap     4.202547    86Ap     4.202674    66App    4.210401
      87Ap     4.315843    67App    4.315862    68App    4.358276
      88Ap     4.424793    69App    4.424795    70App    4.442186
      71App    4.516314    89Ap     4.516316    72App    4.577420
      90Ap     4.577432    91Ap     4.616508    92Ap     4.709484
      93Ap     4.774062    73App    4.774070    74App    4.836714
      94Ap     4.962444    75App    5.003199    95Ap     5.003211
      96Ap     5.227586    76App    5.246755    97Ap     5.246755
      98Ap     5.354649    77App    5.354662    78App    5.478717

    Beta Occupied:

       1Ap   -10.167818     1App  -10.167818     2Ap   -10.167793
       3Ap   -10.166588     4Ap    -0.781012     5Ap    -0.683934
       2App   -0.683934     6Ap    -0.511736     3App   -0.430765
       7Ap    -0.430765     8Ap    -0.422073     9Ap    -0.376965
       4App   -0.376964     5App   -0.362336     6App   -0.333008
      10Ap    -0.333007

    Beta Virtual:

      11Ap    -0.025678    12Ap     0.077048    13Ap     0.135066
       7App    0.135066    14Ap     0.144398     8App    0.144399
      15Ap     0.163152    16Ap     0.182564     9App    0.182565
      10App    0.214761    17Ap     0.218841    11App    0.282144
      18Ap     0.282146    19Ap     0.400145    12App    0.400149
      20Ap     0.419737    13App    0.427039    21Ap     0.427040
      22Ap     0.468295    23Ap     0.497638    14App    0.497639
      15App    0.514121    24Ap     0.556254    25Ap     0.584292
      16App    0.584300    17App    0.598074    26Ap     0.598075
      27Ap     0.610398    28Ap     0.628016    18App    0.631616
      19App    0.639292    29Ap     0.639296    30Ap     0.666837
      20App    0.666837    31Ap     0.686474    21App    0.686475
      32Ap     0.757293    22App    0.830607    33Ap     0.830609
      23App    0.854923    24App    0.922753    34Ap     0.922759
      25App    0.945786    35Ap     0.954298    26App    0.966878
      36Ap     0.966894    37Ap     1.007957    38Ap     1.131783
      27App    1.131794    39Ap     1.156392    40Ap     1.168220
      28App    1.168233    41Ap     1.232109    42Ap     1.280042
      29App    1.280046    43Ap     1.285073    30App    1.328788
      44Ap     1.328790    45Ap     1.366097    31App    1.370600
      46Ap     1.370604    32App    1.393684    47Ap     1.407823
      33App    1.407825    34App    1.422569    48Ap     1.422575
      35App    1.427617    36App    1.491771    49Ap     1.510257
      50Ap     1.547228    37App    1.547228    38App    1.582647
      51Ap     1.582647    52Ap     1.674352    53Ap     1.745063
      39App    1.745074    54Ap     1.779263    40App    1.834579
      55Ap     1.834580    41App    1.972219    56Ap     2.024865
      42App    2.024868    57Ap     2.038874    58Ap     2.059300
      43App    2.059301    44App    2.747031    59Ap     2.747032
      45App    2.811294    60Ap     2.816004    61Ap     2.902340
      46App    2.902346    62Ap     2.924718    63Ap     2.931508
      47App    2.931517    48App    2.959926    64Ap     2.968722
      49App    2.968736    65Ap     3.041789    50App    3.080875
      66Ap     3.080886    51App    3.086445    67Ap     3.184631
      52App    3.184636    68Ap     3.188095    69Ap     3.291294
      53App    3.291294    70Ap     3.330250    54App    3.330256
      71Ap     3.383926    55App    3.493096    72Ap     3.493116
      56App    3.511921    73Ap     3.528712    57App    3.574824
      58App    3.580992    74Ap     3.581014    75Ap     3.670686
      59App    3.670698    76Ap     3.691684    60App    3.726182
      77Ap     3.726198    78Ap     3.779856    61App    3.779882
      79Ap     3.817671    80Ap     3.921925    62App    3.921932
      81Ap     4.046125    82Ap     4.117727    63App    4.117728
      83Ap     4.155626    64App    4.155635    84Ap     4.187311
      65App    4.208519    85Ap     4.208522    86Ap     4.210609
      66App    4.214818    87Ap     4.323288    67App    4.323308
      68App    4.361615    88Ap     4.432963    69App    4.432965
      70App    4.445091    71App    4.524100    89Ap     4.524102
      72App    4.588035    90Ap     4.588047    91Ap     4.623768
      92Ap     4.719748    93Ap     4.781044    73App    4.781052
      74App    4.839638    94Ap     4.967239    75App    5.007208
      95Ap     5.007221    96Ap     5.233318    76App    5.248535
      97Ap     5.248535    98Ap     5.361136    77App    5.361149
      78App    5.481039

    Final Occupation by Irrep:
             Ap   App
    DOCC [    10,    6 ]
    SOCC [     1,    0 ]

  @DF-UKS Final Energy:  -157.81305445132091

   => Energetics <=

    Nuclear Repulsion Energy =            125.3806029403596085
    One-Electron Energy =                -458.7215842738838774
    Two-Electron Energy =                 195.8346553618826817
    DFT Exchange-Correlation Energy =     -20.3067284796793217
    Empirical Dispersion Energy =           0.0000000000000000
    VV10 Nonlocal Energy =                  0.0000000000000000
    Total Energy =                       -157.8130544513209088

  UHF NO Occupations:
  HONO-2 :    9 Ap 1.9996037
  HONO-1 :   10 Ap 1.9989800
  HONO-0 :   11 Ap 1.0000000
  LUNO+0 :   12 Ap 0.0010200
  LUNO+1 :   13 Ap 0.0003963
  LUNO+2 :    7App 0.0001979
  LUNO+3 :   14 Ap 0.0001979

Computation Completed

Properties will be evaluated at   0.000000,   0.000000,   0.000000 [a0]

Properties computed using the SCF density matrix

  Nuclear Dipole Moment: [e a0]
     X:     0.8304      Y:    -0.0000      Z:    -0.0000

  Electronic Dipole Moment: [e a0]
     X:    -0.7513      Y:     0.0000      Z:     0.0000

  Dipole Moment: [e a0]
     X:     0.0791      Y:     0.0000      Z:    -0.0000     Total:     0.0791

  Dipole Moment: [D]
     X:     0.2011      Y:     0.0000      Z:    -0.0000     Total:     0.2011

*** tstop() called on n062 at Fri Nov  5 11:40:22 2021
Module time:
	user time   =     544.43 seconds =       9.07 minutes
	system time =      13.03 seconds =       0.22 minutes
	total time  =        140 seconds =       2.33 minutes
Total time:
	user time   =     544.43 seconds =       9.07 minutes
	system time =      13.03 seconds =       0.22 minutes
	total time  =        140 seconds =       2.33 minutes
Grab this energy -157.8130544513209
    Psi4 stopped on: Friday, 05 November 2021 11:40AM
    Psi4 wall time for execution: 0:02:20.20

*** Psi4 exiting successfully. Buy a developer a beer!
