                               Psi4 1.4a2.dev629

  ==> Input File <==

--------------------------------------------------------------------------
import os
memory 14 GB

molecule {
 C   -0.3233090892    0.0000050115    0.0049996678
 C    0.0617573201   -1.3950733238   -2.4225686579
 C    0.0611132121    2.8024041289   -0.0062310371
 C    0.0607136836   -1.4073236131    2.4313245422
 H    2.0844578333   -1.6354849970   -2.8436629129
 H   -0.7643397356   -0.3812582908   -4.0169542810
 H   -0.7617544309   -3.2836958688   -2.3499884974
 H    2.0836418693    3.2884388358   -0.0111377828
 H   -0.7613717221    3.6876079294    1.6642501517
 H   -0.7668774045    3.6724532254   -1.6831357491
 H    2.0831119567   -1.6530601333    2.8518281299
 H   -0.7663362328   -3.2952423857    2.3504236145
 H   -0.7634151366   -0.3997948321    4.0308528121
units bohr
0 2
}

basis {

assign 6-31g_2dfp_

[ 6-31g_2dfp_ ]

spherical

!----------------------------------------------------------------------
! Basis Set Exchange
! Version v0.8.13
! https://www.basissetexchange.org
!----------------------------------------------------------------------
!   Basis set: 6-31G(2df,p)
! Description: 6-31G(2df,p)
!        Role: orbital
!     Version: 0  (Data from the original Basis Set Exchange)
!----------------------------------------------------------------------

****
H     0
S    3   1.00
     18.7311370              0.03349460
      2.8253937              0.23472695
      0.6401217              0.81375733
S    1   1.00
      0.1612778              1.00000000
P    1   1.00
      1.5000000              1.0000000
P    1   1.00
      0.3750000              1.0000000
****
B     0
S    6   1.00
   2068.8823000              0.0018663
    310.6495700              0.0142515
     70.6830330              0.0695516
     19.8610800              0.2325729
      6.2993048              0.4670787
      2.1270270              0.3634314
SP   3   1.00
      4.7279710             -0.1303938              0.0745976
      1.1903377             -0.1307889              0.3078467
      0.3594117              1.1309444              0.7434568
SP   1   1.00
      0.1267512              1.0000000              1.0000000
D    1   1.00
      0.8020000              1.0000000
D    1   1.00
      0.2005000              1.0000000
F    1   1.00
      0.5000000              1.0000000
****
C     0
S    6   1.00
   3047.5249000              0.0018347
    457.3695100              0.0140373
    103.9486900              0.0688426
     29.2101550              0.2321844
      9.2866630              0.4679413
      3.1639270              0.3623120
SP   3   1.00
      7.8682724             -0.1193324              0.0689991
      1.8812885             -0.1608542              0.3164240
      0.5442493              1.1434564              0.7443083
SP   1   1.00
      0.1687144              1.0000000              1.0000000
D    1   1.00
      1.2520000              1.0000000
D    1   1.00
      0.3130000              1.0000000
F    1   1.00
      0.8000000              1.0000000
****
N     0
S    6   1.00
   4173.5110000              0.0018348
    627.4579000              0.0139950
    142.9021000              0.0685870
     40.2343300              0.2322410
     12.8202100              0.4690700
      4.3904370              0.3604550
SP   3   1.00
     11.6263580             -0.1149610              0.0675800
      2.7162800             -0.1691180              0.3239070
      0.7722180              1.1458520              0.7408950
SP   1   1.00
      0.2120313              1.0000000              1.0000000
D    1   1.00
      1.8260000              1.0000000
D    1   1.00
      0.4565000              1.0000000
F    1   1.00
      1.0000000              1.0000000
****
O     0
S    6   1.00
   5484.6717000              0.0018311
    825.2349500              0.0139501
    188.0469600              0.0684451
     52.9645000              0.2327143
     16.8975700              0.4701930
      5.7996353              0.3585209
SP   3   1.00
     15.5396160             -0.1107775              0.0708743
      3.5999336             -0.1480263              0.3397528
      1.0137618              1.1307670              0.7271586
SP   1   1.00
      0.2700058              1.0000000              1.0000000
D    1   1.00
      2.5840000              1.0000000
D    1   1.00
      0.6460000              1.0000000
F    1   1.00
      1.4000000              1.0000000
****
F     0
S    6   1.00
   7001.7130900              0.0018196169
   1051.3660900              0.0139160796
    239.2856900              0.0684053245
     67.3974453              0.233185760
     21.5199573              0.471267439
      7.40310130             0.356618546
SP   3   1.00
     20.8479528             -0.108506975            0.0716287243
      4.80830834            -0.146451658            0.3459121030
      1.34406986             1.128688580            0.7224699570
SP   1   1.00
      0.358151393            1.0000000              1.0000000
D    1   1.00
      3.5000000              1.0000000
D    1   1.00
      0.8750000              1.0000000
F    1   1.00
      1.8500000              1.0000000
****
Al     0
S    6   1.00
  13983.1000000              0.00194267
   2098.7500000              0.0148599
    477.7050000              0.0728494
    134.3600000              0.2468300
     42.8709000              0.4872580
     14.5189000              0.3234960
SP   6   1.00
    239.6680000             -0.00292619             0.00460285
     57.4419000             -0.0374080              0.0331990
     18.2859000             -0.1144870              0.1362820
      6.5991400              0.1156350              0.3304760
      2.4904900              0.6125950              0.4491460
      0.9445400              0.3937990              0.2657040
SP   3   1.00
      1.2779000             -0.2276060             -0.0175130
      0.3975900              0.00144583             0.2445330
      0.1600950              1.0927900              0.8049340
SP   1   1.00
      0.0556577              1.0000000              1.0000000
D    1   1.00
      0.6500000              1.0000000
D    1   1.00
      0.1625000              1.0000000
F    1   1.00
      0.2500000              1.0000000
****
Si     0
S    6   1.00
  16115.9000000              0.00195948
   2425.5800000              0.01492880
    553.8670000              0.07284780
    156.3400000              0.24613000
     50.0683000              0.48591400
     17.0178000              0.32500200
SP   6   1.00
    292.7180000             -0.00278094             0.00443826
     69.8731000             -0.03571460             0.03266790
     22.3363000             -0.11498500             0.13472100
      8.1503900              0.09356340             0.32867800
      3.1345800              0.60301700             0.44964000
      1.2254300              0.41895900             0.26137200
SP   3   1.00
      1.7273800             -0.24463000            -0.01779510
      0.5729220              0.00431572             0.25353900
      0.2221920              1.09818000             0.80066900
SP   1   1.00
      0.0778369              1.00000000             1.00000000
D    1   1.00
      0.9000000              1.0000000
D    1   1.00
      0.2250000              1.0000000
F    1   1.00
      0.3200000              1.0000000
****
P     0
S    6   1.00
  19413.3000000              0.0018516
   2909.4200000              0.0142062
    661.3640000              0.0699995
    185.7590000              0.2400790
     59.1943000              0.4847620
     20.0310000              0.3352000
SP   6   1.00
    339.4780000             -0.00278217             0.00456462
     81.0101000             -0.0360499              0.03369360
     25.8780000             -0.1166310              0.13975500
      9.4522100              0.0968328              0.33936200
      3.6656600              0.6144180              0.45092100
      1.4674600              0.4037980              0.23858600
SP   3   1.00
      2.1562300             -0.2529230             -0.01776530
      0.7489970              0.0328517              0.27405800
      0.2831450              1.0812500              0.78542100
SP   1   1.00
      0.0998317              1.0000000              1.00000000
D    1   1.00
      1.1000000              1.0000000
D    1   1.00
      0.2750000              1.0000000
F    1   1.00
      0.4500000              1.0000000
****
S     0
S    6   1.00
  21917.1000000              0.0018690
   3301.4900000              0.0142300
    754.1460000              0.0696960
    212.7110000              0.2384870
     67.9896000              0.4833070
     23.0515000              0.3380740
SP   6   1.00
    423.7350000             -0.0023767              0.0040610
    100.7100000             -0.0316930              0.0306810
     32.1599000             -0.1133170              0.1304520
     11.8079000              0.0560900              0.3272050
      4.6311000              0.5922550              0.4528510
      1.8702500              0.4550060              0.2560420
SP   3   1.00
      2.6158400             -0.2503740             -0.0145110
      0.9221670              0.0669570              0.3102630
      0.3412870              1.0545100              0.7544830
SP   1   1.00
      0.1171670              1.0000000              1.0000000
D    1   1.00
      1.3000000              1.0000000
D    1   1.00
      0.3250000              1.0000000
F    1   1.00
      0.5500000              1.0000000
****
Cl     0
S    6   1.00
  25180.1000000              0.0018330
   3780.3500000              0.0140340
    860.4740000              0.0690970
    242.1450000              0.2374520
     77.3349000              0.4830340
     26.2470000              0.3398560
SP   6   1.00
    491.7650000             -0.0022974              0.0039894
    116.9840000             -0.0307140              0.0303180
     37.4153000             -0.1125280              0.1298800
     13.7834000              0.0450160              0.3279510
      5.4521500              0.5893530              0.4535270
      2.2258800              0.4652060              0.2521540
SP   3   1.00
      3.1864900             -0.2518300             -0.0142990
      1.1442700              0.0615890              0.3235720
      0.4203770              1.0601800              0.7435070
SP   1   1.00
      0.1426570              1.0000000              1.0000000
D    1   1.00
      1.5000000              1.0000000
D    1   1.00
      0.3750000              1.0000000
F    1   1.00
      0.7000000              1.0000000
****
}

set {
reference uhf
freeze_core true
e_convergence 10
d_convergence 10
dft_spherical_points 1202
dft_radial_points 99
}

e = energy('b3lyp')

print_out('Grab this energy {0}'.format(e))
--------------------------------------------------------------------------

    Molecular point group: c1

    Geometry (in Bohr), charge = 0, multiplicity = 2:

       Center              X                  Y                   Z               Mass
    ------------   -----------------  -----------------  -----------------  -----------------
         C           -0.323369781936     0.000003090380     0.003550392015    12.000000000000
         C            0.061696627364    -1.395075244920    -2.424017933685    12.000000000000
         C            0.061052519364     2.802402207780    -0.007680312885    12.000000000000
         C            0.060652990864    -1.407325534220     2.429875266415    12.000000000000
         H            2.084397140564    -1.635486918120    -2.845112188685     1.007825032230
         H           -0.764400428336    -0.381260211920    -4.018403556785     1.007825032230
         H           -0.761815123636    -3.283697789920    -2.351437773185     1.007825032230
         H            2.083581176564     3.288436914680    -0.012587058585     1.007825032230
         H           -0.761432414836     3.687606008280     1.662800875915     1.007825032230
         H           -0.766938097236     3.672451304280    -1.684585024885     1.007825032230
         H            2.083051263964    -1.653062054420     2.850378854115     1.007825032230
         H           -0.766396925536    -3.295244306820     2.348974338715     1.007825032230
         H           -0.763475829336    -0.399796753220     4.029403536315     1.007825032230

  Charge       = 0
  Multiplicity = 2
  Basis Set: ANONYMOUSA0E0312A
    Blend: 6-31G_2DFP_
  Basis Set: (ANONYMOUSA0E0312A AUX)
    Blend: DEF2-UNIVERSAL-JKFIT

    Orbital Energies [Eh]
    ---------------------

    Alpha Occupied:

       1A    -10.180274     2A    -10.166751     3A    -10.166479
       4A    -10.166208     5A     -0.797730     6A     -0.686766
       7A     -0.686326     8A     -0.531087     9A     -0.441227
      10A     -0.435075    11A     -0.434545    12A     -0.383002
      13A     -0.382713    14A     -0.363926    15A     -0.338277
      16A     -0.337730    17A     -0.168900

    Alpha Virtual:

      18A      0.076403    19A      0.134283    20A      0.134759
      21A      0.142900    22A      0.143176    23A      0.155179
      24A      0.179063    25A      0.179509    26A      0.203434
      27A      0.215262    28A      0.275840    29A      0.276179
      30A      0.399002    31A      0.399284    32A      0.403617
      33A      0.424241    34A      0.424511    35A      0.456727
      36A      0.495209    37A      0.496011    38A      0.512443
      39A      0.514119    40A      0.578891    41A      0.579390
      42A      0.592212    43A      0.592265    44A      0.603227
      45A      0.625748    46A      0.632471    47A      0.636595
      48A      0.637033    49A      0.663534    50A      0.663968
      51A      0.684170    52A      0.684647    53A      0.735303
      54A      0.825397    55A      0.827040    56A      0.854430
      57A      0.915500    58A      0.915981    59A      0.944680
      60A      0.945307    61A      0.961792    62A      0.962310
      63A      1.003570    64A      1.127385    65A      1.129696
      66A      1.143085    67A      1.163032    68A      1.164012
      69A      1.223775    70A      1.274510    71A      1.275552
      72A      1.278903    73A      1.324976    74A      1.325147
      75A      1.356850    76A      1.365804    77A      1.367247
      78A      1.393014    79A      1.404312    80A      1.405915
      81A      1.417554    82A      1.418541    83A      1.428680
      84A      1.492331    85A      1.500416    86A      1.542927
      87A      1.543718    88A      1.572860    89A      1.576536
      90A      1.671979    91A      1.739769    92A      1.741895
      93A      1.769880    94A      1.833390    95A      1.834405
      96A      1.973352    97A      2.018802    98A      2.019371
      99A      2.021669   100A      2.051221   101A      2.056318
     102A      2.739202   103A      2.739727   104A      2.791134
     105A      2.811954   106A      2.890405   107A      2.890609
     108A      2.895021   109A      2.929695   110A      2.930071
     111A      2.959616   112A      2.964166   113A      2.965944
     114A      3.034925   115A      3.071233   116A      3.073219
     117A      3.085311   118A      3.167371   119A      3.168926
     120A      3.180858   121A      3.284567   122A      3.285977
     123A      3.325717   124A      3.327611   125A      3.374963
     126A      3.488646   127A      3.489610   128A      3.513747
     129A      3.524692   130A      3.567356   131A      3.569583
     132A      3.573779   133A      3.666984   134A      3.667187
     135A      3.681464   136A      3.694521   137A      3.695405
     138A      3.776473   139A      3.778126   140A      3.789849
     141A      3.911738   142A      3.914596   143A      4.036808
     144A      4.112482   145A      4.115219   146A      4.149752
     147A      4.153098   148A      4.176218   149A      4.202847
     150A      4.204102   151A      4.206152   152A      4.214642
     153A      4.318184   154A      4.318227   155A      4.361418
     156A      4.426826   157A      4.427114   158A      4.445560
     159A      4.518446   160A      4.520113   161A      4.578671
     162A      4.580822   163A      4.618207   164A      4.711476
     165A      4.775087   166A      4.777661   167A      4.839261
     168A      4.963674   169A      5.003085   170A      5.005054
     171A      5.233317   172A      5.251963   173A      5.252273
     174A      5.359397   175A      5.360802   176A      5.482575

    Beta Occupied:

       1A    -10.167505     2A    -10.167239     3A    -10.166975
       4A    -10.166428     5A     -0.781083     6A     -0.684571
       7A     -0.684123     8A     -0.512001     9A     -0.431463
      10A     -0.430917    11A     -0.421959    12A     -0.377105
      13A     -0.376796    14A     -0.362913    15A     -0.333394
      16A     -0.332840

    Beta Virtual:

      17A     -0.025510    18A      0.077408    19A      0.135170
      20A      0.135668    21A      0.144749    22A      0.145013
      23A      0.163575    24A      0.182714    25A      0.183180
      26A      0.215489    27A      0.218836    28A      0.282185
      29A      0.282548    30A      0.400218    31A      0.400450
      32A      0.420021    33A      0.427039    34A      0.427339
      35A      0.468619    36A      0.497466    37A      0.498276
      38A      0.514173    39A      0.556519    40A      0.584487
      41A      0.584930    42A      0.598399    43A      0.598476
      44A      0.610634    45A      0.629118    46A      0.632623
      47A      0.639841    48A      0.640313    49A      0.667074
      50A      0.667562    51A      0.686720    52A      0.687298
      53A      0.757851    54A      0.830553    55A      0.832216
      56A      0.855760    57A      0.923443    58A      0.923950
      59A      0.946537    60A      0.954243    61A      0.967038
      62A      0.967658    63A      1.008819    64A      1.131408
      65A      1.133704    66A      1.156447    67A      1.168103
      68A      1.169150    69A      1.232728    70A      1.280091
      71A      1.281141    72A      1.284643    73A      1.329976
      74A      1.330179    75A      1.366290    76A      1.370940
      77A      1.372586    78A      1.394070    79A      1.407809
      80A      1.409349    81A      1.422599    82A      1.423587
      83A      1.428942    84A      1.493387    85A      1.510860
      86A      1.547097    87A      1.548101    88A      1.580989
      89A      1.584365    90A      1.676901    91A      1.745542
      92A      1.747660    93A      1.780600    94A      1.837198
      95A      1.838247    96A      1.974210    97A      2.025139
      98A      2.028115    99A      2.040702   100A      2.058028
     101A      2.062943   102A      2.747505   103A      2.748120
     104A      2.812369   105A      2.816295   106A      2.903171
     107A      2.903309   108A      2.924764   109A      2.932215
     110A      2.932417   111A      2.960689   112A      2.968780
     113A      2.970495   114A      3.042780   115A      3.081043
     116A      3.083219   117A      3.087273   118A      3.183185
     119A      3.184504   120A      3.188593   121A      3.289381
     122A      3.290657   123A      3.329522   124A      3.331432
     125A      3.382803   126A      3.491425   127A      3.492375
     128A      3.512128   129A      3.527761   130A      3.573152
     131A      3.580936   132A      3.583194   133A      3.671989
     134A      3.672251   135A      3.694823   136A      3.726018
     137A      3.726826   138A      3.781002   139A      3.782695
     140A      3.818345   141A      3.921542   142A      3.924399
     143A      4.047820   144A      4.119378   145A      4.122104
     146A      4.156987   147A      4.160218   148A      4.190133
     149A      4.208759   150A      4.211887   151A      4.212200
     152A      4.219105   153A      4.325526   154A      4.325601
     155A      4.364771   156A      4.435001   157A      4.435265
     158A      4.448477   159A      4.526320   160A      4.527790
     161A      4.589160   162A      4.591471   163A      4.625392
     164A      4.721817   165A      4.782000   166A      4.784646
     167A      4.842185   168A      4.968441   169A      5.007106
     170A      5.009073   171A      5.239006   172A      5.253738
     173A      5.254058   174A      5.365832   175A      5.367273
     176A      5.484885

    Final Occupation by Irrep:
              A
    DOCC [    16 ]
    SOCC [     1 ]

  @DF-UKS Final Energy:  -157.81301417346208

   => Energetics <=

    Nuclear Repulsion Energy =            125.4322826600831178
    One-Electron Energy =                -458.8202779360102568
    Two-Electron Energy =                 195.8861566992017913
    DFT Exchange-Correlation Energy =     -20.3111755967367031
    Empirical Dispersion Energy =           0.0000000000000000
    VV10 Nonlocal Energy =                  0.0000000000000000
    Total Energy =                       -157.8130141734620793

  UHF NO Occupations:
  HONO-2 :   15  A 1.9996034
  HONO-1 :   16  A 1.9989797
  HONO-0 :   17  A 1.0000000
  LUNO+0 :   18  A 0.0010203
  LUNO+1 :   19  A 0.0003966
  LUNO+2 :   20  A 0.0001982
  LUNO+3 :   21  A 0.0001976

Computation Completed

Properties will be evaluated at   0.000000,   0.000000,   0.000000 [a0]

Properties computed using the SCF density matrix

  Nuclear Dipole Moment: [e a0]
     X:     0.8268      Y:    -0.0000      Z:    -0.0102

  Electronic Dipole Moment: [e a0]
     X:    -0.7482      Y:     0.0000      Z:     0.0109

  Dipole Moment: [e a0]
     X:     0.0785      Y:    -0.0000      Z:     0.0007     Total:     0.0786

  Dipole Moment: [D]
     X:     0.1996      Y:    -0.0000      Z:     0.0019     Total:     0.1997

*** tstop() called on n073 at Fri Nov  5 15:01:37 2021
Module time:
	user time   =     656.76 seconds =      10.95 minutes
	system time =      17.33 seconds =       0.29 minutes
	total time  =        170 seconds =       2.83 minutes
Total time:
	user time   =     656.76 seconds =      10.95 minutes
	system time =      17.33 seconds =       0.29 minutes
	total time  =        170 seconds =       2.83 minutes
Grab this energy -157.81301417346208
    Psi4 stopped on: Friday, 05 November 2021 03:01PM
    Psi4 wall time for execution: 0:02:49.48

*** Psi4 exiting successfully. Buy a developer a beer!
