                               Psi4 1.4a2.dev629

  ==> Input File <==

--------------------------------------------------------------------------
import os
memory 14 GB

molecule {
 C   -0.3233395341   -0.0015176092   -0.0000000000
 C    0.0615618047   -1.3996727535   -2.4273428624
 C    0.0601749658    2.8012956779    0.0000000000
 C    0.0615618047   -1.3996727535    2.4273428624
 H    2.0848046761   -1.6447453465   -2.8474067023
 H   -0.7644733511   -0.3901175744   -4.0247112371
 H   -0.7645384950   -3.2898120910   -2.3494110735
 H    2.0910626975    3.2875065776   -0.0000000000
 H   -0.7676076377    3.6806932854    1.6806383121
 H   -0.7676076377    3.6806932854   -1.6806383121
 H    2.0848046761   -1.6447453465    2.8474067023
 H   -0.7645384950   -3.2898120910    2.3494110735
 H   -0.7644733511   -0.3901175744    4.0247112371
units bohr
0 2
}

basis {

assign 6-31g_2dfp_

[ 6-31g_2dfp_ ]

spherical

!----------------------------------------------------------------------
! Basis Set Exchange
! Version v0.8.13
! https://www.basissetexchange.org
!----------------------------------------------------------------------
!   Basis set: 6-31G(2df,p)
! Description: 6-31G(2df,p)
!        Role: orbital
!     Version: 0  (Data from the original Basis Set Exchange)
!----------------------------------------------------------------------

****
H     0
S    3   1.00
     18.7311370              0.03349460
      2.8253937              0.23472695
      0.6401217              0.81375733
S    1   1.00
      0.1612778              1.00000000
P    1   1.00
      1.5000000              1.0000000
P    1   1.00
      0.3750000              1.0000000
****
B     0
S    6   1.00
   2068.8823000              0.0018663
    310.6495700              0.0142515
     70.6830330              0.0695516
     19.8610800              0.2325729
      6.2993048              0.4670787
      2.1270270              0.3634314
SP   3   1.00
      4.7279710             -0.1303938              0.0745976
      1.1903377             -0.1307889              0.3078467
      0.3594117              1.1309444              0.7434568
SP   1   1.00
      0.1267512              1.0000000              1.0000000
D    1   1.00
      0.8020000              1.0000000
D    1   1.00
      0.2005000              1.0000000
F    1   1.00
      0.5000000              1.0000000
****
C     0
S    6   1.00
   3047.5249000              0.0018347
    457.3695100              0.0140373
    103.9486900              0.0688426
     29.2101550              0.2321844
      9.2866630              0.4679413
      3.1639270              0.3623120
SP   3   1.00
      7.8682724             -0.1193324              0.0689991
      1.8812885             -0.1608542              0.3164240
      0.5442493              1.1434564              0.7443083
SP   1   1.00
      0.1687144              1.0000000              1.0000000
D    1   1.00
      1.2520000              1.0000000
D    1   1.00
      0.3130000              1.0000000
F    1   1.00
      0.8000000              1.0000000
****
N     0
S    6   1.00
   4173.5110000              0.0018348
    627.4579000              0.0139950
    142.9021000              0.0685870
     40.2343300              0.2322410
     12.8202100              0.4690700
      4.3904370              0.3604550
SP   3   1.00
     11.6263580             -0.1149610              0.0675800
      2.7162800             -0.1691180              0.3239070
      0.7722180              1.1458520              0.7408950
SP   1   1.00
      0.2120313              1.0000000              1.0000000
D    1   1.00
      1.8260000              1.0000000
D    1   1.00
      0.4565000              1.0000000
F    1   1.00
      1.0000000              1.0000000
****
O     0
S    6   1.00
   5484.6717000              0.0018311
    825.2349500              0.0139501
    188.0469600              0.0684451
     52.9645000              0.2327143
     16.8975700              0.4701930
      5.7996353              0.3585209
SP   3   1.00
     15.5396160             -0.1107775              0.0708743
      3.5999336             -0.1480263              0.3397528
      1.0137618              1.1307670              0.7271586
SP   1   1.00
      0.2700058              1.0000000              1.0000000
D    1   1.00
      2.5840000              1.0000000
D    1   1.00
      0.6460000              1.0000000
F    1   1.00
      1.4000000              1.0000000
****
F     0
S    6   1.00
   7001.7130900              0.0018196169
   1051.3660900              0.0139160796
    239.2856900              0.0684053245
     67.3974453              0.233185760
     21.5199573              0.471267439
      7.40310130             0.356618546
SP   3   1.00
     20.8479528             -0.108506975            0.0716287243
      4.80830834            -0.146451658            0.3459121030
      1.34406986             1.128688580            0.7224699570
SP   1   1.00
      0.358151393            1.0000000              1.0000000
D    1   1.00
      3.5000000              1.0000000
D    1   1.00
      0.8750000              1.0000000
F    1   1.00
      1.8500000              1.0000000
****
Al     0
S    6   1.00
  13983.1000000              0.00194267
   2098.7500000              0.0148599
    477.7050000              0.0728494
    134.3600000              0.2468300
     42.8709000              0.4872580
     14.5189000              0.3234960
SP   6   1.00
    239.6680000             -0.00292619             0.00460285
     57.4419000             -0.0374080              0.0331990
     18.2859000             -0.1144870              0.1362820
      6.5991400              0.1156350              0.3304760
      2.4904900              0.6125950              0.4491460
      0.9445400              0.3937990              0.2657040
SP   3   1.00
      1.2779000             -0.2276060             -0.0175130
      0.3975900              0.00144583             0.2445330
      0.1600950              1.0927900              0.8049340
SP   1   1.00
      0.0556577              1.0000000              1.0000000
D    1   1.00
      0.6500000              1.0000000
D    1   1.00
      0.1625000              1.0000000
F    1   1.00
      0.2500000              1.0000000
****
Si     0
S    6   1.00
  16115.9000000              0.00195948
   2425.5800000              0.01492880
    553.8670000              0.07284780
    156.3400000              0.24613000
     50.0683000              0.48591400
     17.0178000              0.32500200
SP   6   1.00
    292.7180000             -0.00278094             0.00443826
     69.8731000             -0.03571460             0.03266790
     22.3363000             -0.11498500             0.13472100
      8.1503900              0.09356340             0.32867800
      3.1345800              0.60301700             0.44964000
      1.2254300              0.41895900             0.26137200
SP   3   1.00
      1.7273800             -0.24463000            -0.01779510
      0.5729220              0.00431572             0.25353900
      0.2221920              1.09818000             0.80066900
SP   1   1.00
      0.0778369              1.00000000             1.00000000
D    1   1.00
      0.9000000              1.0000000
D    1   1.00
      0.2250000              1.0000000
F    1   1.00
      0.3200000              1.0000000
****
P     0
S    6   1.00
  19413.3000000              0.0018516
   2909.4200000              0.0142062
    661.3640000              0.0699995
    185.7590000              0.2400790
     59.1943000              0.4847620
     20.0310000              0.3352000
SP   6   1.00
    339.4780000             -0.00278217             0.00456462
     81.0101000             -0.0360499              0.03369360
     25.8780000             -0.1166310              0.13975500
      9.4522100              0.0968328              0.33936200
      3.6656600              0.6144180              0.45092100
      1.4674600              0.4037980              0.23858600
SP   3   1.00
      2.1562300             -0.2529230             -0.01776530
      0.7489970              0.0328517              0.27405800
      0.2831450              1.0812500              0.78542100
SP   1   1.00
      0.0998317              1.0000000              1.00000000
D    1   1.00
      1.1000000              1.0000000
D    1   1.00
      0.2750000              1.0000000
F    1   1.00
      0.4500000              1.0000000
****
S     0
S    6   1.00
  21917.1000000              0.0018690
   3301.4900000              0.0142300
    754.1460000              0.0696960
    212.7110000              0.2384870
     67.9896000              0.4833070
     23.0515000              0.3380740
SP   6   1.00
    423.7350000             -0.0023767              0.0040610
    100.7100000             -0.0316930              0.0306810
     32.1599000             -0.1133170              0.1304520
     11.8079000              0.0560900              0.3272050
      4.6311000              0.5922550              0.4528510
      1.8702500              0.4550060              0.2560420
SP   3   1.00
      2.6158400             -0.2503740             -0.0145110
      0.9221670              0.0669570              0.3102630
      0.3412870              1.0545100              0.7544830
SP   1   1.00
      0.1171670              1.0000000              1.0000000
D    1   1.00
      1.3000000              1.0000000
D    1   1.00
      0.3250000              1.0000000
F    1   1.00
      0.5500000              1.0000000
****
Cl     0
S    6   1.00
  25180.1000000              0.0018330
   3780.3500000              0.0140340
    860.4740000              0.0690970
    242.1450000              0.2374520
     77.3349000              0.4830340
     26.2470000              0.3398560
SP   6   1.00
    491.7650000             -0.0022974              0.0039894
    116.9840000             -0.0307140              0.0303180
     37.4153000             -0.1125280              0.1298800
     13.7834000              0.0450160              0.3279510
      5.4521500              0.5893530              0.4535270
      2.2258800              0.4652060              0.2521540
SP   3   1.00
      3.1864900             -0.2518300             -0.0142990
      1.1442700              0.0615890              0.3235720
      0.4203770              1.0601800              0.7435070
SP   1   1.00
      0.1426570              1.0000000              1.0000000
D    1   1.00
      1.5000000              1.0000000
D    1   1.00
      0.3750000              1.0000000
F    1   1.00
      0.7000000              1.0000000
****
}

set {
reference uhf
freeze_core true
e_convergence 10
d_convergence 10
dft_spherical_points 1202
dft_radial_points 99
}

e = energy('b3lyp')

print_out('Grab this energy {0}'.format(e))
--------------------------------------------------------------------------

    Molecular point group: cs

    Geometry (in Bohr), charge = 0, multiplicity = 2:

       Center              X                  Y                   Z               Mass
    ------------   -----------------  -----------------  -----------------  -----------------
         C           -0.323339346488    -0.001600494336     0.000000000000    12.000000000000
         C            0.061561992312    -1.399755638636    -2.427342862400    12.000000000000
         C            0.060175153412     2.801212792764     0.000000000000    12.000000000000
         C            0.061561992312    -1.399755638636     2.427342862400    12.000000000000
         H            2.084804863712    -1.644828231636    -2.847406702300     1.007825032230
         H           -0.764473163488    -0.390200459536    -4.024711237100     1.007825032230
         H           -0.764538307388    -3.289894976136    -2.349411073500     1.007825032230
         H            2.091062885112     3.287423692464     0.000000000000     1.007825032230
         H           -0.767607450088     3.680610400264     1.680638312100     1.007825032230
         H           -0.767607450088     3.680610400264    -1.680638312100     1.007825032230
         H            2.084804863712    -1.644828231636     2.847406702300     1.007825032230
         H           -0.764538307388    -3.289894976136     2.349411073500     1.007825032230
         H           -0.764473163488    -0.390200459536     4.024711237100     1.007825032230

  Charge       = 0
  Multiplicity = 2
  Basis Set: ANONYMOUS4ABC51BD
    Blend: 6-31G_2DFP_
  Basis Set: (ANONYMOUS4ABC51BD AUX)
    Blend: DEF2-UNIVERSAL-JKFIT

    Orbital Energies [Eh]
    ---------------------

    Alpha Occupied:

       1Ap   -10.180342     2Ap   -10.167655     1App  -10.166710
       3Ap   -10.166680     4Ap    -0.797767     2App   -0.686588
       5Ap    -0.685786     6Ap    -0.530776     7Ap    -0.441126
       8Ap    -0.434766     3App   -0.434577     4App   -0.382859
       9Ap    -0.382337     5App   -0.363614     6App   -0.338258
      10Ap    -0.337737    11Ap    -0.168961

    Alpha Virtual:

      12Ap     0.076071    13Ap     0.134114     7App    0.134187
       8App    0.142593    14Ap     0.142672    15Ap     0.154872
      16Ap     0.178512     9App    0.179051    17Ap     0.203547
      10App    0.214804    18Ap     0.275906    11App    0.276065
      19Ap     0.399038    12App    0.399419    20Ap     0.403342
      13App    0.423996    21Ap     0.424199    22Ap     0.456592
      23Ap     0.495355    14App    0.495426    15App    0.512161
      24Ap     0.513978    25Ap     0.578645    16App    0.578986
      26Ap     0.591285    17App    0.591953    27Ap     0.602596
      28Ap     0.624769    18App    0.631729    19App    0.635910
      29Ap     0.636636    30Ap     0.663143    20App    0.663684
      31Ap     0.683556    21App    0.684161    32Ap     0.734994
      22App    0.824995    33Ap     0.825810    23App    0.853919
      24App    0.914906    34Ap     0.915145    25App    0.944129
      35Ap     0.944611    26App    0.961105    36Ap     0.961488
      37Ap     1.003456    38Ap     1.127794    27App    1.128430
      39Ap     1.142213    28App    1.163165    40Ap     1.163370
      41Ap     1.223324    42Ap     1.274118    29App    1.274850
      43Ap     1.279357    30App    1.324055    44Ap     1.324663
      45Ap     1.355978    46Ap     1.366034    31App    1.366077
      32App    1.392418    47Ap     1.403412    33App    1.404688
      48Ap     1.416535    34App    1.417692    35App    1.427926
      36App    1.491496    49Ap     1.499089    50Ap     1.542723
      37App    1.542943    38App    1.573855    51Ap     1.575051
      52Ap     1.669790    53Ap     1.739412    39App    1.739449
      54Ap     1.768285    55Ap     1.829917    40App    1.832929
      41App    1.971719    56Ap     2.017911    42App    2.018504
      57Ap     2.019940    43App    2.052001    58Ap     2.053338
      44App    2.738087    59Ap     2.738886    60Ap     2.790923
      45App    2.811428    61Ap     2.888970    46App    2.890897
      62Ap     2.894970    63Ap     2.929431    47App    2.929562
      48App    2.959010    64Ap     2.964137    49App    2.964624
      65Ap     3.034025    66Ap     3.070943    50App    3.071621
      51App    3.084374    52App    3.168538    67Ap     3.168973
      68Ap     3.180639    69Ap     3.285167    53App    3.285466
      54App    3.327073    70Ap     3.327252    71Ap     3.375603
      55App    3.489357    72Ap     3.490977    56App    3.514010
      73Ap     3.525328    57App    3.568242    74Ap     3.568466
      58App    3.575229    75Ap     3.665419    59App    3.667331
      76Ap     3.679587    77Ap     3.693698    60App    3.694606
      78Ap     3.776217    61App    3.777401    79Ap     3.789125
      80Ap     3.911423    62App    3.913022    81Ap     4.034434
      82Ap     4.110764    63App    4.111837    64App    4.146205
      83Ap     4.149964    84Ap     4.173315    85Ap     4.200732
      65App    4.203606    86Ap     4.204412    66App    4.211145
      87Ap     4.314486    67App    4.317424    68App    4.358928
      69App    4.423677    88Ap     4.425236    70App    4.443456
      89Ap     4.516399    71App    4.517245    72App    4.578152
      90Ap     4.578418    91Ap     4.617528    92Ap     4.709509
      73App    4.774545    93Ap     4.774652    74App    4.836883
      94Ap     4.962853    95Ap     5.002693    75App    5.003244
      96Ap     5.227865    76App    5.243284    97Ap     5.250257
      98Ap     5.352654    77App    5.358563    78App    5.479442

    Beta Occupied:

       1Ap   -10.168416     1App  -10.167461     2Ap   -10.167449
       3Ap   -10.166517     4Ap    -0.781092     2App   -0.684388
       5Ap    -0.683591     6Ap    -0.511748     7Ap    -0.431155
       3App   -0.430930     8Ap    -0.421824     4App   -0.376961
       9Ap    -0.376404     5App   -0.362597     6App   -0.333388
      10Ap    -0.332854

    Beta Virtual:

      11Ap    -0.025742    12Ap     0.077080     7App    0.135033
      13Ap     0.135049     8App    0.144493    14Ap     0.144512
      15Ap     0.163330    16Ap     0.182181     9App    0.182726
      10App    0.215033    17Ap     0.218930    18Ap     0.282270
      11App    0.282397    19Ap     0.400204    12App    0.400592
      20Ap     0.419786    13App    0.426804    21Ap     0.427016
      22Ap     0.468500    23Ap     0.497613    14App    0.497688
      15App    0.513896    24Ap     0.556324    25Ap     0.584188
      16App    0.584543    26Ap     0.597484    17App    0.598120
      27Ap     0.610010    28Ap     0.628149    18App    0.631907
      19App    0.639193    29Ap     0.639902    30Ap     0.666689
      20App    0.667265    31Ap     0.686228    21App    0.686759
      32Ap     0.757517    22App    0.830140    33Ap     0.831001
      23App    0.855273    24App    0.922879    34Ap     0.923115
      25App    0.945966    35Ap     0.953538    26App    0.966430
      36Ap     0.966776    37Ap     1.008696    38Ap     1.131795
      27App    1.132484    39Ap     1.155592    28App    1.168213
      40Ap     1.168469    41Ap     1.232297    42Ap     1.279686
      29App    1.280476    43Ap     1.285112    30App    1.329007
      44Ap     1.329688    45Ap     1.365387    31App    1.371283
      46Ap     1.371323    32App    1.393482    47Ap     1.406850
      33App    1.408174    48Ap     1.421562    34App    1.422763
      35App    1.428198    36App    1.492544    49Ap     1.509532
      50Ap     1.547161    37App    1.547319    38App    1.581742
      51Ap     1.582908    52Ap     1.674636    53Ap     1.745159
      39App    1.745225    54Ap     1.779065    55Ap     1.833801
      40App    1.836757    41App    1.972579    42App    2.024987
      56Ap     2.025833    57Ap     2.039715    43App    2.058632
      58Ap     2.060134    44App    2.746403    59Ap     2.747242
      45App    2.811839    60Ap     2.816059    61Ap     2.901775
      46App    2.903481    62Ap     2.924647    63Ap     2.931839
      47App    2.932132    48App    2.960073    64Ap     2.968632
      49App    2.969219    65Ap     3.041960    66Ap     3.080788
      50App    3.081560    51App    3.086228    52App    3.184231
      67Ap     3.184665    68Ap     3.188436    69Ap     3.290022
      53App    3.290208    54App    3.330884    70Ap     3.331049
      71Ap     3.383422    55App    3.492133    72Ap     3.493660
      56App    3.512376    73Ap     3.528373    57App    3.574904
      58App    3.581782    74Ap     3.581790    75Ap     3.670021
      59App    3.672234    76Ap     3.692907    77Ap     3.725491
      60App    3.726042    78Ap     3.780717    61App    3.781954
      79Ap     3.817669    80Ap     3.921232    62App    3.922847
      81Ap     4.045318    82Ap     4.117798    63App    4.118412
      64App    4.153603    83Ap     4.157013    84Ap     4.187368
      85Ap     4.207340    65App    4.209604    86Ap     4.211643
      66App    4.215628    87Ap     4.322015    67App    4.324769
      68App    4.362294    69App    4.431940    88Ap     4.433396
      70App    4.446348    89Ap     4.524266    71App    4.524961
      72App    4.588777    90Ap     4.588994    91Ap     4.624719
      92Ap     4.719854    73App    4.781549    93Ap     4.781554
      74App    4.839800    94Ap     4.967649    95Ap     5.006749
      75App    5.007265    96Ap     5.233580    76App    5.245062
      97Ap     5.252052    98Ap     5.359126    77App    5.365047
      78App    5.481763

    Final Occupation by Irrep:
             Ap   App
    DOCC [    10,    6 ]
    SOCC [     1,    0 ]

  @DF-UKS Final Energy:  -157.81305710840158

   => Energetics <=

    Nuclear Repulsion Energy =            125.3946613999149946
    One-Electron Energy =                -458.7489545812744609
    Two-Electron Energy =                 195.8483826561054002
    DFT Exchange-Correlation Energy =     -20.3071465831475031
    Empirical Dispersion Energy =           0.0000000000000000
    VV10 Nonlocal Energy =                  0.0000000000000000
    Total Energy =                       -157.8130571084015799

  UHF NO Occupations:
  HONO-2 :    9 Ap 1.9996009
  HONO-1 :   10 Ap 1.9989805
  HONO-0 :   11 Ap 1.0000000
  LUNO+0 :   12 Ap 0.0010195
  LUNO+1 :   13 Ap 0.0003991
  LUNO+2 :   14 Ap 0.0001980
  LUNO+3 :    7App 0.0001971

Computation Completed

Properties will be evaluated at   0.000000,   0.000000,   0.000000 [a0]

Properties computed using the SCF density matrix

  Nuclear Dipole Moment: [e a0]
     X:     0.8272      Y:    -0.0006      Z:    -0.0000

  Electronic Dipole Moment: [e a0]
     X:    -0.7493      Y:    -0.0019      Z:     0.0000

  Dipole Moment: [e a0]
     X:     0.0779      Y:    -0.0025      Z:    -0.0000     Total:     0.0780

  Dipole Moment: [D]
     X:     0.1980      Y:    -0.0064      Z:    -0.0000     Total:     0.1981

*** tstop() called on n049 at Fri Nov  5 11:52:36 2021
Module time:
	user time   =     539.75 seconds =       9.00 minutes
	system time =      11.95 seconds =       0.20 minutes
	total time  =        138 seconds =       2.30 minutes
Total time:
	user time   =     539.75 seconds =       9.00 minutes
	system time =      11.95 seconds =       0.20 minutes
	total time  =        138 seconds =       2.30 minutes
Grab this energy -157.81305710840158
    Psi4 stopped on: Friday, 05 November 2021 11:52AM
    Psi4 wall time for execution: 0:02:18.75

*** Psi4 exiting successfully. Buy a developer a beer!
