                               Psi4 1.4a2.dev629

  ==> Input File <==

--------------------------------------------------------------------------
import os
memory 14 GB

molecule {
 C   -0.3233399715    0.0002440388   -0.0000000000
 C    0.0616960284   -1.4009581218   -2.4262630622
 C    0.0599099590    2.8018828397    0.0000000000
 C    0.0616960284   -1.4009581218    2.4262630622
 H    2.0885573225   -1.6470139322   -2.8492788919
 H   -0.7637495944   -0.3863953297   -4.0231955829
 H   -0.7655828131   -3.2913024377   -2.3488867255
 H    2.0835469967    3.2820138103    0.0000000000
 H   -0.7672833739    3.6835873202    1.6766110781
 H   -0.7672833739    3.6835873202   -1.6766110781
 H    2.0885573225   -1.6470139322    2.8492788919
 H   -0.7655828131   -3.2913024377    2.3488867255
 H   -0.7637495944   -0.3863953297    4.0231955829
units bohr
0 2
}

basis {

assign 6-31g_2dfp_

[ 6-31g_2dfp_ ]

spherical

!----------------------------------------------------------------------
! Basis Set Exchange
! Version v0.8.13
! https://www.basissetexchange.org
!----------------------------------------------------------------------
!   Basis set: 6-31G(2df,p)
! Description: 6-31G(2df,p)
!        Role: orbital
!     Version: 0  (Data from the original Basis Set Exchange)
!----------------------------------------------------------------------

****
H     0
S    3   1.00
     18.7311370              0.03349460
      2.8253937              0.23472695
      0.6401217              0.81375733
S    1   1.00
      0.1612778              1.00000000
P    1   1.00
      1.5000000              1.0000000
P    1   1.00
      0.3750000              1.0000000
****
B     0
S    6   1.00
   2068.8823000              0.0018663
    310.6495700              0.0142515
     70.6830330              0.0695516
     19.8610800              0.2325729
      6.2993048              0.4670787
      2.1270270              0.3634314
SP   3   1.00
      4.7279710             -0.1303938              0.0745976
      1.1903377             -0.1307889              0.3078467
      0.3594117              1.1309444              0.7434568
SP   1   1.00
      0.1267512              1.0000000              1.0000000
D    1   1.00
      0.8020000              1.0000000
D    1   1.00
      0.2005000              1.0000000
F    1   1.00
      0.5000000              1.0000000
****
C     0
S    6   1.00
   3047.5249000              0.0018347
    457.3695100              0.0140373
    103.9486900              0.0688426
     29.2101550              0.2321844
      9.2866630              0.4679413
      3.1639270              0.3623120
SP   3   1.00
      7.8682724             -0.1193324              0.0689991
      1.8812885             -0.1608542              0.3164240
      0.5442493              1.1434564              0.7443083
SP   1   1.00
      0.1687144              1.0000000              1.0000000
D    1   1.00
      1.2520000              1.0000000
D    1   1.00
      0.3130000              1.0000000
F    1   1.00
      0.8000000              1.0000000
****
N     0
S    6   1.00
   4173.5110000              0.0018348
    627.4579000              0.0139950
    142.9021000              0.0685870
     40.2343300              0.2322410
     12.8202100              0.4690700
      4.3904370              0.3604550
SP   3   1.00
     11.6263580             -0.1149610              0.0675800
      2.7162800             -0.1691180              0.3239070
      0.7722180              1.1458520              0.7408950
SP   1   1.00
      0.2120313              1.0000000              1.0000000
D    1   1.00
      1.8260000              1.0000000
D    1   1.00
      0.4565000              1.0000000
F    1   1.00
      1.0000000              1.0000000
****
O     0
S    6   1.00
   5484.6717000              0.0018311
    825.2349500              0.0139501
    188.0469600              0.0684451
     52.9645000              0.2327143
     16.8975700              0.4701930
      5.7996353              0.3585209
SP   3   1.00
     15.5396160             -0.1107775              0.0708743
      3.5999336             -0.1480263              0.3397528
      1.0137618              1.1307670              0.7271586
SP   1   1.00
      0.2700058              1.0000000              1.0000000
D    1   1.00
      2.5840000              1.0000000
D    1   1.00
      0.6460000              1.0000000
F    1   1.00
      1.4000000              1.0000000
****
F     0
S    6   1.00
   7001.7130900              0.0018196169
   1051.3660900              0.0139160796
    239.2856900              0.0684053245
     67.3974453              0.233185760
     21.5199573              0.471267439
      7.40310130             0.356618546
SP   3   1.00
     20.8479528             -0.108506975            0.0716287243
      4.80830834            -0.146451658            0.3459121030
      1.34406986             1.128688580            0.7224699570
SP   1   1.00
      0.358151393            1.0000000              1.0000000
D    1   1.00
      3.5000000              1.0000000
D    1   1.00
      0.8750000              1.0000000
F    1   1.00
      1.8500000              1.0000000
****
Al     0
S    6   1.00
  13983.1000000              0.00194267
   2098.7500000              0.0148599
    477.7050000              0.0728494
    134.3600000              0.2468300
     42.8709000              0.4872580
     14.5189000              0.3234960
SP   6   1.00
    239.6680000             -0.00292619             0.00460285
     57.4419000             -0.0374080              0.0331990
     18.2859000             -0.1144870              0.1362820
      6.5991400              0.1156350              0.3304760
      2.4904900              0.6125950              0.4491460
      0.9445400              0.3937990              0.2657040
SP   3   1.00
      1.2779000             -0.2276060             -0.0175130
      0.3975900              0.00144583             0.2445330
      0.1600950              1.0927900              0.8049340
SP   1   1.00
      0.0556577              1.0000000              1.0000000
D    1   1.00
      0.6500000              1.0000000
D    1   1.00
      0.1625000              1.0000000
F    1   1.00
      0.2500000              1.0000000
****
Si     0
S    6   1.00
  16115.9000000              0.00195948
   2425.5800000              0.01492880
    553.8670000              0.07284780
    156.3400000              0.24613000
     50.0683000              0.48591400
     17.0178000              0.32500200
SP   6   1.00
    292.7180000             -0.00278094             0.00443826
     69.8731000             -0.03571460             0.03266790
     22.3363000             -0.11498500             0.13472100
      8.1503900              0.09356340             0.32867800
      3.1345800              0.60301700             0.44964000
      1.2254300              0.41895900             0.26137200
SP   3   1.00
      1.7273800             -0.24463000            -0.01779510
      0.5729220              0.00431572             0.25353900
      0.2221920              1.09818000             0.80066900
SP   1   1.00
      0.0778369              1.00000000             1.00000000
D    1   1.00
      0.9000000              1.0000000
D    1   1.00
      0.2250000              1.0000000
F    1   1.00
      0.3200000              1.0000000
****
P     0
S    6   1.00
  19413.3000000              0.0018516
   2909.4200000              0.0142062
    661.3640000              0.0699995
    185.7590000              0.2400790
     59.1943000              0.4847620
     20.0310000              0.3352000
SP   6   1.00
    339.4780000             -0.00278217             0.00456462
     81.0101000             -0.0360499              0.03369360
     25.8780000             -0.1166310              0.13975500
      9.4522100              0.0968328              0.33936200
      3.6656600              0.6144180              0.45092100
      1.4674600              0.4037980              0.23858600
SP   3   1.00
      2.1562300             -0.2529230             -0.01776530
      0.7489970              0.0328517              0.27405800
      0.2831450              1.0812500              0.78542100
SP   1   1.00
      0.0998317              1.0000000              1.00000000
D    1   1.00
      1.1000000              1.0000000
D    1   1.00
      0.2750000              1.0000000
F    1   1.00
      0.4500000              1.0000000
****
S     0
S    6   1.00
  21917.1000000              0.0018690
   3301.4900000              0.0142300
    754.1460000              0.0696960
    212.7110000              0.2384870
     67.9896000              0.4833070
     23.0515000              0.3380740
SP   6   1.00
    423.7350000             -0.0023767              0.0040610
    100.7100000             -0.0316930              0.0306810
     32.1599000             -0.1133170              0.1304520
     11.8079000              0.0560900              0.3272050
      4.6311000              0.5922550              0.4528510
      1.8702500              0.4550060              0.2560420
SP   3   1.00
      2.6158400             -0.2503740             -0.0145110
      0.9221670              0.0669570              0.3102630
      0.3412870              1.0545100              0.7544830
SP   1   1.00
      0.1171670              1.0000000              1.0000000
D    1   1.00
      1.3000000              1.0000000
D    1   1.00
      0.3250000              1.0000000
F    1   1.00
      0.5500000              1.0000000
****
Cl     0
S    6   1.00
  25180.1000000              0.0018330
   3780.3500000              0.0140340
    860.4740000              0.0690970
    242.1450000              0.2374520
     77.3349000              0.4830340
     26.2470000              0.3398560
SP   6   1.00
    491.7650000             -0.0022974              0.0039894
    116.9840000             -0.0307140              0.0303180
     37.4153000             -0.1125280              0.1298800
     13.7834000              0.0450160              0.3279510
      5.4521500              0.5893530              0.4535270
      2.2258800              0.4652060              0.2521540
SP   3   1.00
      3.1864900             -0.2518300             -0.0142990
      1.1442700              0.0615890              0.3235720
      0.4203770              1.0601800              0.7435070
SP   1   1.00
      0.1426570              1.0000000              1.0000000
D    1   1.00
      1.5000000              1.0000000
D    1   1.00
      0.3750000              1.0000000
F    1   1.00
      0.7000000              1.0000000
****
}

set {
reference uhf
freeze_core true
e_convergence 10
d_convergence 10
dft_spherical_points 1202
dft_radial_points 99
}

e = energy('b3lyp')

print_out('Grab this energy {0}'.format(e))
--------------------------------------------------------------------------

    Molecular point group: cs

    Geometry (in Bohr), charge = 0, multiplicity = 2:

       Center              X                  Y                   Z               Mass
    ------------   -----------------  -----------------  -----------------  -----------------
         C           -0.323340362326     0.000203898363     0.000000000000    12.000000000000
         C            0.061695637574    -1.400998262237    -2.426263062200    12.000000000000
         C            0.059909568174     2.801842699263     0.000000000000    12.000000000000
         C            0.061695637574    -1.400998262237     2.426263062200    12.000000000000
         H            2.088556931674    -1.647054072637    -2.849278891900     1.007825032230
         H           -0.763749985226    -0.386435470137    -4.023195582900     1.007825032230
         H           -0.765583203926    -3.291342578137    -2.348886725500     1.007825032230
         H            2.083546605874     3.281973669863     0.000000000000     1.007825032230
         H           -0.767283764726     3.683547179763     1.676611078100     1.007825032230
         H           -0.767283764726     3.683547179763    -1.676611078100     1.007825032230
         H            2.088556931674    -1.647054072637     2.849278891900     1.007825032230
         H           -0.765583203926    -3.291342578137     2.348886725500     1.007825032230
         H           -0.763749985226    -0.386435470137     4.023195582900     1.007825032230

  Charge       = 0
  Multiplicity = 2
  Basis Set: ANONYMOUS9C68AB6E
    Blend: 6-31G_2DFP_
  Basis Set: (ANONYMOUS9C68AB6E AUX)
    Blend: DEF2-UNIVERSAL-JKFIT

    Orbital Energies [Eh]
    ---------------------

    Alpha Occupied:

       1Ap   -10.180342     2Ap   -10.167055     1App  -10.167013
       3Ap   -10.166976     4Ap    -0.797766     5Ap    -0.686217
       2App   -0.686157     6Ap    -0.530775     7Ap    -0.441125
       8Ap    -0.434757     3App   -0.434586     9Ap    -0.382823
       4App   -0.382373     5App   -0.363611    10Ap    -0.338153
       6App   -0.337846    11Ap    -0.168961

    Alpha Virtual:

      12Ap     0.076073     7App    0.134108    13Ap     0.134203
       8App    0.142422    14Ap     0.142833    15Ap     0.154880
       9App    0.178643    16Ap     0.178909    17Ap     0.203550
      10App    0.214802    11App    0.275964    18Ap     0.276007
      19Ap     0.399100    12App    0.399357    20Ap     0.403344
      21Ap     0.423995    13App    0.424200    22Ap     0.456594
      23Ap     0.495377    14App    0.495401    15App    0.512161
      24Ap     0.513981    25Ap     0.578678    16App    0.578946
      17App    0.591379    26Ap     0.591868    27Ap     0.602602
      28Ap     0.624763    18App    0.631748    19App    0.636054
      29Ap     0.636467    30Ap     0.663373    20App    0.663453
      31Ap     0.683738    21App    0.683965    32Ap     0.734993
      22App    0.825346    33Ap     0.825467    23App    0.853915
      24App    0.914705    34Ap     0.915343    25App    0.944109
      35Ap     0.944614    26App    0.961226    36Ap     0.961381
      37Ap     1.003452    38Ap     1.127698    27App    1.128523
      39Ap     1.142204    40Ap     1.163117    28App    1.163433
      41Ap     1.223325    42Ap     1.274375    29App    1.274593
      43Ap     1.279369    30App    1.324279    44Ap     1.324431
      45Ap     1.355976    31App    1.366054    46Ap     1.366069
      32App    1.392452    33App    1.403560    47Ap     1.404534
      34App    1.416749    48Ap     1.417451    35App    1.427924
      36App    1.491501    49Ap     1.499060    37App    1.542826
      50Ap     1.542845    38App    1.573969    51Ap     1.574937
      52Ap     1.669829    39App    1.739331    53Ap     1.739492
      54Ap     1.768328    55Ap     1.830973    40App    1.831824
      41App    1.971721    56Ap     2.018299    42App    2.018970
      57Ap     2.019128    43App    2.052175    58Ap     2.053101
      44App    2.738473    59Ap     2.738501    60Ap     2.790926
      45App    2.811429    61Ap     2.889760    46App    2.890121
      62Ap     2.894974    47App    2.929188    63Ap     2.929799
      48App    2.958989    64Ap     2.964184    49App    2.964574
      65Ap     3.034003    50App    3.070634    66Ap     3.071937
      51App    3.084351    67Ap     3.168551    52App    3.169017
      68Ap     3.180577    69Ap     3.285199    53App    3.285431
      70Ap     3.326287    54App    3.328043    71Ap     3.375618
      55App    3.489089    72Ap     3.491233    56App    3.514008
      73Ap     3.525336    74Ap     3.568315    57App    3.568318
      58App    3.575292    59App    3.665964    75Ap     3.666789
      76Ap     3.679662    60App    3.693460    77Ap     3.694766
      78Ap     3.776719    61App    3.776875    79Ap     3.789169
      80Ap     3.912101    62App    3.912355    81Ap     4.034450
      63App    4.111242    82Ap     4.111496    64App    4.148091
      83Ap     4.148139    84Ap     4.173246    85Ap     4.202108
      86Ap     4.203281    65App    4.203421    66App    4.210837
      67App    4.315773    87Ap     4.316149    68App    4.358977
      69App    4.424397    88Ap     4.424540    70App    4.443408
      71App    4.516230    89Ap     4.517417    90Ap     4.578268
      72App    4.578290    91Ap     4.617580    92Ap     4.709399
      73App    4.773989    93Ap     4.775208    74App    4.836908
      94Ap     4.962865    75App    5.002398    95Ap     5.003506
      96Ap     5.228065    76App    5.246261    97Ap     5.247358
      98Ap     5.355456    77App    5.355559    78App    5.479345

    Beta Occupied:

       1Ap   -10.167807     1App  -10.167768     2Ap   -10.167749
       3Ap   -10.166520     4Ap    -0.781091     5Ap    -0.684014
       2App   -0.683965     6Ap    -0.511747     7Ap    -0.431140
       3App   -0.430945     8Ap    -0.421823     9Ap    -0.376914
       4App   -0.376452     5App   -0.362595    10Ap    -0.333264
       6App   -0.332981

    Beta Virtual:

      11Ap    -0.025743    12Ap     0.077082     7App    0.135004
      13Ap     0.135086     8App    0.144315    14Ap     0.144682
      15Ap     0.163339     9App    0.182310    16Ap     0.182586
      10App    0.215032    17Ap     0.218932    11App    0.282307
      18Ap     0.282360    19Ap     0.400273    12App    0.400522
      20Ap     0.419791    21Ap     0.426805    13App    0.427012
      22Ap     0.468502    23Ap     0.497638    14App    0.497663
      15App    0.513896    24Ap     0.556326    25Ap     0.584224
      16App    0.584502    17App    0.597554    26Ap     0.598056
      27Ap     0.610020    28Ap     0.628139    18App    0.631915
      19App    0.639331    29Ap     0.639751    30Ap     0.666928
      20App    0.667025    31Ap     0.686389    21App    0.686585
      32Ap     0.757516    22App    0.830518    33Ap     0.830632
      23App    0.855268    24App    0.922702    34Ap     0.923290
      25App    0.945947    35Ap     0.953540    26App    0.966543
      36Ap     0.966676    37Ap     1.008692    38Ap     1.131771
      27App    1.132505    39Ap     1.155577    40Ap     1.168164
      28App    1.168539    41Ap     1.232297    42Ap     1.279988
      29App    1.280178    43Ap     1.285121    30App    1.329264
      44Ap     1.329425    45Ap     1.365378    46Ap     1.371311
      31App    1.371314    32App    1.393510    33App    1.407019
      47Ap     1.408005    34App    1.421789    48Ap     1.422497
      35App    1.428205    36App    1.492550    49Ap     1.509501
      50Ap     1.547156    37App    1.547337    38App    1.581747
      51Ap     1.582898    52Ap     1.674675    39App    1.745095
      53Ap     1.745252    54Ap     1.779107    55Ap     1.834834
      40App    1.835675    41App    1.972581    42App    2.025393
      56Ap     2.025512    57Ap     2.039670    43App    2.058876
      58Ap     2.059830    44App    2.746797    59Ap     2.746849
      45App    2.811841    60Ap     2.816061    61Ap     2.902449
      46App    2.902833    62Ap     2.924655    47App    2.931678
      63Ap     2.932271    48App    2.960056    64Ap     2.968730
      49App    2.969113    65Ap     3.041938    50App    3.080502
      66Ap     3.081889    51App    3.086167    67Ap     3.184306
      52App    3.184772    68Ap     3.188251    69Ap     3.289960
      53App    3.290267    70Ap     3.330103    54App    3.331836
      71Ap     3.383436    55App    3.491842    72Ap     3.493941
      56App    3.512373    73Ap     3.528381    57App    3.574884
      58App    3.581712    74Ap     3.581867    59App    3.670723
      75Ap     3.671527    76Ap     3.692947    60App    3.725344
      77Ap     3.726165    78Ap     3.781281    61App    3.781372
      79Ap     3.817700    80Ap     3.921911    62App    3.922178
      81Ap     4.045338    63App    4.118084    82Ap     4.118287
      64App    4.155217    83Ap     4.155429    84Ap     4.187305
      85Ap     4.208507    65App    4.209359    86Ap     4.210789
      66App    4.215309    67App    4.323243    87Ap     4.323561
      68App    4.362337    69App    4.432602    88Ap     4.432767
      70App    4.446289    71App    4.524028    89Ap     4.525201
      90Ap     4.588854    72App    4.588907    91Ap     4.624773
      92Ap     4.719743    73App    4.780912    93Ap     4.782193
      74App    4.839825    94Ap     4.967660    75App    5.006453
      95Ap     5.007530    96Ap     5.233781    76App    5.248046
      97Ap     5.249141    98Ap     5.361944    77App    5.362033
      78App    5.481667

    Final Occupation by Irrep:
             Ap   App
    DOCC [    10,    6 ]
    SOCC [     1,    0 ]

  @DF-UKS Final Energy:  -157.81306788792062

   => Energetics <=

    Nuclear Repulsion Energy =            125.3945926324343247
    One-Electron Energy =                -458.7488442171498377
    Two-Electron Energy =                 195.8483262113543901
    DFT Exchange-Correlation Energy =     -20.3071425145595228
    Empirical Dispersion Energy =           0.0000000000000000
    VV10 Nonlocal Energy =                  0.0000000000000000
    Total Energy =                       -157.8130678879206243

  UHF NO Occupations:
  HONO-2 :    9 Ap 1.9996009
  HONO-1 :   10 Ap 1.9989805
  HONO-0 :   11 Ap 1.0000000
  LUNO+0 :   12 Ap 0.0010195
  LUNO+1 :   13 Ap 0.0003991
  LUNO+2 :    7App 0.0001977
  LUNO+3 :   14 Ap 0.0001974

Computation Completed

Properties will be evaluated at   0.000000,   0.000000,   0.000000 [a0]

Properties computed using the SCF density matrix

  Nuclear Dipole Moment: [e a0]
     X:     0.8272      Y:    -0.0003      Z:     0.0000

  Electronic Dipole Moment: [e a0]
     X:    -0.7493      Y:     0.0011      Z:     0.0000

  Dipole Moment: [e a0]
     X:     0.0779      Y:     0.0008      Z:     0.0000     Total:     0.0779

  Dipole Moment: [D]
     X:     0.1980      Y:     0.0019      Z:     0.0000     Total:     0.1980

*** tstop() called on n054 at Fri Nov  5 15:21:22 2021
Module time:
	user time   =     541.97 seconds =       9.03 minutes
	system time =      12.04 seconds =       0.20 minutes
	total time  =        140 seconds =       2.33 minutes
Total time:
	user time   =     541.97 seconds =       9.03 minutes
	system time =      12.04 seconds =       0.20 minutes
	total time  =        140 seconds =       2.33 minutes
Grab this energy -157.81306788792062
    Psi4 stopped on: Friday, 05 November 2021 03:21PM
    Psi4 wall time for execution: 0:02:19.35

*** Psi4 exiting successfully. Buy a developer a beer!
