                               Psi4 1.4a2.dev629

  ==> Input File <==

--------------------------------------------------------------------------
import os
memory 14 GB

molecule {
 C   -0.3233409111   -0.0002416406   -0.0000000000
 C    0.0614764629   -1.4017627452   -2.4259204201
 C    0.0603460446    2.8016717777   -0.0000000000
 C    0.0614764629   -1.4017627452    2.4259204201
 H    2.0888981294   -1.6439350673   -2.8472541516
 H   -0.7676028777   -0.3895060096   -4.0251791284
 H   -0.7659230261   -3.2900299010   -2.3497220608
 H    2.0828774286    3.2885831902   -0.0000000000
 H   -0.7630939078    3.6802149027    1.6798351884
 H   -0.7630939078    3.6802149027   -1.6798351884
 H    2.0888981294   -1.6439350673    2.8472541516
 H   -0.7659230261   -3.2900299010    2.3497220608
 H   -0.7676028777   -0.3895060096    4.0251791284
units bohr
0 2
}

basis {

assign 6-31g_2dfp_

[ 6-31g_2dfp_ ]

spherical

!----------------------------------------------------------------------
! Basis Set Exchange
! Version v0.8.13
! https://www.basissetexchange.org
!----------------------------------------------------------------------
!   Basis set: 6-31G(2df,p)
! Description: 6-31G(2df,p)
!        Role: orbital
!     Version: 0  (Data from the original Basis Set Exchange)
!----------------------------------------------------------------------

****
H     0
S    3   1.00
     18.7311370              0.03349460
      2.8253937              0.23472695
      0.6401217              0.81375733
S    1   1.00
      0.1612778              1.00000000
P    1   1.00
      1.5000000              1.0000000
P    1   1.00
      0.3750000              1.0000000
****
B     0
S    6   1.00
   2068.8823000              0.0018663
    310.6495700              0.0142515
     70.6830330              0.0695516
     19.8610800              0.2325729
      6.2993048              0.4670787
      2.1270270              0.3634314
SP   3   1.00
      4.7279710             -0.1303938              0.0745976
      1.1903377             -0.1307889              0.3078467
      0.3594117              1.1309444              0.7434568
SP   1   1.00
      0.1267512              1.0000000              1.0000000
D    1   1.00
      0.8020000              1.0000000
D    1   1.00
      0.2005000              1.0000000
F    1   1.00
      0.5000000              1.0000000
****
C     0
S    6   1.00
   3047.5249000              0.0018347
    457.3695100              0.0140373
    103.9486900              0.0688426
     29.2101550              0.2321844
      9.2866630              0.4679413
      3.1639270              0.3623120
SP   3   1.00
      7.8682724             -0.1193324              0.0689991
      1.8812885             -0.1608542              0.3164240
      0.5442493              1.1434564              0.7443083
SP   1   1.00
      0.1687144              1.0000000              1.0000000
D    1   1.00
      1.2520000              1.0000000
D    1   1.00
      0.3130000              1.0000000
F    1   1.00
      0.8000000              1.0000000
****
N     0
S    6   1.00
   4173.5110000              0.0018348
    627.4579000              0.0139950
    142.9021000              0.0685870
     40.2343300              0.2322410
     12.8202100              0.4690700
      4.3904370              0.3604550
SP   3   1.00
     11.6263580             -0.1149610              0.0675800
      2.7162800             -0.1691180              0.3239070
      0.7722180              1.1458520              0.7408950
SP   1   1.00
      0.2120313              1.0000000              1.0000000
D    1   1.00
      1.8260000              1.0000000
D    1   1.00
      0.4565000              1.0000000
F    1   1.00
      1.0000000              1.0000000
****
O     0
S    6   1.00
   5484.6717000              0.0018311
    825.2349500              0.0139501
    188.0469600              0.0684451
     52.9645000              0.2327143
     16.8975700              0.4701930
      5.7996353              0.3585209
SP   3   1.00
     15.5396160             -0.1107775              0.0708743
      3.5999336             -0.1480263              0.3397528
      1.0137618              1.1307670              0.7271586
SP   1   1.00
      0.2700058              1.0000000              1.0000000
D    1   1.00
      2.5840000              1.0000000
D    1   1.00
      0.6460000              1.0000000
F    1   1.00
      1.4000000              1.0000000
****
F     0
S    6   1.00
   7001.7130900              0.0018196169
   1051.3660900              0.0139160796
    239.2856900              0.0684053245
     67.3974453              0.233185760
     21.5199573              0.471267439
      7.40310130             0.356618546
SP   3   1.00
     20.8479528             -0.108506975            0.0716287243
      4.80830834            -0.146451658            0.3459121030
      1.34406986             1.128688580            0.7224699570
SP   1   1.00
      0.358151393            1.0000000              1.0000000
D    1   1.00
      3.5000000              1.0000000
D    1   1.00
      0.8750000              1.0000000
F    1   1.00
      1.8500000              1.0000000
****
Al     0
S    6   1.00
  13983.1000000              0.00194267
   2098.7500000              0.0148599
    477.7050000              0.0728494
    134.3600000              0.2468300
     42.8709000              0.4872580
     14.5189000              0.3234960
SP   6   1.00
    239.6680000             -0.00292619             0.00460285
     57.4419000             -0.0374080              0.0331990
     18.2859000             -0.1144870              0.1362820
      6.5991400              0.1156350              0.3304760
      2.4904900              0.6125950              0.4491460
      0.9445400              0.3937990              0.2657040
SP   3   1.00
      1.2779000             -0.2276060             -0.0175130
      0.3975900              0.00144583             0.2445330
      0.1600950              1.0927900              0.8049340
SP   1   1.00
      0.0556577              1.0000000              1.0000000
D    1   1.00
      0.6500000              1.0000000
D    1   1.00
      0.1625000              1.0000000
F    1   1.00
      0.2500000              1.0000000
****
Si     0
S    6   1.00
  16115.9000000              0.00195948
   2425.5800000              0.01492880
    553.8670000              0.07284780
    156.3400000              0.24613000
     50.0683000              0.48591400
     17.0178000              0.32500200
SP   6   1.00
    292.7180000             -0.00278094             0.00443826
     69.8731000             -0.03571460             0.03266790
     22.3363000             -0.11498500             0.13472100
      8.1503900              0.09356340             0.32867800
      3.1345800              0.60301700             0.44964000
      1.2254300              0.41895900             0.26137200
SP   3   1.00
      1.7273800             -0.24463000            -0.01779510
      0.5729220              0.00431572             0.25353900
      0.2221920              1.09818000             0.80066900
SP   1   1.00
      0.0778369              1.00000000             1.00000000
D    1   1.00
      0.9000000              1.0000000
D    1   1.00
      0.2250000              1.0000000
F    1   1.00
      0.3200000              1.0000000
****
P     0
S    6   1.00
  19413.3000000              0.0018516
   2909.4200000              0.0142062
    661.3640000              0.0699995
    185.7590000              0.2400790
     59.1943000              0.4847620
     20.0310000              0.3352000
SP   6   1.00
    339.4780000             -0.00278217             0.00456462
     81.0101000             -0.0360499              0.03369360
     25.8780000             -0.1166310              0.13975500
      9.4522100              0.0968328              0.33936200
      3.6656600              0.6144180              0.45092100
      1.4674600              0.4037980              0.23858600
SP   3   1.00
      2.1562300             -0.2529230             -0.01776530
      0.7489970              0.0328517              0.27405800
      0.2831450              1.0812500              0.78542100
SP   1   1.00
      0.0998317              1.0000000              1.00000000
D    1   1.00
      1.1000000              1.0000000
D    1   1.00
      0.2750000              1.0000000
F    1   1.00
      0.4500000              1.0000000
****
S     0
S    6   1.00
  21917.1000000              0.0018690
   3301.4900000              0.0142300
    754.1460000              0.0696960
    212.7110000              0.2384870
     67.9896000              0.4833070
     23.0515000              0.3380740
SP   6   1.00
    423.7350000             -0.0023767              0.0040610
    100.7100000             -0.0316930              0.0306810
     32.1599000             -0.1133170              0.1304520
     11.8079000              0.0560900              0.3272050
      4.6311000              0.5922550              0.4528510
      1.8702500              0.4550060              0.2560420
SP   3   1.00
      2.6158400             -0.2503740             -0.0145110
      0.9221670              0.0669570              0.3102630
      0.3412870              1.0545100              0.7544830
SP   1   1.00
      0.1171670              1.0000000              1.0000000
D    1   1.00
      1.3000000              1.0000000
D    1   1.00
      0.3250000              1.0000000
F    1   1.00
      0.5500000              1.0000000
****
Cl     0
S    6   1.00
  25180.1000000              0.0018330
   3780.3500000              0.0140340
    860.4740000              0.0690970
    242.1450000              0.2374520
     77.3349000              0.4830340
     26.2470000              0.3398560
SP   6   1.00
    491.7650000             -0.0022974              0.0039894
    116.9840000             -0.0307140              0.0303180
     37.4153000             -0.1125280              0.1298800
     13.7834000              0.0450160              0.3279510
      5.4521500              0.5893530              0.4535270
      2.2258800              0.4652060              0.2521540
SP   3   1.00
      3.1864900             -0.2518300             -0.0142990
      1.1442700              0.0615890              0.3235720
      0.4203770              1.0601800              0.7435070
SP   1   1.00
      0.1426570              1.0000000              1.0000000
D    1   1.00
      1.5000000              1.0000000
D    1   1.00
      0.3750000              1.0000000
F    1   1.00
      0.7000000              1.0000000
****
}

set {
reference uhf
freeze_core true
e_convergence 10
d_convergence 10
dft_spherical_points 1202
dft_radial_points 99
}

e = energy('b3lyp')

print_out('Grab this energy {0}'.format(e))
--------------------------------------------------------------------------

    Molecular point group: cs

    Geometry (in Bohr), charge = 0, multiplicity = 2:

       Center              X                  Y                   Z               Mass
    ------------   -----------------  -----------------  -----------------  -----------------
         C           -0.323340534392     0.000162368898     0.000000000000    12.000000000000
         C            0.061476839608    -1.401358735702    -2.425920420100    12.000000000000
         C            0.060346421308     2.802075787198     0.000000000000    12.000000000000
         C            0.061476839608    -1.401358735702     2.425920420100    12.000000000000
         H            2.088898506108    -1.643531057802    -2.847254151600     1.007825032230
         H           -0.767602500992    -0.389102000102    -4.025179128400     1.007825032230
         H           -0.765922649392    -3.289625891502    -2.349722060800     1.007825032230
         H            2.082877805308     3.288987199698     0.000000000000     1.007825032230
         H           -0.763093531092     3.680618912198     1.679835188400     1.007825032230
         H           -0.763093531092     3.680618912198    -1.679835188400     1.007825032230
         H            2.088898506108    -1.643531057802     2.847254151600     1.007825032230
         H           -0.765922649392    -3.289625891502     2.349722060800     1.007825032230
         H           -0.767602500992    -0.389102000102     4.025179128400     1.007825032230

  Charge       = 0
  Multiplicity = 2
  Basis Set: ANONYMOUSD9FC955D
    Blend: 6-31G_2DFP_
  Basis Set: (ANONYMOUSD9FC955D AUX)
    Blend: DEF2-UNIVERSAL-JKFIT

    Orbital Energies [Eh]
    ---------------------

    Alpha Occupied:

       1Ap   -10.180342     2Ap   -10.167034     1App  -10.167027
       3Ap   -10.166984     4Ap    -0.797766     5Ap    -0.686221
       2App   -0.686153     6Ap    -0.530777     7Ap    -0.441124
       3App   -0.434751     8Ap    -0.434591     4App   -0.382725
       9Ap    -0.382471     5App   -0.363611    10Ap    -0.338051
       6App   -0.337946    11Ap    -0.168961

    Alpha Virtual:

      12Ap     0.076072     7App    0.134024    13Ap     0.134288
      14Ap     0.142626     8App    0.142629    15Ap     0.154879
      16Ap     0.178749     9App    0.178807    17Ap     0.203547
      10App    0.214802    18Ap     0.275965    11App    0.276006
      12App    0.399108    19Ap     0.399349    20Ap     0.403346
      13App    0.423964    21Ap     0.424229    22Ap     0.456593
      23Ap     0.495269    14App    0.495506    15App    0.512161
      24Ap     0.513981    16App    0.578733    25Ap     0.578901
      17App    0.591606    26Ap     0.591661    27Ap     0.602574
      28Ap     0.624761    18App    0.631765    29Ap     0.636248
      19App    0.636256    20App    0.663210    30Ap     0.663617
      31Ap     0.683828    21App    0.683879    32Ap     0.734995
      33Ap     0.825401    22App    0.825403    23App    0.853924
      24App    0.914830    34Ap     0.915220    25App    0.944125
      35Ap     0.944611    26App    0.961237    36Ap     0.961354
      37Ap     1.003449    38Ap     1.128045    27App    1.128166
      39Ap     1.142216    28App    1.163253    40Ap     1.163293
      41Ap     1.223325    29App    1.274487    42Ap     1.274495
      43Ap     1.279355    44Ap     1.324153    30App    1.324565
      45Ap     1.355924    31App    1.365718    46Ap     1.366385
      32App    1.392457    33App    1.403703    47Ap     1.404419
      48Ap     1.416328    34App    1.417931    35App    1.427910
      36App    1.491493    49Ap     1.499090    37App    1.542409
      50Ap     1.543249    51Ap     1.574442    38App    1.574455
      52Ap     1.669817    53Ap     1.739143    39App    1.739682
      54Ap     1.768329    55Ap     1.830800    40App    1.831996
      41App    1.971717    56Ap     2.018255    57Ap     2.018907
      42App    2.019234    43App    2.052070    58Ap     2.053226
      44App    2.738110    59Ap     2.738855    60Ap     2.790924
      45App    2.811425    46App    2.889697    61Ap     2.890202
      62Ap     2.894951    47App    2.929461    63Ap     2.929532
      48App    2.958999    49App    2.964159    64Ap     2.964587
      65Ap     3.034014    50App    3.071138    66Ap     3.071431
      51App    3.084357    67Ap     3.168439    52App    3.169133
      68Ap     3.180585    69Ap     3.284952    53App    3.285672
      70Ap     3.326783    54App    3.327523    71Ap     3.375635
      55App    3.490006    72Ap     3.490325    56App    3.514014
      73Ap     3.525321    74Ap     3.568181    57App    3.568609
      58App    3.575146    59App    3.665977    75Ap     3.666796
      76Ap     3.679657    77Ap     3.693996    60App    3.694248
      78Ap     3.776735    61App    3.776885    79Ap     3.789123
      80Ap     3.912205    62App    3.912249    81Ap     4.034435
      63App    4.110827    82Ap     4.111892    83Ap     4.147594
      64App    4.148628    84Ap     4.173230    85Ap     4.201317
      86Ap     4.203523    65App    4.203957    66App    4.210903
      67App    4.314690    87Ap     4.317250    68App    4.358973
      88Ap     4.424257    69App    4.424673    70App    4.443415
      89Ap     4.516482    71App    4.517194    72App    4.578175
      90Ap     4.578355    91Ap     4.617549    92Ap     4.709451
      93Ap     4.774533    73App    4.774653    74App    4.836891
      94Ap     4.962870    75App    5.002653    95Ap     5.003256
      96Ap     5.227970    76App    5.244731    97Ap     5.248868
      77App    5.354025    98Ap     5.357035    78App    5.479372

    Beta Occupied:

       1Ap   -10.167787     1App  -10.167780     2Ap   -10.167757
       3Ap   -10.166519     4Ap    -0.781091     5Ap    -0.684019
       2App   -0.683961     6Ap    -0.511748     3App   -0.431132
       7Ap    -0.430951     8Ap    -0.421822     4App   -0.376798
       9Ap    -0.376569     5App   -0.362595    10Ap    -0.333183
       6App   -0.333060

    Beta Virtual:

      11Ap    -0.025742    12Ap     0.077081     7App    0.134915
      13Ap     0.135176    14Ap     0.144475     8App    0.144520
      15Ap     0.163338    16Ap     0.182437     9App    0.182462
      10App    0.215032    17Ap     0.218930    18Ap     0.282308
      11App    0.282359    12App    0.400274    19Ap     0.400523
      20Ap     0.419792    13App    0.426773    21Ap     0.427043
      22Ap     0.468501    23Ap     0.497520    14App    0.497777
      15App    0.513896    24Ap     0.556325    16App    0.584294
      25Ap     0.584441    17App    0.597767    26Ap     0.597860
      27Ap     0.609996    28Ap     0.628137    18App    0.631926
      29Ap     0.639533    19App    0.639538    20App    0.666790
      30Ap     0.667165    31Ap     0.686484    21App    0.686494
      32Ap     0.757518    33Ap     0.830565    22App    0.830574
      23App    0.855278    24App    0.922813    34Ap     0.923179
      25App    0.945962    35Ap     0.953539    26App    0.966520
      36Ap     0.966682    37Ap     1.008690    38Ap     1.131975
      27App    1.132292    39Ap     1.155593    28App    1.168241
      40Ap     1.168454    41Ap     1.232297    29App    1.280077
      42Ap     1.280097    43Ap     1.285111    44Ap     1.329129
      30App    1.329567    45Ap     1.365329    31App    1.371008
      46Ap     1.371584    32App    1.393514    33App    1.407139
      47Ap     1.407921    48Ap     1.421379    34App    1.422982
      35App    1.428181    36App    1.492541    49Ap     1.509534
      37App    1.546763    50Ap     1.547712    51Ap     1.582275
      38App    1.582364    52Ap     1.674664    53Ap     1.744914
      39App    1.745436    54Ap     1.779107    55Ap     1.834649
      40App    1.835858    41App    1.972578    56Ap     2.025288
      42App    2.025619    57Ap     2.039659    43App    2.058801
      58Ap     2.059932    44App    2.746449    59Ap     2.747187
      45App    2.811836    60Ap     2.816059    46App    2.902445
      61Ap     2.902842    62Ap     2.924646    47App    2.931912
      63Ap     2.932041    48App    2.960062    49App    2.968685
      64Ap     2.969153    65Ap     3.041948    50App    3.080961
      66Ap     3.081428    51App    3.086175    67Ap     3.184108
      52App    3.184972    68Ap     3.188258    69Ap     3.289750
      53App    3.290471    70Ap     3.330553    54App    3.331365
      71Ap     3.383451    55App    3.492699    72Ap     3.493094
      56App    3.512379    73Ap     3.528367    57App    3.574998
      74Ap     3.581541    58App    3.581936    59App    3.670617
      75Ap     3.671658    76Ap     3.692949    77Ap     3.725453
      60App    3.726048    61App    3.781335    78Ap     3.781340
      79Ap     3.817668    80Ap     3.922015    62App    3.922072
      81Ap     4.045322    63App    4.117712    82Ap     4.118632
      83Ap     4.154906    64App    4.155740    84Ap     4.187283
      85Ap     4.207694    65App    4.209950    86Ap     4.211003
      66App    4.215379    67App    4.322105    87Ap     4.324714
      68App    4.362338    88Ap     4.432462    69App    4.432898
      70App    4.446295    89Ap     4.524279    71App    4.524979
      72App    4.588804    90Ap     4.588929    91Ap     4.624742
      92Ap     4.719796    93Ap     4.781505    73App    4.781586
      74App    4.839808    94Ap     4.967664    75App    5.006693
      95Ap     5.007294    96Ap     5.233684    76App    5.246527
      97Ap     5.250643    77App    5.360497    98Ap     5.363523
      78App    5.481693

    Final Occupation by Irrep:
             Ap   App
    DOCC [    10,    6 ]
    SOCC [     1,    0 ]

  @DF-UKS Final Energy:  -157.81306668862945

   => Energetics <=

    Nuclear Repulsion Energy =            125.3946015912959240
    One-Electron Energy =                -458.7488648520499055
    Two-Electron Energy =                 195.8483392109031342
    DFT Exchange-Correlation Energy =     -20.3071426387785827
    Empirical Dispersion Energy =           0.0000000000000000
    VV10 Nonlocal Energy =                  0.0000000000000000
    Total Energy =                       -157.8130666886294478

  UHF NO Occupations:
  HONO-2 :    9 Ap 1.9996009
  HONO-1 :   10 Ap 1.9989805
  HONO-0 :   11 Ap 1.0000000
  LUNO+0 :   12 Ap 0.0010195
  LUNO+1 :   13 Ap 0.0003991
  LUNO+2 :    7App 0.0001977
  LUNO+3 :   14 Ap 0.0001974

Computation Completed

Properties will be evaluated at   0.000000,   0.000000,   0.000000 [a0]

Properties computed using the SCF density matrix

  Nuclear Dipole Moment: [e a0]
     X:     0.8272      Y:     0.0028      Z:     0.0000

  Electronic Dipole Moment: [e a0]
     X:    -0.7493      Y:    -0.0034      Z:     0.0000

  Dipole Moment: [e a0]
     X:     0.0779      Y:    -0.0005      Z:     0.0000     Total:     0.0779

  Dipole Moment: [D]
     X:     0.1980      Y:    -0.0013      Z:     0.0000     Total:     0.1980

*** tstop() called on n049 at Fri Nov  5 12:31:38 2021
Module time:
	user time   =     545.38 seconds =       9.09 minutes
	system time =      12.09 seconds =       0.20 minutes
	total time  =        140 seconds =       2.33 minutes
Total time:
	user time   =     545.38 seconds =       9.09 minutes
	system time =      12.09 seconds =       0.20 minutes
	total time  =        140 seconds =       2.33 minutes
Grab this energy -157.81306668862945
    Psi4 stopped on: Friday, 05 November 2021 12:31PM
    Psi4 wall time for execution: 0:02:20.19

*** Psi4 exiting successfully. Buy a developer a beer!
