                               Psi4 1.4a2.dev629

  ==> Input File <==

--------------------------------------------------------------------------
import os
memory 14 GB

molecule {
 C   -0.3208664920   -0.0000019754   -0.0000000000
 C    0.0613432982   -1.4008477163   -2.4263290712
 C    0.0612235610    2.8016997941    0.0000000000
 C    0.0613432982   -1.4008477163    2.4263290712
 H    2.0836756732   -1.6438648014   -2.8470384110
 H   -0.7642881550   -0.3862635162   -4.0269044353
 H   -0.7644521433   -3.2942113545   -2.3480035942
 H    2.0835365691    3.2876377817    0.0000000000
 H   -0.7645294306    3.6805074313    1.6789075223
 H   -0.7645294306    3.6805074313   -1.6789075223
 H    2.0836756732   -1.6438648014    2.8470384110
 H   -0.7644521433   -3.2942113545    2.3480035942
 H   -0.7642881550   -0.3862635162    4.0269044353
units bohr
0 2
}

basis {

assign 6-31g_2dfp_

[ 6-31g_2dfp_ ]

spherical

!----------------------------------------------------------------------
! Basis Set Exchange
! Version v0.8.13
! https://www.basissetexchange.org
!----------------------------------------------------------------------
!   Basis set: 6-31G(2df,p)
! Description: 6-31G(2df,p)
!        Role: orbital
!     Version: 0  (Data from the original Basis Set Exchange)
!----------------------------------------------------------------------

****
H     0
S    3   1.00
     18.7311370              0.03349460
      2.8253937              0.23472695
      0.6401217              0.81375733
S    1   1.00
      0.1612778              1.00000000
P    1   1.00
      1.5000000              1.0000000
P    1   1.00
      0.3750000              1.0000000
****
B     0
S    6   1.00
   2068.8823000              0.0018663
    310.6495700              0.0142515
     70.6830330              0.0695516
     19.8610800              0.2325729
      6.2993048              0.4670787
      2.1270270              0.3634314
SP   3   1.00
      4.7279710             -0.1303938              0.0745976
      1.1903377             -0.1307889              0.3078467
      0.3594117              1.1309444              0.7434568
SP   1   1.00
      0.1267512              1.0000000              1.0000000
D    1   1.00
      0.8020000              1.0000000
D    1   1.00
      0.2005000              1.0000000
F    1   1.00
      0.5000000              1.0000000
****
C     0
S    6   1.00
   3047.5249000              0.0018347
    457.3695100              0.0140373
    103.9486900              0.0688426
     29.2101550              0.2321844
      9.2866630              0.4679413
      3.1639270              0.3623120
SP   3   1.00
      7.8682724             -0.1193324              0.0689991
      1.8812885             -0.1608542              0.3164240
      0.5442493              1.1434564              0.7443083
SP   1   1.00
      0.1687144              1.0000000              1.0000000
D    1   1.00
      1.2520000              1.0000000
D    1   1.00
      0.3130000              1.0000000
F    1   1.00
      0.8000000              1.0000000
****
N     0
S    6   1.00
   4173.5110000              0.0018348
    627.4579000              0.0139950
    142.9021000              0.0685870
     40.2343300              0.2322410
     12.8202100              0.4690700
      4.3904370              0.3604550
SP   3   1.00
     11.6263580             -0.1149610              0.0675800
      2.7162800             -0.1691180              0.3239070
      0.7722180              1.1458520              0.7408950
SP   1   1.00
      0.2120313              1.0000000              1.0000000
D    1   1.00
      1.8260000              1.0000000
D    1   1.00
      0.4565000              1.0000000
F    1   1.00
      1.0000000              1.0000000
****
O     0
S    6   1.00
   5484.6717000              0.0018311
    825.2349500              0.0139501
    188.0469600              0.0684451
     52.9645000              0.2327143
     16.8975700              0.4701930
      5.7996353              0.3585209
SP   3   1.00
     15.5396160             -0.1107775              0.0708743
      3.5999336             -0.1480263              0.3397528
      1.0137618              1.1307670              0.7271586
SP   1   1.00
      0.2700058              1.0000000              1.0000000
D    1   1.00
      2.5840000              1.0000000
D    1   1.00
      0.6460000              1.0000000
F    1   1.00
      1.4000000              1.0000000
****
F     0
S    6   1.00
   7001.7130900              0.0018196169
   1051.3660900              0.0139160796
    239.2856900              0.0684053245
     67.3974453              0.233185760
     21.5199573              0.471267439
      7.40310130             0.356618546
SP   3   1.00
     20.8479528             -0.108506975            0.0716287243
      4.80830834            -0.146451658            0.3459121030
      1.34406986             1.128688580            0.7224699570
SP   1   1.00
      0.358151393            1.0000000              1.0000000
D    1   1.00
      3.5000000              1.0000000
D    1   1.00
      0.8750000              1.0000000
F    1   1.00
      1.8500000              1.0000000
****
Al     0
S    6   1.00
  13983.1000000              0.00194267
   2098.7500000              0.0148599
    477.7050000              0.0728494
    134.3600000              0.2468300
     42.8709000              0.4872580
     14.5189000              0.3234960
SP   6   1.00
    239.6680000             -0.00292619             0.00460285
     57.4419000             -0.0374080              0.0331990
     18.2859000             -0.1144870              0.1362820
      6.5991400              0.1156350              0.3304760
      2.4904900              0.6125950              0.4491460
      0.9445400              0.3937990              0.2657040
SP   3   1.00
      1.2779000             -0.2276060             -0.0175130
      0.3975900              0.00144583             0.2445330
      0.1600950              1.0927900              0.8049340
SP   1   1.00
      0.0556577              1.0000000              1.0000000
D    1   1.00
      0.6500000              1.0000000
D    1   1.00
      0.1625000              1.0000000
F    1   1.00
      0.2500000              1.0000000
****
Si     0
S    6   1.00
  16115.9000000              0.00195948
   2425.5800000              0.01492880
    553.8670000              0.07284780
    156.3400000              0.24613000
     50.0683000              0.48591400
     17.0178000              0.32500200
SP   6   1.00
    292.7180000             -0.00278094             0.00443826
     69.8731000             -0.03571460             0.03266790
     22.3363000             -0.11498500             0.13472100
      8.1503900              0.09356340             0.32867800
      3.1345800              0.60301700             0.44964000
      1.2254300              0.41895900             0.26137200
SP   3   1.00
      1.7273800             -0.24463000            -0.01779510
      0.5729220              0.00431572             0.25353900
      0.2221920              1.09818000             0.80066900
SP   1   1.00
      0.0778369              1.00000000             1.00000000
D    1   1.00
      0.9000000              1.0000000
D    1   1.00
      0.2250000              1.0000000
F    1   1.00
      0.3200000              1.0000000
****
P     0
S    6   1.00
  19413.3000000              0.0018516
   2909.4200000              0.0142062
    661.3640000              0.0699995
    185.7590000              0.2400790
     59.1943000              0.4847620
     20.0310000              0.3352000
SP   6   1.00
    339.4780000             -0.00278217             0.00456462
     81.0101000             -0.0360499              0.03369360
     25.8780000             -0.1166310              0.13975500
      9.4522100              0.0968328              0.33936200
      3.6656600              0.6144180              0.45092100
      1.4674600              0.4037980              0.23858600
SP   3   1.00
      2.1562300             -0.2529230             -0.01776530
      0.7489970              0.0328517              0.27405800
      0.2831450              1.0812500              0.78542100
SP   1   1.00
      0.0998317              1.0000000              1.00000000
D    1   1.00
      1.1000000              1.0000000
D    1   1.00
      0.2750000              1.0000000
F    1   1.00
      0.4500000              1.0000000
****
S     0
S    6   1.00
  21917.1000000              0.0018690
   3301.4900000              0.0142300
    754.1460000              0.0696960
    212.7110000              0.2384870
     67.9896000              0.4833070
     23.0515000              0.3380740
SP   6   1.00
    423.7350000             -0.0023767              0.0040610
    100.7100000             -0.0316930              0.0306810
     32.1599000             -0.1133170              0.1304520
     11.8079000              0.0560900              0.3272050
      4.6311000              0.5922550              0.4528510
      1.8702500              0.4550060              0.2560420
SP   3   1.00
      2.6158400             -0.2503740             -0.0145110
      0.9221670              0.0669570              0.3102630
      0.3412870              1.0545100              0.7544830
SP   1   1.00
      0.1171670              1.0000000              1.0000000
D    1   1.00
      1.3000000              1.0000000
D    1   1.00
      0.3250000              1.0000000
F    1   1.00
      0.5500000              1.0000000
****
Cl     0
S    6   1.00
  25180.1000000              0.0018330
   3780.3500000              0.0140340
    860.4740000              0.0690970
    242.1450000              0.2374520
     77.3349000              0.4830340
     26.2470000              0.3398560
SP   6   1.00
    491.7650000             -0.0022974              0.0039894
    116.9840000             -0.0307140              0.0303180
     37.4153000             -0.1125280              0.1298800
     13.7834000              0.0450160              0.3279510
      5.4521500              0.5893530              0.4535270
      2.2258800              0.4652060              0.2521540
SP   3   1.00
      3.1864900             -0.2518300             -0.0142990
      1.1442700              0.0615890              0.3235720
      0.4203770              1.0601800              0.7435070
SP   1   1.00
      0.1426570              1.0000000              1.0000000
D    1   1.00
      1.5000000              1.0000000
D    1   1.00
      0.3750000              1.0000000
F    1   1.00
      0.7000000              1.0000000
****
}

set {
reference uhf
freeze_core true
e_convergence 10
d_convergence 10
dft_spherical_points 1202
dft_radial_points 99
}

e = energy('b3lyp')

print_out('Grab this energy {0}'.format(e))
--------------------------------------------------------------------------

    Molecular point group: cs

    Geometry (in Bohr), charge = 0, multiplicity = 2:

       Center              X                  Y                   Z               Mass
    ------------   -----------------  -----------------  -----------------  -----------------
         C           -0.321460425244    -0.000002005615     0.000000000000    12.000000000000
         C            0.060749364956    -1.400847746515    -2.426329071200    12.000000000000
         C            0.060629627756     2.801699763885     0.000000000000    12.000000000000
         C            0.060749364956    -1.400847746515     2.426329071200    12.000000000000
         H            2.083081739956    -1.643864831615    -2.847038411000     1.007825032230
         H           -0.764882088244    -0.386263546415    -4.026904435300     1.007825032230
         H           -0.765046076544    -3.294211384715    -2.348003594200     1.007825032230
         H            2.082942635856     3.287637751485     0.000000000000     1.007825032230
         H           -0.765123363844     3.680507401085     1.678907522300     1.007825032230
         H           -0.765123363844     3.680507401085    -1.678907522300     1.007825032230
         H            2.083081739956    -1.643864831615     2.847038411000     1.007825032230
         H           -0.765046076544    -3.294211384715     2.348003594200     1.007825032230
         H           -0.764882088244    -0.386263546415     4.026904435300     1.007825032230

  Charge       = 0
  Multiplicity = 2
  Basis Set: ANONYMOUS043DC71C
    Blend: 6-31G_2DFP_
  Basis Set: (ANONYMOUS043DC71C AUX)
    Blend: DEF2-UNIVERSAL-JKFIT

    Orbital Energies [Eh]
    ---------------------

    Alpha Occupied:

       1Ap   -10.180218     2Ap   -10.167035     1App  -10.167035
       3Ap   -10.166989     4Ap    -0.797819     5Ap    -0.686211
       2App   -0.686210     6Ap    -0.530780     7Ap    -0.441163
       3App   -0.434691     8Ap    -0.434690     9Ap    -0.382629
       4App   -0.382627     5App   -0.363559     6App   -0.338037
      10Ap    -0.338037    11Ap    -0.168741

    Alpha Virtual:

      12Ap     0.075984    13Ap     0.134153     7App    0.134154
      14Ap     0.142585     8App    0.142585    15Ap     0.154965
      16Ap     0.178887     9App    0.178887    17Ap     0.203563
      10App    0.214577    11App    0.276182    18Ap     0.276184
      19Ap     0.399367    12App    0.399371    20Ap     0.403508
      13App    0.423937    21Ap     0.423937    22Ap     0.456575
      23Ap     0.495235    14App    0.495236    15App    0.512233
      24Ap     0.514232    25Ap     0.578851    16App    0.578859
      17App    0.591876    26Ap     0.591877    27Ap     0.603104
      28Ap     0.624341    18App    0.631449    19App    0.636030
      29Ap     0.636034    30Ap     0.663747    20App    0.663747
      31Ap     0.683713    21App    0.683714    32Ap     0.735128
      22App    0.825492    33Ap     0.825495    23App    0.854194
      24App    0.915309    34Ap     0.915315    25App    0.943792
      35Ap     0.944421    26App    0.961370    36Ap     0.961386
      37Ap     1.003639    38Ap     1.127761    27App    1.127773
      39Ap     1.142926    40Ap     1.162562    28App    1.162574
      41Ap     1.223074    42Ap     1.274798    29App    1.274801
      43Ap     1.279273    30App    1.324814    44Ap     1.324817
      45Ap     1.355210    31App    1.366490    46Ap     1.366495
      32App    1.392501    47Ap     1.405015    33App    1.405017
      34App    1.415917    48Ap     1.415923    35App    1.428068
      36App    1.491698    49Ap     1.499647    37App    1.543151
      50Ap     1.543152    51Ap     1.574356    38App    1.574358
      52Ap     1.668825    53Ap     1.740508    39App    1.740519
      54Ap     1.770117    40App    1.830382    55Ap     1.830383
      41App    1.970971    56Ap     2.018625    42App    2.018629
      57Ap     2.019402    43App    2.053630    58Ap     2.053631
      44App    2.738358    59Ap     2.738358    60Ap     2.791120
      45App    2.811002    61Ap     2.890581    46App    2.890587
      62Ap     2.894960    63Ap     2.929264    47App    2.929272
      48App    2.959200    64Ap     2.964903    49App    2.964917
      65Ap     3.034364    50App    3.072152    66Ap     3.072165
      51App    3.083026    67Ap     3.168781    52App    3.168789
      68Ap     3.180666    53App    3.284623    69Ap     3.284624
      70Ap     3.326168    54App    3.326174    71Ap     3.375267
      55App    3.490613    72Ap     3.490633    56App    3.515409
      73Ap     3.523679    57App    3.569073    74Ap     3.569094
      58App    3.575356    75Ap     3.667330    59App    3.667337
      76Ap     3.679257    60App    3.693874    77Ap     3.693889
      78Ap     3.776655    61App    3.776681    79Ap     3.791172
      80Ap     3.911690    62App    3.911697    81Ap     4.034298
      82Ap     4.111639    63App    4.111644    83Ap     4.148718
      64App    4.148726    84Ap     4.174995    65App    4.201977
      85Ap     4.201980    86Ap     4.203121    66App    4.211932
      87Ap     4.316214    67App    4.316234    68App    4.357278
      88Ap     4.425344    69App    4.425347    70App    4.443450
      71App    4.517204    89Ap     4.517206    72App    4.577457
      90Ap     4.577469    91Ap     4.618120    92Ap     4.709685
      93Ap     4.774625    73App    4.774632    74App    4.836724
      94Ap     4.962461    75App    5.004110    95Ap     5.004122
      96Ap     5.230894    76App    5.243914    97Ap     5.243914
      98Ap     5.357751    77App    5.357764    78App    5.477765

    Beta Occupied:

       1Ap   -10.167789     1App  -10.167789     2Ap   -10.167762
       3Ap   -10.166394     4Ap    -0.781133     5Ap    -0.684004
       2App   -0.684003     6Ap    -0.511711     3App   -0.431047
       7Ap    -0.431047     8Ap    -0.421889     9Ap    -0.376728
       4App   -0.376727     5App   -0.362535     6App   -0.333160
      10Ap    -0.333160

    Beta Virtual:

      11Ap    -0.025514    12Ap     0.076982    13Ap     0.134986
       7App    0.134987    14Ap     0.144475     8App    0.144476
      15Ap     0.163415    16Ap     0.182585     9App    0.182586
      10App    0.214813    17Ap     0.218969    11App    0.282513
      18Ap     0.282515    19Ap     0.400534    12App    0.400538
      20Ap     0.419885    13App    0.426746    21Ap     0.426746
      22Ap     0.468569    23Ap     0.497482    14App    0.497483
      15App    0.513965    24Ap     0.556616    25Ap     0.584386
      16App    0.584394    17App    0.598058    26Ap     0.598059
      27Ap     0.610419    28Ap     0.627831    18App    0.631604
      19App    0.639350    29Ap     0.639354    30Ap     0.667277
      20App    0.667278    31Ap     0.686366    21App    0.686367
      32Ap     0.757634    22App    0.830636    33Ap     0.830638
      23App    0.855542    24App    0.923251    34Ap     0.923258
      25App    0.945640    35Ap     0.953307    26App    0.966744
      36Ap     0.966760    37Ap     1.008900    38Ap     1.131745
      27App    1.131757    39Ap     1.156257    40Ap     1.167662
      28App    1.167674    41Ap     1.232067    42Ap     1.280401
      29App    1.280405    43Ap     1.285075    30App    1.329748
      44Ap     1.329750    45Ap     1.364671    31App    1.371668
      46Ap     1.371673    32App    1.393548    47Ap     1.408533
      33App    1.408536    34App    1.421027    48Ap     1.421034
      35App    1.428323    36App    1.492774    49Ap     1.510077
      50Ap     1.547528    37App    1.547529    38App    1.582246
      51Ap     1.582246    52Ap     1.673607    53Ap     1.746276
      39App    1.746287    54Ap     1.780929    40App    1.834245
      55Ap     1.834245    41App    1.971845    56Ap     2.025173
      42App    2.025178    57Ap     2.040774    43App    2.060203
      58Ap     2.060204    44App    2.746685    59Ap     2.746686
      45App    2.811402    60Ap     2.816313    61Ap     2.903250
      46App    2.903256    62Ap     2.924885    63Ap     2.931754
      47App    2.931763    48App    2.960265    64Ap     2.969472
      49App    2.969486    65Ap     3.042127    50App    3.082037
      66Ap     3.082048    51App    3.084846    67Ap     3.184620
      52App    3.184625    68Ap     3.188306    53App    3.289432
      69Ap     3.289432    70Ap     3.330000    54App    3.330005
      71Ap     3.383102    55App    3.493365    72Ap     3.493385
      56App    3.513769    73Ap     3.526729    57App    3.575220
      58App    3.582194    74Ap     3.582215    75Ap     3.672197
      59App    3.672207    76Ap     3.692582    60App    3.725496
      77Ap     3.725512    78Ap     3.781204    61App    3.781230
      79Ap     3.819700    80Ap     3.921487    62App    3.921494
      81Ap     4.045096    82Ap     4.118467    63App    4.118468
      83Ap     4.155920    64App    4.155929    84Ap     4.189073
      65App    4.207802    85Ap     4.207806    86Ap     4.211138
      66App    4.216303    87Ap     4.323694    67App    4.323714
      68App    4.360684    88Ap     4.433602    69App    4.433605
      70App    4.446377    71App    4.524977    89Ap     4.524979
      72App    4.588067    90Ap     4.588079    91Ap     4.625415
      92Ap     4.719886    93Ap     4.781613    73App    4.781621
      74App    4.839641    94Ap     4.967247    75App    5.008137
      95Ap     5.008149    96Ap     5.236643    76App    5.245712
      97Ap     5.245712    98Ap     5.364250    77App    5.364263
      78App    5.480092

    Final Occupation by Irrep:
             Ap   App
    DOCC [    10,    6 ]
    SOCC [     1,    0 ]

  @DF-UKS Final Energy:  -157.81307198986684

   => Energetics <=

    Nuclear Repulsion Energy =            125.4024056689124507
    One-Electron Energy =                -458.7643202745039730
    Two-Electron Energy =                 195.8561659927587471
    DFT Exchange-Correlation Energy =     -20.3073233770340451
    Empirical Dispersion Energy =           0.0000000000000000
    VV10 Nonlocal Energy =                  0.0000000000000000
    Total Energy =                       -157.8130719898668417

  UHF NO Occupations:
  HONO-2 :    9 Ap 1.9996018
  HONO-1 :   10 Ap 1.9989798
  HONO-0 :   11 Ap 1.0000000
  LUNO+0 :   12 Ap 0.0010202
  LUNO+1 :   13 Ap 0.0003982
  LUNO+2 :    7App 0.0001974
  LUNO+3 :   14 Ap 0.0001974

Computation Completed

Properties will be evaluated at   0.000000,   0.000000,   0.000000 [a0]

Properties computed using the SCF density matrix

  Nuclear Dipole Moment: [e a0]
     X:     0.8230      Y:    -0.0000      Z:    -0.0000

  Electronic Dipole Moment: [e a0]
     X:    -0.7427      Y:     0.0000      Z:     0.0000

  Dipole Moment: [e a0]
     X:     0.0803      Y:     0.0000      Z:    -0.0000     Total:     0.0803

  Dipole Moment: [D]
     X:     0.2042      Y:     0.0000      Z:    -0.0000     Total:     0.2042

*** tstop() called on n091 at Fri Nov  5 11:35:53 2021
Module time:
	user time   =     496.19 seconds =       8.27 minutes
	system time =       4.51 seconds =       0.08 minutes
	total time  =        126 seconds =       2.10 minutes
Total time:
	user time   =     496.19 seconds =       8.27 minutes
	system time =       4.51 seconds =       0.08 minutes
	total time  =        126 seconds =       2.10 minutes
Grab this energy -157.81307198986684
    Psi4 stopped on: Friday, 05 November 2021 11:35AM
    Psi4 wall time for execution: 0:02:05.91

*** Psi4 exiting successfully. Buy a developer a beer!
