                               Psi4 1.4a2.dev629

  ==> Input File <==

--------------------------------------------------------------------------
import os
memory 14 GB

molecule {
 C   -0.3233386659    0.0004305277    0.0010206629
 C    0.0603386490   -1.3992516839   -2.4277746536
 C    0.0613291662    2.8016517694   -0.0018022558
 C    0.0616341228   -1.4004722700    2.4262820949
 H    2.0874663213   -1.6417333611   -2.8487031992
 H   -0.7626954833   -0.3900939240   -4.0235505231
 H   -0.7682598039   -3.2939589381   -2.3487116971
 H    2.0858855786    3.2881106208    0.0006971864
 H   -0.7651486423    3.6800129929    1.6776998768
 H   -0.7654455266    3.6801932854   -1.6771360118
 H    2.0873222610   -1.6412129108    2.8491960314
 H   -0.7687802008   -3.2936846685    2.3491317469
 H   -0.7629156530   -0.3900157534    4.0236507413
units bohr
0 2
}

basis {

assign 6-31g_2dfp_

[ 6-31g_2dfp_ ]

spherical

!----------------------------------------------------------------------
! Basis Set Exchange
! Version v0.8.13
! https://www.basissetexchange.org
!----------------------------------------------------------------------
!   Basis set: 6-31G(2df,p)
! Description: 6-31G(2df,p)
!        Role: orbital
!     Version: 0  (Data from the original Basis Set Exchange)
!----------------------------------------------------------------------

****
H     0
S    3   1.00
     18.7311370              0.03349460
      2.8253937              0.23472695
      0.6401217              0.81375733
S    1   1.00
      0.1612778              1.00000000
P    1   1.00
      1.5000000              1.0000000
P    1   1.00
      0.3750000              1.0000000
****
B     0
S    6   1.00
   2068.8823000              0.0018663
    310.6495700              0.0142515
     70.6830330              0.0695516
     19.8610800              0.2325729
      6.2993048              0.4670787
      2.1270270              0.3634314
SP   3   1.00
      4.7279710             -0.1303938              0.0745976
      1.1903377             -0.1307889              0.3078467
      0.3594117              1.1309444              0.7434568
SP   1   1.00
      0.1267512              1.0000000              1.0000000
D    1   1.00
      0.8020000              1.0000000
D    1   1.00
      0.2005000              1.0000000
F    1   1.00
      0.5000000              1.0000000
****
C     0
S    6   1.00
   3047.5249000              0.0018347
    457.3695100              0.0140373
    103.9486900              0.0688426
     29.2101550              0.2321844
      9.2866630              0.4679413
      3.1639270              0.3623120
SP   3   1.00
      7.8682724             -0.1193324              0.0689991
      1.8812885             -0.1608542              0.3164240
      0.5442493              1.1434564              0.7443083
SP   1   1.00
      0.1687144              1.0000000              1.0000000
D    1   1.00
      1.2520000              1.0000000
D    1   1.00
      0.3130000              1.0000000
F    1   1.00
      0.8000000              1.0000000
****
N     0
S    6   1.00
   4173.5110000              0.0018348
    627.4579000              0.0139950
    142.9021000              0.0685870
     40.2343300              0.2322410
     12.8202100              0.4690700
      4.3904370              0.3604550
SP   3   1.00
     11.6263580             -0.1149610              0.0675800
      2.7162800             -0.1691180              0.3239070
      0.7722180              1.1458520              0.7408950
SP   1   1.00
      0.2120313              1.0000000              1.0000000
D    1   1.00
      1.8260000              1.0000000
D    1   1.00
      0.4565000              1.0000000
F    1   1.00
      1.0000000              1.0000000
****
O     0
S    6   1.00
   5484.6717000              0.0018311
    825.2349500              0.0139501
    188.0469600              0.0684451
     52.9645000              0.2327143
     16.8975700              0.4701930
      5.7996353              0.3585209
SP   3   1.00
     15.5396160             -0.1107775              0.0708743
      3.5999336             -0.1480263              0.3397528
      1.0137618              1.1307670              0.7271586
SP   1   1.00
      0.2700058              1.0000000              1.0000000
D    1   1.00
      2.5840000              1.0000000
D    1   1.00
      0.6460000              1.0000000
F    1   1.00
      1.4000000              1.0000000
****
F     0
S    6   1.00
   7001.7130900              0.0018196169
   1051.3660900              0.0139160796
    239.2856900              0.0684053245
     67.3974453              0.233185760
     21.5199573              0.471267439
      7.40310130             0.356618546
SP   3   1.00
     20.8479528             -0.108506975            0.0716287243
      4.80830834            -0.146451658            0.3459121030
      1.34406986             1.128688580            0.7224699570
SP   1   1.00
      0.358151393            1.0000000              1.0000000
D    1   1.00
      3.5000000              1.0000000
D    1   1.00
      0.8750000              1.0000000
F    1   1.00
      1.8500000              1.0000000
****
Al     0
S    6   1.00
  13983.1000000              0.00194267
   2098.7500000              0.0148599
    477.7050000              0.0728494
    134.3600000              0.2468300
     42.8709000              0.4872580
     14.5189000              0.3234960
SP   6   1.00
    239.6680000             -0.00292619             0.00460285
     57.4419000             -0.0374080              0.0331990
     18.2859000             -0.1144870              0.1362820
      6.5991400              0.1156350              0.3304760
      2.4904900              0.6125950              0.4491460
      0.9445400              0.3937990              0.2657040
SP   3   1.00
      1.2779000             -0.2276060             -0.0175130
      0.3975900              0.00144583             0.2445330
      0.1600950              1.0927900              0.8049340
SP   1   1.00
      0.0556577              1.0000000              1.0000000
D    1   1.00
      0.6500000              1.0000000
D    1   1.00
      0.1625000              1.0000000
F    1   1.00
      0.2500000              1.0000000
****
Si     0
S    6   1.00
  16115.9000000              0.00195948
   2425.5800000              0.01492880
    553.8670000              0.07284780
    156.3400000              0.24613000
     50.0683000              0.48591400
     17.0178000              0.32500200
SP   6   1.00
    292.7180000             -0.00278094             0.00443826
     69.8731000             -0.03571460             0.03266790
     22.3363000             -0.11498500             0.13472100
      8.1503900              0.09356340             0.32867800
      3.1345800              0.60301700             0.44964000
      1.2254300              0.41895900             0.26137200
SP   3   1.00
      1.7273800             -0.24463000            -0.01779510
      0.5729220              0.00431572             0.25353900
      0.2221920              1.09818000             0.80066900
SP   1   1.00
      0.0778369              1.00000000             1.00000000
D    1   1.00
      0.9000000              1.0000000
D    1   1.00
      0.2250000              1.0000000
F    1   1.00
      0.3200000              1.0000000
****
P     0
S    6   1.00
  19413.3000000              0.0018516
   2909.4200000              0.0142062
    661.3640000              0.0699995
    185.7590000              0.2400790
     59.1943000              0.4847620
     20.0310000              0.3352000
SP   6   1.00
    339.4780000             -0.00278217             0.00456462
     81.0101000             -0.0360499              0.03369360
     25.8780000             -0.1166310              0.13975500
      9.4522100              0.0968328              0.33936200
      3.6656600              0.6144180              0.45092100
      1.4674600              0.4037980              0.23858600
SP   3   1.00
      2.1562300             -0.2529230             -0.01776530
      0.7489970              0.0328517              0.27405800
      0.2831450              1.0812500              0.78542100
SP   1   1.00
      0.0998317              1.0000000              1.00000000
D    1   1.00
      1.1000000              1.0000000
D    1   1.00
      0.2750000              1.0000000
F    1   1.00
      0.4500000              1.0000000
****
S     0
S    6   1.00
  21917.1000000              0.0018690
   3301.4900000              0.0142300
    754.1460000              0.0696960
    212.7110000              0.2384870
     67.9896000              0.4833070
     23.0515000              0.3380740
SP   6   1.00
    423.7350000             -0.0023767              0.0040610
    100.7100000             -0.0316930              0.0306810
     32.1599000             -0.1133170              0.1304520
     11.8079000              0.0560900              0.3272050
      4.6311000              0.5922550              0.4528510
      1.8702500              0.4550060              0.2560420
SP   3   1.00
      2.6158400             -0.2503740             -0.0145110
      0.9221670              0.0669570              0.3102630
      0.3412870              1.0545100              0.7544830
SP   1   1.00
      0.1171670              1.0000000              1.0000000
D    1   1.00
      1.3000000              1.0000000
D    1   1.00
      0.3250000              1.0000000
F    1   1.00
      0.5500000              1.0000000
****
Cl     0
S    6   1.00
  25180.1000000              0.0018330
   3780.3500000              0.0140340
    860.4740000              0.0690970
    242.1450000              0.2374520
     77.3349000              0.4830340
     26.2470000              0.3398560
SP   6   1.00
    491.7650000             -0.0022974              0.0039894
    116.9840000             -0.0307140              0.0303180
     37.4153000             -0.1125280              0.1298800
     13.7834000              0.0450160              0.3279510
      5.4521500              0.5893530              0.4535270
      2.2258800              0.4652060              0.2521540
SP   3   1.00
      3.1864900             -0.2518300             -0.0142990
      1.1442700              0.0615890              0.3235720
      0.4203770              1.0601800              0.7435070
SP   1   1.00
      0.1426570              1.0000000              1.0000000
D    1   1.00
      1.5000000              1.0000000
D    1   1.00
      0.3750000              1.0000000
F    1   1.00
      0.7000000              1.0000000
****
}

set {
reference uhf
freeze_core true
e_convergence 10
d_convergence 10
dft_spherical_points 1202
dft_radial_points 99
}

e = energy('b3lyp')

print_out('Grab this energy {0}'.format(e))
--------------------------------------------------------------------------

    Molecular point group: c1

    Geometry (in Bohr), charge = 0, multiplicity = 2:

       Center              X                  Y                   Z               Mass
    ------------   -----------------  -----------------  -----------------  -----------------
         C           -0.323339293207    -0.000023276825     0.001458680878    12.000000000000
         C            0.060338021693    -1.399705488425    -2.427336635622    12.000000000000
         C            0.061328538893     2.801197964875    -0.001364237822    12.000000000000
         C            0.061633495493    -1.400926074525     2.426720112878    12.000000000000
         H            2.087465693993    -1.642187165625    -2.848265181222     1.007825032230
         H           -0.762696110607    -0.390547728525    -4.023112505122     1.007825032230
         H           -0.768260431207    -3.294412742625    -2.348273679122     1.007825032230
         H            2.085884951293     3.287656816275     0.001135204378     1.007825032230
         H           -0.765149269607     3.679559188375     1.678137894778     1.007825032230
         H           -0.765446153907     3.679739480875    -1.676697993822     1.007825032230
         H            2.087321633693    -1.641666715325     2.849634049378     1.007825032230
         H           -0.768780828107    -3.294138473025     2.349569764878     1.007825032230
         H           -0.762916280307    -0.390469557925     4.024088759278     1.007825032230

  Charge       = 0
  Multiplicity = 2
  Basis Set: ANONYMOUSB6131E33
    Blend: 6-31G_2DFP_
  Basis Set: (ANONYMOUSB6131E33 AUX)
    Blend: DEF2-UNIVERSAL-JKFIT

    Orbital Energies [Eh]
    ---------------------

    Alpha Occupied:

       1A    -10.180342     2A    -10.167048     3A    -10.167024
       4A    -10.166973     5A     -0.797766     6A     -0.686288
       7A     -0.686088     8A     -0.530778     9A     -0.441127
      10A     -0.434855    11A     -0.434483    12A     -0.382644
      13A     -0.382555    14A     -0.363610    15A     -0.338334
      16A     -0.337663    17A     -0.168961

    Alpha Virtual:

      18A      0.076070    19A      0.134034    20A      0.134273
      21A      0.142414    22A      0.142841    23A      0.154882
      24A      0.178672    25A      0.178884    26A      0.203547
      27A      0.214804    28A      0.275819    29A      0.276153
      30A      0.398956    31A      0.399499    32A      0.403344
      33A      0.423935    34A      0.424260    35A      0.456593
      36A      0.495328    37A      0.495452    38A      0.512161
      39A      0.513979    40A      0.578749    41A      0.578885
      42A      0.591487    43A      0.591777    44A      0.602571
      45A      0.624715    46A      0.631763    47A      0.635968
      48A      0.636586    49A      0.663184    50A      0.663640
      51A      0.683657    52A      0.684067    53A      0.734994
      54A      0.825154    55A      0.825660    56A      0.853915
      57A      0.914790    58A      0.915261    59A      0.944125
      60A      0.944606    61A      0.961197    62A      0.961391
      63A      1.003455    64A      1.127824    65A      1.128404
      66A      1.142212    67A      1.163197    68A      1.163346
      69A      1.223322    70A      1.274182    71A      1.274792
      72A      1.279357    73A      1.324135    74A      1.324570
      75A      1.355989    76A      1.365664    77A      1.366443
      78A      1.392429    79A      1.403812    80A      1.404299
      81A      1.416370    82A      1.417855    83A      1.427908
      84A      1.491498    85A      1.499073    86A      1.542659
      87A      1.543014    88A      1.574079    89A      1.574823
      90A      1.669823    91A      1.738693    92A      1.740125
      93A      1.768340    94A      1.830623    95A      1.832158
      96A      1.971751    97A      2.017588    98A      2.018697
      99A      2.020100   100A      2.051846   101A      2.053452
     102A      2.738297   103A      2.738672   104A      2.790924
     105A      2.811427   106A      2.889268   107A      2.890638
     108A      2.894937   109A      2.929331   110A      2.929666
     111A      2.958958   112A      2.964120   113A      2.964680
     114A      3.034010   115A      3.070736   116A      3.071769
     117A      3.084439   118A      3.168335   119A      3.169206
     120A      3.180608   121A      3.285039   122A      3.285580
     123A      3.326779   124A      3.327542   125A      3.375629
     126A      3.489889   127A      3.490433   128A      3.514019
     129A      3.525328   130A      3.567951   131A      3.568827
     132A      3.575124   133A      3.665865   134A      3.666909
     135A      3.679673   136A      3.693913   137A      3.694362
     138A      3.776703   139A      3.776888   140A      3.789125
     141A      3.911540   142A      3.912900   143A      4.034448
     144A      4.110761   145A      4.111915   146A      4.147700
     147A      4.148468   148A      4.173347   149A      4.202284
     150A      4.202649   151A      4.203772   152A      4.210989
     153A      4.314932   154A      4.316998   155A      4.358971
     156A      4.423682   157A      4.425192   158A      4.443484
     159A      4.515782   160A      4.517895   161A      4.577977
     162A      4.578564   163A      4.617543   164A      4.709437
     165A      4.773600   166A      4.775615   167A      4.836917
     168A      4.962863   169A      5.002497   170A      5.003416
     171A      5.227575   172A      5.246680   173A      5.247365
     174A      5.354239   175A      5.356799   176A      5.479416

    Beta Occupied:

       1A    -10.167802     2A    -10.167782     3A    -10.167740
       4A    -10.166519     5A     -0.781091     6A     -0.684089
       7A     -0.683892     8A     -0.511750     9A     -0.431230
      10A     -0.430855    11A     -0.421820    12A     -0.376734
      13A     -0.376637    14A     -0.362593    15A     -0.333455
      16A     -0.332788

    Beta Virtual:

      17A     -0.025742    18A      0.077079    19A      0.134896
      20A      0.135191    21A      0.144261    22A      0.144735
      23A      0.163340    24A      0.182349    25A      0.182549
      26A      0.215034    27A      0.218930    28A      0.282178
      29A      0.282490    30A      0.400122    31A      0.400673
      32A      0.419789    33A      0.426746    34A      0.427073
      35A      0.468501    36A      0.497586    37A      0.497715
      38A      0.513896    39A      0.556325    40A      0.584300
      41A      0.584434    42A      0.597643    43A      0.597978
      44A      0.609995    45A      0.628094    46A      0.631923
      47A      0.639272    48A      0.639847    49A      0.666760
      50A      0.667191    51A      0.686314    52A      0.686678
      53A      0.757518    54A      0.830334    55A      0.830816
      56A      0.855268    57A      0.922779    58A      0.923215
      59A      0.945961    60A      0.953533    61A      0.966495
      62A      0.966707    63A      1.008696    64A      1.131857
      65A      1.132427    66A      1.155583    67A      1.168270
      68A      1.168427    69A      1.232295    70A      1.279747
      71A      1.280418    72A      1.285114    73A      1.329123
      74A      1.329560    75A      1.365405    76A      1.370935
      77A      1.371657    78A      1.393490    79A      1.407263
      80A      1.407776    81A      1.421473    82A      1.422850
      83A      1.428180    84A      1.492548    85A      1.509516
      86A      1.547049    87A      1.547442    88A      1.581954
      89A      1.582688    90A      1.674670    91A      1.744443
      92A      1.745903    93A      1.779115    94A      1.834475
      95A      1.836017    96A      1.972612    97A      2.024736
      98A      2.026118    99A      2.039695   100A      2.058543
     101A      2.060199   102A      2.746622   103A      2.747018
     104A      2.811839   105A      2.816059   106A      2.901957
     107A      2.903322   108A      2.924644   109A      2.931779
     110A      2.932182   111A      2.960037   112A      2.968660
     113A      2.969212   114A      3.041944   115A      3.080644
     116A      3.081536   117A      3.086403   118A      3.184091
     119A      3.184912   120A      3.188328   121A      3.289855
     122A      3.290363   123A      3.330548   124A      3.331382
     125A      3.383448   126A      3.492629   127A      3.493153
     128A      3.512383   129A      3.528374   130A      3.574973
     131A      3.581232   132A      3.582237   133A      3.670688
     134A      3.671591   135A      3.692972   136A      3.725580
     137A      3.725942   138A      3.781188   139A      3.781462
     140A      3.817664   141A      3.921288   142A      3.922785
     143A      4.045336   144A      4.117379   145A      4.118932
     146A      4.154718   147A      4.155882   148A      4.187382
     149A      4.208267   150A      4.209608   151A      4.210657
     152A      4.215482   153A      4.322374   154A      4.324441
     155A      4.362333   156A      4.431914   157A      4.433372
     158A      4.446383   159A      4.523567   160A      4.525689
     161A      4.588597   162A      4.589146   163A      4.624736
     164A      4.719781   165A      4.780582   166A      4.782540
     167A      4.839834   168A      4.967657   169A      5.006537
     170A      5.007454   171A      5.233184   172A      5.248486
     173A      5.249239   174A      5.360727   175A      5.363267
     176A      5.481739

    Final Occupation by Irrep:
              A
    DOCC [    16 ]
    SOCC [     1 ]

  @DF-UKS Final Energy:  -157.81305870401229

   => Energetics <=

    Nuclear Repulsion Energy =            125.3946484093859794
    One-Electron Energy =                -458.7489286958784760
    Two-Electron Energy =                 195.8483677968985717
    DFT Exchange-Correlation Energy =     -20.3071462144183776
    Empirical Dispersion Energy =           0.0000000000000000
    VV10 Nonlocal Energy =                  0.0000000000000000
    Total Energy =                       -157.8130587040122919

  UHF NO Occupations:
  HONO-2 :   15  A 1.9996009
  HONO-1 :   16  A 1.9989805
  HONO-0 :   17  A 1.0000000
  LUNO+0 :   18  A 0.0010195
  LUNO+1 :   19  A 0.0003991
  LUNO+2 :   20  A 0.0001980
  LUNO+3 :   21  A 0.0001971

Computation Completed

Properties will be evaluated at   0.000000,   0.000000,   0.000000 [a0]

Properties computed using the SCF density matrix

  Nuclear Dipole Moment: [e a0]
     X:     0.8272      Y:    -0.0032      Z:     0.0031

  Electronic Dipole Moment: [e a0]
     X:    -0.7493      Y:     0.0050      Z:    -0.0030

  Dipole Moment: [e a0]
     X:     0.0779      Y:     0.0017      Z:     0.0001     Total:     0.0779

  Dipole Moment: [D]
     X:     0.1980      Y:     0.0044      Z:     0.0001     Total:     0.1981

*** tstop() called on n079 at Fri Nov  5 12:04:16 2021
Module time:
	user time   =     585.94 seconds =       9.77 minutes
	system time =       5.44 seconds =       0.09 minutes
	total time  =        149 seconds =       2.48 minutes
Total time:
	user time   =     585.94 seconds =       9.77 minutes
	system time =       5.44 seconds =       0.09 minutes
	total time  =        149 seconds =       2.48 minutes
Grab this energy -157.8130587040123
    Psi4 stopped on: Friday, 05 November 2021 12:04PM
    Psi4 wall time for execution: 0:02:28.67

*** Psi4 exiting successfully. Buy a developer a beer!
