                               Psi4 1.4a2.dev629

  ==> Input File <==

--------------------------------------------------------------------------
import os
memory 14 GB

molecule {
 C   -0.3233373588   -0.0010245356    0.0053458586
 C    0.0616414063   -1.3998774556   -2.4266695303
 C    0.0602720966    2.8021493558    0.0011042837
 C    0.0613858889   -1.3989736147    2.4273121497
 H    2.0866895958   -1.6444692084   -2.8478810603
 H   -0.7652678492   -0.3890743646   -4.0264424088
 H   -0.7660150471   -3.2916809642   -2.3494577677
 H    2.0868793531    3.2880033282   -0.0010020681
 H   -0.7662708414    3.6793140557    1.6758589498
 H   -0.7645957886    3.6810252197   -1.6773312393
 H    2.0871005920   -1.6448175538    2.8464795663
 H   -0.7650803615   -3.2926170410    2.3482526913
 H   -0.7660095629   -0.3879815353    4.0244305751
units bohr
0 2
}

basis {

assign 6-31g_2dfp_

[ 6-31g_2dfp_ ]

spherical

!----------------------------------------------------------------------
! Basis Set Exchange
! Version v0.8.13
! https://www.basissetexchange.org
!----------------------------------------------------------------------
!   Basis set: 6-31G(2df,p)
! Description: 6-31G(2df,p)
!        Role: orbital
!     Version: 0  (Data from the original Basis Set Exchange)
!----------------------------------------------------------------------

****
H     0
S    3   1.00
     18.7311370              0.03349460
      2.8253937              0.23472695
      0.6401217              0.81375733
S    1   1.00
      0.1612778              1.00000000
P    1   1.00
      1.5000000              1.0000000
P    1   1.00
      0.3750000              1.0000000
****
B     0
S    6   1.00
   2068.8823000              0.0018663
    310.6495700              0.0142515
     70.6830330              0.0695516
     19.8610800              0.2325729
      6.2993048              0.4670787
      2.1270270              0.3634314
SP   3   1.00
      4.7279710             -0.1303938              0.0745976
      1.1903377             -0.1307889              0.3078467
      0.3594117              1.1309444              0.7434568
SP   1   1.00
      0.1267512              1.0000000              1.0000000
D    1   1.00
      0.8020000              1.0000000
D    1   1.00
      0.2005000              1.0000000
F    1   1.00
      0.5000000              1.0000000
****
C     0
S    6   1.00
   3047.5249000              0.0018347
    457.3695100              0.0140373
    103.9486900              0.0688426
     29.2101550              0.2321844
      9.2866630              0.4679413
      3.1639270              0.3623120
SP   3   1.00
      7.8682724             -0.1193324              0.0689991
      1.8812885             -0.1608542              0.3164240
      0.5442493              1.1434564              0.7443083
SP   1   1.00
      0.1687144              1.0000000              1.0000000
D    1   1.00
      1.2520000              1.0000000
D    1   1.00
      0.3130000              1.0000000
F    1   1.00
      0.8000000              1.0000000
****
N     0
S    6   1.00
   4173.5110000              0.0018348
    627.4579000              0.0139950
    142.9021000              0.0685870
     40.2343300              0.2322410
     12.8202100              0.4690700
      4.3904370              0.3604550
SP   3   1.00
     11.6263580             -0.1149610              0.0675800
      2.7162800             -0.1691180              0.3239070
      0.7722180              1.1458520              0.7408950
SP   1   1.00
      0.2120313              1.0000000              1.0000000
D    1   1.00
      1.8260000              1.0000000
D    1   1.00
      0.4565000              1.0000000
F    1   1.00
      1.0000000              1.0000000
****
O     0
S    6   1.00
   5484.6717000              0.0018311
    825.2349500              0.0139501
    188.0469600              0.0684451
     52.9645000              0.2327143
     16.8975700              0.4701930
      5.7996353              0.3585209
SP   3   1.00
     15.5396160             -0.1107775              0.0708743
      3.5999336             -0.1480263              0.3397528
      1.0137618              1.1307670              0.7271586
SP   1   1.00
      0.2700058              1.0000000              1.0000000
D    1   1.00
      2.5840000              1.0000000
D    1   1.00
      0.6460000              1.0000000
F    1   1.00
      1.4000000              1.0000000
****
F     0
S    6   1.00
   7001.7130900              0.0018196169
   1051.3660900              0.0139160796
    239.2856900              0.0684053245
     67.3974453              0.233185760
     21.5199573              0.471267439
      7.40310130             0.356618546
SP   3   1.00
     20.8479528             -0.108506975            0.0716287243
      4.80830834            -0.146451658            0.3459121030
      1.34406986             1.128688580            0.7224699570
SP   1   1.00
      0.358151393            1.0000000              1.0000000
D    1   1.00
      3.5000000              1.0000000
D    1   1.00
      0.8750000              1.0000000
F    1   1.00
      1.8500000              1.0000000
****
Al     0
S    6   1.00
  13983.1000000              0.00194267
   2098.7500000              0.0148599
    477.7050000              0.0728494
    134.3600000              0.2468300
     42.8709000              0.4872580
     14.5189000              0.3234960
SP   6   1.00
    239.6680000             -0.00292619             0.00460285
     57.4419000             -0.0374080              0.0331990
     18.2859000             -0.1144870              0.1362820
      6.5991400              0.1156350              0.3304760
      2.4904900              0.6125950              0.4491460
      0.9445400              0.3937990              0.2657040
SP   3   1.00
      1.2779000             -0.2276060             -0.0175130
      0.3975900              0.00144583             0.2445330
      0.1600950              1.0927900              0.8049340
SP   1   1.00
      0.0556577              1.0000000              1.0000000
D    1   1.00
      0.6500000              1.0000000
D    1   1.00
      0.1625000              1.0000000
F    1   1.00
      0.2500000              1.0000000
****
Si     0
S    6   1.00
  16115.9000000              0.00195948
   2425.5800000              0.01492880
    553.8670000              0.07284780
    156.3400000              0.24613000
     50.0683000              0.48591400
     17.0178000              0.32500200
SP   6   1.00
    292.7180000             -0.00278094             0.00443826
     69.8731000             -0.03571460             0.03266790
     22.3363000             -0.11498500             0.13472100
      8.1503900              0.09356340             0.32867800
      3.1345800              0.60301700             0.44964000
      1.2254300              0.41895900             0.26137200
SP   3   1.00
      1.7273800             -0.24463000            -0.01779510
      0.5729220              0.00431572             0.25353900
      0.2221920              1.09818000             0.80066900
SP   1   1.00
      0.0778369              1.00000000             1.00000000
D    1   1.00
      0.9000000              1.0000000
D    1   1.00
      0.2250000              1.0000000
F    1   1.00
      0.3200000              1.0000000
****
P     0
S    6   1.00
  19413.3000000              0.0018516
   2909.4200000              0.0142062
    661.3640000              0.0699995
    185.7590000              0.2400790
     59.1943000              0.4847620
     20.0310000              0.3352000
SP   6   1.00
    339.4780000             -0.00278217             0.00456462
     81.0101000             -0.0360499              0.03369360
     25.8780000             -0.1166310              0.13975500
      9.4522100              0.0968328              0.33936200
      3.6656600              0.6144180              0.45092100
      1.4674600              0.4037980              0.23858600
SP   3   1.00
      2.1562300             -0.2529230             -0.01776530
      0.7489970              0.0328517              0.27405800
      0.2831450              1.0812500              0.78542100
SP   1   1.00
      0.0998317              1.0000000              1.00000000
D    1   1.00
      1.1000000              1.0000000
D    1   1.00
      0.2750000              1.0000000
F    1   1.00
      0.4500000              1.0000000
****
S     0
S    6   1.00
  21917.1000000              0.0018690
   3301.4900000              0.0142300
    754.1460000              0.0696960
    212.7110000              0.2384870
     67.9896000              0.4833070
     23.0515000              0.3380740
SP   6   1.00
    423.7350000             -0.0023767              0.0040610
    100.7100000             -0.0316930              0.0306810
     32.1599000             -0.1133170              0.1304520
     11.8079000              0.0560900              0.3272050
      4.6311000              0.5922550              0.4528510
      1.8702500              0.4550060              0.2560420
SP   3   1.00
      2.6158400             -0.2503740             -0.0145110
      0.9221670              0.0669570              0.3102630
      0.3412870              1.0545100              0.7544830
SP   1   1.00
      0.1171670              1.0000000              1.0000000
D    1   1.00
      1.3000000              1.0000000
D    1   1.00
      0.3250000              1.0000000
F    1   1.00
      0.5500000              1.0000000
****
Cl     0
S    6   1.00
  25180.1000000              0.0018330
   3780.3500000              0.0140340
    860.4740000              0.0690970
    242.1450000              0.2374520
     77.3349000              0.4830340
     26.2470000              0.3398560
SP   6   1.00
    491.7650000             -0.0022974              0.0039894
    116.9840000             -0.0307140              0.0303180
     37.4153000             -0.1125280              0.1298800
     13.7834000              0.0450160              0.3279510
      5.4521500              0.5893530              0.4535270
      2.2258800              0.4652060              0.2521540
SP   3   1.00
      3.1864900             -0.2518300             -0.0142990
      1.1442700              0.0615890              0.3235720
      0.4203770              1.0601800              0.7435070
SP   1   1.00
      0.1426570              1.0000000              1.0000000
D    1   1.00
      1.5000000              1.0000000
D    1   1.00
      0.3750000              1.0000000
F    1   1.00
      0.7000000              1.0000000
****
}

set {
reference uhf
freeze_core true
e_convergence 10
d_convergence 10
dft_spherical_points 1202
dft_radial_points 99
}

e = energy('b3lyp')

print_out('Grab this energy {0}'.format(e))
--------------------------------------------------------------------------

    Molecular point group: c1

    Geometry (in Bohr), charge = 0, multiplicity = 2:

       Center              X                  Y                   Z               Mass
    ------------   -----------------  -----------------  -----------------  -----------------
         C           -0.323337747450    -0.001462046842     0.003979741610    12.000000000000
         C            0.061641017650    -1.400314966842    -2.428035647290    12.000000000000
         C            0.060271707950     2.801711844558    -0.000261833290    12.000000000000
         C            0.061385500250    -1.399411125942     2.425946032710    12.000000000000
         H            2.086689207150    -1.644906719642    -2.849247177290     1.007825032230
         H           -0.765268237850    -0.389511875842    -4.027808525790     1.007825032230
         H           -0.766015435750    -3.292118475442    -2.350823884690     1.007825032230
         H            2.086878964450     3.287565816958    -0.002368185090     1.007825032230
         H           -0.766271230050     3.678876544458     1.674492832810     1.007825032230
         H           -0.764596177250     3.680587708458    -1.678697356290     1.007825032230
         H            2.087100203350    -1.645255065042     2.845113449310     1.007825032230
         H           -0.765080750150    -3.293054552242     2.346886574310     1.007825032230
         H           -0.766009951550    -0.388419046542     4.023064458110     1.007825032230

  Charge       = 0
  Multiplicity = 2
  Basis Set: ANONYMOUSE7CA6960
    Blend: 6-31G_2DFP_
  Basis Set: (ANONYMOUSE7CA6960 AUX)
    Blend: DEF2-UNIVERSAL-JKFIT

    Orbital Energies [Eh]
    ---------------------

    Alpha Occupied:

       1A    -10.180341     2A    -10.167064     3A    -10.167009
       4A    -10.166971     5A     -0.797769     6A     -0.686391
       7A     -0.685982     8A     -0.530776     9A     -0.441132
      10A     -0.434880    11A     -0.434457    12A     -0.382725
      13A     -0.382477    14A     -0.363607    15A     -0.338595
      16A     -0.337401    17A     -0.168960

    Alpha Virtual:

      18A      0.076072    19A      0.134114    20A      0.134196
      21A      0.142440    22A      0.142814    23A      0.154880
      24A      0.178728    25A      0.178829    26A      0.203543
      27A      0.214803    28A      0.275670    29A      0.276300
      30A      0.399062    31A      0.399396    32A      0.403343
      33A      0.424092    34A      0.424103    35A      0.456593
      36A      0.495330    37A      0.495449    38A      0.512160
      39A      0.513978    40A      0.578614    41A      0.579014
      42A      0.591622    43A      0.591661    44A      0.602574
      45A      0.624749    46A      0.631768    47A      0.636109
      48A      0.636409    49A      0.663301    50A      0.663524
      51A      0.683803    52A      0.683904    53A      0.734994
      54A      0.825299    55A      0.825515    56A      0.853916
      57A      0.914862    58A      0.915182    59A      0.944126
      60A      0.944619    61A      0.961109    62A      0.961476
      63A      1.003454    64A      1.127848    65A      1.128332
      66A      1.142254    67A      1.162885    68A      1.163656
      69A      1.223328    70A      1.273991    71A      1.274988
      72A      1.279353    73A      1.324246    74A      1.324468
      75A      1.355994    76A      1.365699    77A      1.366413
      78A      1.392422    79A      1.403796    80A      1.404308
      81A      1.416708    82A      1.417521    83A      1.427931
      84A      1.491490    85A      1.499081    86A      1.542663
      87A      1.543001    88A      1.574132    89A      1.574765
      90A      1.669814    91A      1.739178    92A      1.739657
      93A      1.768331    94A      1.831123    95A      1.831667
      96A      1.971727    97A      2.018062    98A      2.018536
      99A      2.019802   100A      2.051841   101A      2.053453
     102A      2.738242   103A      2.738731   104A      2.790925
     105A      2.811424   106A      2.889076   107A      2.890824
     108A      2.894935   109A      2.929072   110A      2.929922
     111A      2.958988   112A      2.964061   113A      2.964705
     114A      3.034002   115A      3.070766   116A      3.071816
     117A      3.084349   118A      3.168575   119A      3.168914
     120A      3.180675   121A      3.284940   122A      3.285683
     123A      3.326769   124A      3.327541   125A      3.375607
     126A      3.489632   127A      3.490655   128A      3.514026
     129A      3.525336   130A      3.568130   131A      3.568643
     132A      3.575151   133A      3.665984   134A      3.666752
     135A      3.679693   136A      3.694095   137A      3.694137
     138A      3.776052   139A      3.777532   140A      3.789169
     141A      3.911634   142A      3.912811   143A      4.034440
     144A      4.110980   145A      4.111756   146A      4.147118
     147A      4.149120   148A      4.173266   149A      4.202231
     150A      4.202781   151A      4.203774   152A      4.210876
     153A      4.314986   154A      4.316949   155A      4.358975
     156A      4.423862   157A      4.424993   158A      4.443471
     159A      4.516618   160A      4.517063   161A      4.577917
     162A      4.578328   163A      4.617835   164A      4.709471
     165A      4.774017   166A      4.775197   167A      4.836899
     168A      4.962823   169A      5.002602   170A      5.003349
     171A      5.228033   172A      5.246590   173A      5.247062
     174A      5.354944   175A      5.356065   176A      5.479351

    Beta Occupied:

       1A    -10.167818     2A    -10.167766     3A    -10.167739
       4A    -10.166519     5A     -0.781094     6A     -0.684182
       7A     -0.683797     8A     -0.511747     9A     -0.431258
      10A     -0.430832    11A     -0.421818    12A     -0.376776
      13A     -0.376597    14A     -0.362590    15A     -0.333727
      16A     -0.332516

    Beta Virtual:

      17A     -0.025742    18A      0.077081    19A      0.134994
      20A      0.135096    21A      0.144326    22A      0.144669
      23A      0.163339    24A      0.182408    25A      0.182491
      26A      0.215032    27A      0.218926    28A      0.282055
      29A      0.282610    30A      0.400233    31A      0.400563
      32A      0.419789    33A      0.426896    34A      0.426923
      35A      0.468500    36A      0.497590    37A      0.497710
      38A      0.513895    39A      0.556321    40A      0.584143
      41A      0.584589    42A      0.597791    43A      0.597850
      44A      0.609997    45A      0.628124    46A      0.631927
      47A      0.639381    48A      0.639708    49A      0.666865
      50A      0.667088    51A      0.686436    52A      0.686541
      53A      0.757517    54A      0.830472    55A      0.830679
      56A      0.855269    57A      0.922812    58A      0.923174
      59A      0.945963    60A      0.953547    61A      0.966410
      62A      0.966787    63A      1.008694    64A      1.131908
      65A      1.132347    66A      1.155607    67A      1.167967
      68A      1.168726    69A      1.232300    70A      1.279624
      71A      1.280549    72A      1.285106    73A      1.329239
      74A      1.329454    75A      1.365409    76A      1.370959
      77A      1.371641    78A      1.393483    79A      1.407234
      80A      1.407797    81A      1.421773    82A      1.422551
      83A      1.428207    84A      1.492539    85A      1.509524
      86A      1.547057    87A      1.547423    88A      1.582011
      89A      1.582630    90A      1.674662    91A      1.744937
      92A      1.745422    93A      1.779109    94A      1.834965
      95A      1.835536    96A      1.972587    97A      2.024756
      98A      2.026137    99A      2.039679   100A      2.058551
     101A      2.060180   102A      2.746548   103A      2.747096
     104A      2.811836   105A      2.816061   106A      2.901828
     107A      2.903446   108A      2.924639   109A      2.931496
     110A      2.932467   111A      2.960055   112A      2.968614
     113A      2.969236   114A      3.041937   115A      3.080747
     116A      3.081655   117A      3.086165   118A      3.184213
     119A      3.184637   120A      3.188498   121A      3.289790
     122A      3.290430   123A      3.330571   124A      3.331349
     125A      3.383426   126A      3.492351   127A      3.493390
     128A      3.512396   129A      3.528382   130A      3.574989
     131A      3.581536   132A      3.581943   133A      3.670723
     134A      3.671515   135A      3.692978   136A      3.725505
     137A      3.725990   138A      3.780599   139A      3.782063
     140A      3.817682   141A      3.921439   142A      3.922647
     143A      4.045327   144A      4.117832   145A      4.118537
     146A      4.154357   147A      4.156298   148A      4.187325
     149A      4.208544   150A      4.209200   151A      4.210879
     152A      4.215354   153A      4.322361   154A      4.324454
     155A      4.362338   156A      4.432070   157A      4.433198
     158A      4.446373   159A      4.524388   160A      4.524874
     161A      4.588526   162A      4.588897   163A      4.625050
     164A      4.719818   165A      4.780939   166A      4.782182
     167A      4.839816   168A      4.967615   169A      5.006652
     170A      5.007379   171A      5.233748   172A      5.248384
     173A      5.248838   174A      5.361397   175A      5.362573
     176A      5.481672

    Final Occupation by Irrep:
              A
    DOCC [    16 ]
    SOCC [     1 ]

  @DF-UKS Final Energy:  -157.81306285289116

   => Energetics <=

    Nuclear Repulsion Energy =            125.3946949899134182
    One-Electron Energy =                -458.7490351624625191
    Two-Electron Energy =                 195.8484232042217741
    DFT Exchange-Correlation Energy =     -20.3071458845638659
    Empirical Dispersion Energy =           0.0000000000000000
    VV10 Nonlocal Energy =                  0.0000000000000000
    Total Energy =                       -157.8130628528911643

  UHF NO Occupations:
  HONO-2 :   15  A 1.9996009
  HONO-1 :   16  A 1.9989805
  HONO-0 :   17  A 1.0000000
  LUNO+0 :   18  A 0.0010195
  LUNO+1 :   19  A 0.0003991
  LUNO+2 :   20  A 0.0001987
  LUNO+3 :   21  A 0.0001964

Computation Completed

Properties will be evaluated at   0.000000,   0.000000,   0.000000 [a0]

Properties computed using the SCF density matrix

  Nuclear Dipole Moment: [e a0]
     X:     0.8272      Y:    -0.0031      Z:    -0.0096

  Electronic Dipole Moment: [e a0]
     X:    -0.7493      Y:     0.0030      Z:     0.0108

  Dipole Moment: [e a0]
     X:     0.0779      Y:    -0.0000      Z:     0.0012     Total:     0.0779

  Dipole Moment: [D]
     X:     0.1980      Y:    -0.0001      Z:     0.0031     Total:     0.1981

*** tstop() called on n021 at Fri Nov  5 11:48:55 2021
Module time:
	user time   =     672.27 seconds =      11.20 minutes
	system time =      13.41 seconds =       0.22 minutes
	total time  =        172 seconds =       2.87 minutes
Total time:
	user time   =     672.27 seconds =      11.20 minutes
	system time =      13.41 seconds =       0.22 minutes
	total time  =        172 seconds =       2.87 minutes
Grab this energy -157.81306285289116
    Psi4 stopped on: Friday, 05 November 2021 11:48AM
    Psi4 wall time for execution: 0:02:52.34

*** Psi4 exiting successfully. Buy a developer a beer!
