                               Psi4 1.4a2.dev629

  ==> Input File <==

--------------------------------------------------------------------------
import os
memory 14 GB

molecule {
 C   -0.3233320003   -0.0002510765    0.0049989935
 C    0.0606402898   -1.3941707584   -2.4223319325
 C    0.0630709461    2.8017369436   -0.0062326103
 C    0.0595936574   -1.4064180675    2.4310920746
 H    2.0877144574   -1.6354792293   -2.8432438146
 H   -0.7656610881   -0.3789957167   -4.0185368231
 H   -0.7628382653   -3.2864124166   -2.3486231447
 H    2.0865936330    3.2880854239   -0.0111480058
 H   -0.7635300111    3.6878026420    1.6668315404
 H   -0.7690564241    3.6726258249   -1.6857082495
 H    2.0863636383   -1.6530572040    2.8514129365
 H   -0.7674268451   -3.2979518376    2.3490436928
 H   -0.7647398649   -0.3975388414    4.0324453428
units bohr
0 2
}

basis {

assign 6-31g_2dfp_

[ 6-31g_2dfp_ ]

spherical

!----------------------------------------------------------------------
! Basis Set Exchange
! Version v0.8.13
! https://www.basissetexchange.org
!----------------------------------------------------------------------
!   Basis set: 6-31G(2df,p)
! Description: 6-31G(2df,p)
!        Role: orbital
!     Version: 0  (Data from the original Basis Set Exchange)
!----------------------------------------------------------------------

****
H     0
S    3   1.00
     18.7311370              0.03349460
      2.8253937              0.23472695
      0.6401217              0.81375733
S    1   1.00
      0.1612778              1.00000000
P    1   1.00
      1.5000000              1.0000000
P    1   1.00
      0.3750000              1.0000000
****
B     0
S    6   1.00
   2068.8823000              0.0018663
    310.6495700              0.0142515
     70.6830330              0.0695516
     19.8610800              0.2325729
      6.2993048              0.4670787
      2.1270270              0.3634314
SP   3   1.00
      4.7279710             -0.1303938              0.0745976
      1.1903377             -0.1307889              0.3078467
      0.3594117              1.1309444              0.7434568
SP   1   1.00
      0.1267512              1.0000000              1.0000000
D    1   1.00
      0.8020000              1.0000000
D    1   1.00
      0.2005000              1.0000000
F    1   1.00
      0.5000000              1.0000000
****
C     0
S    6   1.00
   3047.5249000              0.0018347
    457.3695100              0.0140373
    103.9486900              0.0688426
     29.2101550              0.2321844
      9.2866630              0.4679413
      3.1639270              0.3623120
SP   3   1.00
      7.8682724             -0.1193324              0.0689991
      1.8812885             -0.1608542              0.3164240
      0.5442493              1.1434564              0.7443083
SP   1   1.00
      0.1687144              1.0000000              1.0000000
D    1   1.00
      1.2520000              1.0000000
D    1   1.00
      0.3130000              1.0000000
F    1   1.00
      0.8000000              1.0000000
****
N     0
S    6   1.00
   4173.5110000              0.0018348
    627.4579000              0.0139950
    142.9021000              0.0685870
     40.2343300              0.2322410
     12.8202100              0.4690700
      4.3904370              0.3604550
SP   3   1.00
     11.6263580             -0.1149610              0.0675800
      2.7162800             -0.1691180              0.3239070
      0.7722180              1.1458520              0.7408950
SP   1   1.00
      0.2120313              1.0000000              1.0000000
D    1   1.00
      1.8260000              1.0000000
D    1   1.00
      0.4565000              1.0000000
F    1   1.00
      1.0000000              1.0000000
****
O     0
S    6   1.00
   5484.6717000              0.0018311
    825.2349500              0.0139501
    188.0469600              0.0684451
     52.9645000              0.2327143
     16.8975700              0.4701930
      5.7996353              0.3585209
SP   3   1.00
     15.5396160             -0.1107775              0.0708743
      3.5999336             -0.1480263              0.3397528
      1.0137618              1.1307670              0.7271586
SP   1   1.00
      0.2700058              1.0000000              1.0000000
D    1   1.00
      2.5840000              1.0000000
D    1   1.00
      0.6460000              1.0000000
F    1   1.00
      1.4000000              1.0000000
****
F     0
S    6   1.00
   7001.7130900              0.0018196169
   1051.3660900              0.0139160796
    239.2856900              0.0684053245
     67.3974453              0.233185760
     21.5199573              0.471267439
      7.40310130             0.356618546
SP   3   1.00
     20.8479528             -0.108506975            0.0716287243
      4.80830834            -0.146451658            0.3459121030
      1.34406986             1.128688580            0.7224699570
SP   1   1.00
      0.358151393            1.0000000              1.0000000
D    1   1.00
      3.5000000              1.0000000
D    1   1.00
      0.8750000              1.0000000
F    1   1.00
      1.8500000              1.0000000
****
Al     0
S    6   1.00
  13983.1000000              0.00194267
   2098.7500000              0.0148599
    477.7050000              0.0728494
    134.3600000              0.2468300
     42.8709000              0.4872580
     14.5189000              0.3234960
SP   6   1.00
    239.6680000             -0.00292619             0.00460285
     57.4419000             -0.0374080              0.0331990
     18.2859000             -0.1144870              0.1362820
      6.5991400              0.1156350              0.3304760
      2.4904900              0.6125950              0.4491460
      0.9445400              0.3937990              0.2657040
SP   3   1.00
      1.2779000             -0.2276060             -0.0175130
      0.3975900              0.00144583             0.2445330
      0.1600950              1.0927900              0.8049340
SP   1   1.00
      0.0556577              1.0000000              1.0000000
D    1   1.00
      0.6500000              1.0000000
D    1   1.00
      0.1625000              1.0000000
F    1   1.00
      0.2500000              1.0000000
****
Si     0
S    6   1.00
  16115.9000000              0.00195948
   2425.5800000              0.01492880
    553.8670000              0.07284780
    156.3400000              0.24613000
     50.0683000              0.48591400
     17.0178000              0.32500200
SP   6   1.00
    292.7180000             -0.00278094             0.00443826
     69.8731000             -0.03571460             0.03266790
     22.3363000             -0.11498500             0.13472100
      8.1503900              0.09356340             0.32867800
      3.1345800              0.60301700             0.44964000
      1.2254300              0.41895900             0.26137200
SP   3   1.00
      1.7273800             -0.24463000            -0.01779510
      0.5729220              0.00431572             0.25353900
      0.2221920              1.09818000             0.80066900
SP   1   1.00
      0.0778369              1.00000000             1.00000000
D    1   1.00
      0.9000000              1.0000000
D    1   1.00
      0.2250000              1.0000000
F    1   1.00
      0.3200000              1.0000000
****
P     0
S    6   1.00
  19413.3000000              0.0018516
   2909.4200000              0.0142062
    661.3640000              0.0699995
    185.7590000              0.2400790
     59.1943000              0.4847620
     20.0310000              0.3352000
SP   6   1.00
    339.4780000             -0.00278217             0.00456462
     81.0101000             -0.0360499              0.03369360
     25.8780000             -0.1166310              0.13975500
      9.4522100              0.0968328              0.33936200
      3.6656600              0.6144180              0.45092100
      1.4674600              0.4037980              0.23858600
SP   3   1.00
      2.1562300             -0.2529230             -0.01776530
      0.7489970              0.0328517              0.27405800
      0.2831450              1.0812500              0.78542100
SP   1   1.00
      0.0998317              1.0000000              1.00000000
D    1   1.00
      1.1000000              1.0000000
D    1   1.00
      0.2750000              1.0000000
F    1   1.00
      0.4500000              1.0000000
****
S     0
S    6   1.00
  21917.1000000              0.0018690
   3301.4900000              0.0142300
    754.1460000              0.0696960
    212.7110000              0.2384870
     67.9896000              0.4833070
     23.0515000              0.3380740
SP   6   1.00
    423.7350000             -0.0023767              0.0040610
    100.7100000             -0.0316930              0.0306810
     32.1599000             -0.1133170              0.1304520
     11.8079000              0.0560900              0.3272050
      4.6311000              0.5922550              0.4528510
      1.8702500              0.4550060              0.2560420
SP   3   1.00
      2.6158400             -0.2503740             -0.0145110
      0.9221670              0.0669570              0.3102630
      0.3412870              1.0545100              0.7544830
SP   1   1.00
      0.1171670              1.0000000              1.0000000
D    1   1.00
      1.3000000              1.0000000
D    1   1.00
      0.3250000              1.0000000
F    1   1.00
      0.5500000              1.0000000
****
Cl     0
S    6   1.00
  25180.1000000              0.0018330
   3780.3500000              0.0140340
    860.4740000              0.0690970
    242.1450000              0.2374520
     77.3349000              0.4830340
     26.2470000              0.3398560
SP   6   1.00
    491.7650000             -0.0022974              0.0039894
    116.9840000             -0.0307140              0.0303180
     37.4153000             -0.1125280              0.1298800
     13.7834000              0.0450160              0.3279510
      5.4521500              0.5893530              0.4535270
      2.2258800              0.4652060              0.2521540
SP   3   1.00
      3.1864900             -0.2518300             -0.0142990
      1.1442700              0.0615890              0.3235720
      0.4203770              1.0601800              0.7435070
SP   1   1.00
      0.1426570              1.0000000              1.0000000
D    1   1.00
      1.5000000              1.0000000
D    1   1.00
      0.3750000              1.0000000
F    1   1.00
      0.7000000              1.0000000
****
}

set {
reference uhf
freeze_core true
e_convergence 10
d_convergence 10
dft_spherical_points 1202
dft_radial_points 99
}

e = energy('b3lyp')

print_out('Grab this energy {0}'.format(e))
--------------------------------------------------------------------------

    Molecular point group: c1

    Geometry (in Bohr), charge = 0, multiplicity = 2:

       Center              X                  Y                   Z               Mass
    ------------   -----------------  -----------------  -----------------  -----------------
         C           -0.323334480662    -0.000423423734     0.003549330515    12.000000000000
         C            0.060637809438    -1.394343105634    -2.423781595485    12.000000000000
         C            0.063068465738     2.801564596366    -0.007682273285    12.000000000000
         C            0.059591177038    -1.406590414734     2.429642411615    12.000000000000
         H            2.087711977038    -1.635651576534    -2.844693477585     1.007825032230
         H           -0.765663568462    -0.379168063934    -4.019986486085     1.007825032230
         H           -0.762840745662    -3.286584763834    -2.350072807685     1.007825032230
         H            2.086591152638     3.287913076666    -0.012597668785     1.007825032230
         H           -0.763532491462     3.687630294766     1.665381877415     1.007825032230
         H           -0.769058904462     3.672453477666    -1.687157912485     1.007825032230
         H            2.086361157938    -1.653229551234     2.849963273515     1.007825032230
         H           -0.767429325462    -3.298124184834     2.347594029815     1.007825032230
         H           -0.764742345262    -0.397711188634     4.030995679815     1.007825032230

  Charge       = 0
  Multiplicity = 2
  Basis Set: ANONYMOUS12E4FA92
    Blend: 6-31G_2DFP_
  Basis Set: (ANONYMOUS12E4FA92 AUX)
    Blend: DEF2-UNIVERSAL-JKFIT

    Orbital Energies [Eh]
    ---------------------

    Alpha Occupied:

       1A    -10.180341     2A    -10.167303     3A    -10.166983
       4A    -10.166760     5A     -0.797769     6A     -0.686409
       7A     -0.685962     8A     -0.530776     9A     -0.441128
      10A     -0.434952    11A     -0.434389    12A     -0.382807
      13A     -0.382389    14A     -0.363611    15A     -0.338286
      16A     -0.337708    17A     -0.168961

    Alpha Virtual:

      18A      0.076072    19A      0.133913    20A      0.134398
      21A      0.142476    22A      0.142779    23A      0.154880
      24A      0.178527    25A      0.179031    26A      0.203544
      27A      0.214807    28A      0.275808    29A      0.276163
      30A      0.398994    31A      0.399393    32A      0.403419
      33A      0.423958    34A      0.424246    35A      0.456595
      36A      0.494984    37A      0.495786    38A      0.512172
      39A      0.513987    40A      0.578542    41A      0.579067
      42A      0.591511    43A      0.591762    44A      0.602575
      45A      0.624767    46A      0.631768    47A      0.636004
      48A      0.636497    49A      0.663139    50A      0.663690
      51A      0.683570    52A      0.684139    53A      0.734994
      54A      0.824581    55A      0.826221    56A      0.853915
      57A      0.914783    58A      0.915272    59A      0.944052
      60A      0.944516    61A      0.961121    62A      0.961668
      63A      1.003469    64A      1.126953    65A      1.129286
      66A      1.142212    67A      1.162767    68A      1.163766
      69A      1.223331    70A      1.273950    71A      1.275045
      72A      1.279355    73A      1.324089    74A      1.324618
      75A      1.355985    76A      1.365232    77A      1.366822
      78A      1.392434    79A      1.403260    80A      1.404915
      81A      1.416549    82A      1.417696    83A      1.427929
      84A      1.491434    85A      1.499065    86A      1.542470
      87A      1.543195    88A      1.572631    89A      1.576374
      90A      1.669822    91A      1.738253    92A      1.740544
      93A      1.768355    94A      1.830852    95A      1.831950
      96A      1.971726    97A      2.017477    98A      2.018253
      99A      2.020629   100A      2.050111   101A      2.055266
     102A      2.738212   103A      2.738755   104A      2.790922
     105A      2.811440   106A      2.889658   107A      2.890239
     108A      2.894947   109A      2.929316   110A      2.929673
     111A      2.958990   112A      2.963478   113A      2.965302
     114A      3.034011   115A      3.070252   116A      3.072286
     117A      3.084386   118A      3.168011   119A      3.169594
     120A      3.180560   121A      3.284595   122A      3.286019
     123A      3.326212   124A      3.328121   125A      3.375666
     126A      3.489558   127A      3.490693   128A      3.514036
     129A      3.525301   130A      3.567211   131A      3.569423
     132A      3.575375   133A      3.666071   134A      3.666717
     135A      3.679654   136A      3.693657   137A      3.694554
     138A      3.775950   139A      3.777567   140A      3.789289
     141A      3.910802   142A      3.913653   143A      4.034474
     144A      4.110011   145A      4.112756   146A      4.146457
     147A      4.149754   148A      4.173230   149A      4.201360
     150A      4.202608   151A      4.204780   152A      4.210958
     153A      4.315503   154A      4.316384   155A      4.359009
     156A      4.424195   157A      4.424592   158A      4.443533
     159A      4.515500   160A      4.518216   161A      4.577178
     162A      4.579365   163A      4.617536   164A      4.709437
     165A      4.773180   166A      4.776017   167A      4.836950
     168A      4.962859   169A      5.001875   170A      5.004031
     171A      5.228035   172A      5.246657   173A      5.246987
     174A      5.354746   175A      5.356262   176A      5.479331

    Beta Occupied:

       1A    -10.168060     2A    -10.167741     3A    -10.167524
       4A    -10.166518     5A     -0.781095     6A     -0.684215
       7A     -0.683761     8A     -0.511748     9A     -0.431336
      10A     -0.430750    11A     -0.421822    12A     -0.376905
      13A     -0.376462    14A     -0.362595    15A     -0.333413
      16A     -0.332827

    Beta Virtual:

      17A     -0.025743    18A      0.077081    19A      0.134793
      20A      0.135297    21A      0.144354    22A      0.144643
      23A      0.163339    24A      0.182189    25A      0.182711
      26A      0.215037    27A      0.218927    28A      0.282146
      29A      0.282522    30A      0.400197    31A      0.400590
      32A      0.419799    33A      0.426753    34A      0.427074
      35A      0.468505    36A      0.497243    37A      0.498052
      38A      0.513908    39A      0.556328    40A      0.584122
      41A      0.584590    42A      0.597682    43A      0.597948
      44A      0.609995    45A      0.628147    46A      0.631926
      47A      0.639274    48A      0.639796    49A      0.666689
      50A      0.667265    51A      0.686159    52A      0.686822
      53A      0.757516    54A      0.829739    55A      0.831398
      56A      0.855268    57A      0.922740    58A      0.923256
      59A      0.945912    60A      0.953430    61A      0.966384
      62A      0.967015    63A      1.008707    64A      1.130987
      65A      1.133311    66A      1.155585    67A      1.167816
      68A      1.168869    69A      1.232301    70A      1.279545
      71A      1.280646    72A      1.285107    73A      1.329064
      74A      1.329622    75A      1.365401    76A      1.370377
      77A      1.372156    78A      1.393496    79A      1.406759
      80A      1.408355    81A      1.421604    82A      1.422732
      83A      1.428203    84A      1.492486    85A      1.509508
      86A      1.546779    87A      1.547698    88A      1.580653
      89A      1.584098    90A      1.674668    91A      1.744024
      92A      1.746299    93A      1.779132    94A      1.834691
      95A      1.835822    96A      1.972589    97A      2.023815
      98A      2.027066    99A      2.039647   100A      2.056925
     101A      2.061888   102A      2.746504   103A      2.747136
     104A      2.811852   105A      2.816057   106A      2.902366
     107A      2.902910   108A      2.924650   109A      2.931886
     110A      2.932068   111A      2.960057   112A      2.968051
     113A      2.969812   114A      3.041947   115A      3.079970
     116A      3.082272   117A      3.086327   118A      3.183858
     119A      3.185225   120A      3.188249   121A      3.289462
     122A      3.290754   123A      3.330007   124A      3.331938
     125A      3.383482   126A      3.492289   127A      3.493414
     128A      3.512411   129A      3.528355   130A      3.574772
     131A      3.580731   132A      3.583041   133A      3.670862
     134A      3.671415   135A      3.692953   136A      3.725295
     137A      3.726176   138A      3.780489   139A      3.782157
     140A      3.817757   141A      3.920618   142A      3.923470
     143A      4.045362   144A      4.116834   145A      4.119562
     146A      4.153720   147A      4.156911   148A      4.187292
     149A      4.207268   150A      4.210301   151A      4.210994
     152A      4.215459   153A      4.322917   154A      4.323849
     155A      4.362374   156A      4.432392   157A      4.432780
     158A      4.446466   159A      4.523347   160A      4.525941
     161A      4.587705   162A      4.590043   163A      4.624728
     164A      4.719782   165A      4.780104   166A      4.782998
     167A      4.839869   168A      4.967653   169A      5.005922
     170A      5.008063   171A      5.233747   172A      5.248437
     173A      5.248778   174A      5.361210   175A      5.362759
     176A      5.481652

    Final Occupation by Irrep:
              A
    DOCC [    16 ]
    SOCC [     1 ]

  @DF-UKS Final Energy:  -157.81306286223753

   => Energetics <=

    Nuclear Repulsion Energy =            125.3948514032269514
    One-Electron Energy =                -458.7493515383997646
    Two-Electron Energy =                 195.8485828045122332
    DFT Exchange-Correlation Energy =     -20.3071455315769427
    Empirical Dispersion Energy =           0.0000000000000000
    VV10 Nonlocal Energy =                  0.0000000000000000
    Total Energy =                       -157.8130628622375298

  UHF NO Occupations:
  HONO-2 :   15  A 1.9996009
  HONO-1 :   16  A 1.9989804
  HONO-0 :   17  A 1.0000000
  LUNO+0 :   18  A 0.0010196
  LUNO+1 :   19  A 0.0003991
  LUNO+2 :   20  A 0.0001979
  LUNO+3 :   21  A 0.0001972

Computation Completed

Properties will be evaluated at   0.000000,   0.000000,   0.000000 [a0]

Properties computed using the SCF density matrix

  Nuclear Dipole Moment: [e a0]
     X:     0.8272      Y:    -0.0012      Z:    -0.0102

  Electronic Dipole Moment: [e a0]
     X:    -0.7493      Y:     0.0011      Z:     0.0110

  Dipole Moment: [e a0]
     X:     0.0779      Y:    -0.0001      Z:     0.0007     Total:     0.0779

  Dipole Moment: [D]
     X:     0.1980      Y:    -0.0003      Z:     0.0019     Total:     0.1980

*** tstop() called on n089 at Fri Nov  5 12:39:56 2021
Module time:
	user time   =     506.47 seconds =       8.44 minutes
	system time =       4.69 seconds =       0.08 minutes
	total time  =        129 seconds =       2.15 minutes
Total time:
	user time   =     506.47 seconds =       8.44 minutes
	system time =       4.69 seconds =       0.08 minutes
	total time  =        129 seconds =       2.15 minutes
Grab this energy -157.81306286223753
    Psi4 stopped on: Friday, 05 November 2021 12:39PM
    Psi4 wall time for execution: 0:02:08.60

*** Psi4 exiting successfully. Buy a developer a beer!
