                               Psi4 1.4a2.dev629

  ==> Input File <==

--------------------------------------------------------------------------
import os
memory 14 GB

molecule {
 C   -0.3233400794    0.0002445450   -0.0002246519
 C    0.0615521915   -1.3997665580   -2.4246813580
 C    0.0599099346    2.8018833225   -0.0004832281
 C    0.0618393440   -1.4021488719    2.4278446838
 H    2.0884821229   -1.6473916662   -2.8497471871
 H   -0.7636670572   -0.3868399754   -4.0236077487
 H   -0.7654386952   -3.2915092163   -2.3494236683
 H    2.0835469123    3.2820140792    0.0001862087
 H   -0.7672240122    3.6835762788    1.6767026633
 H   -0.7673425505    3.6835991964   -1.6765195924
 H    2.0886279841   -1.6466372525    2.8488139877
 H   -0.7657243496   -3.2910936373    2.3483559400
 H   -0.7638296222   -0.3859545578    4.0227839510
units bohr
0 2
}

basis {

assign 6-31g_2dfp_

[ 6-31g_2dfp_ ]

spherical

!----------------------------------------------------------------------
! Basis Set Exchange
! Version v0.8.13
! https://www.basissetexchange.org
!----------------------------------------------------------------------
!   Basis set: 6-31G(2df,p)
! Description: 6-31G(2df,p)
!        Role: orbital
!     Version: 0  (Data from the original Basis Set Exchange)
!----------------------------------------------------------------------

****
H     0
S    3   1.00
     18.7311370              0.03349460
      2.8253937              0.23472695
      0.6401217              0.81375733
S    1   1.00
      0.1612778              1.00000000
P    1   1.00
      1.5000000              1.0000000
P    1   1.00
      0.3750000              1.0000000
****
B     0
S    6   1.00
   2068.8823000              0.0018663
    310.6495700              0.0142515
     70.6830330              0.0695516
     19.8610800              0.2325729
      6.2993048              0.4670787
      2.1270270              0.3634314
SP   3   1.00
      4.7279710             -0.1303938              0.0745976
      1.1903377             -0.1307889              0.3078467
      0.3594117              1.1309444              0.7434568
SP   1   1.00
      0.1267512              1.0000000              1.0000000
D    1   1.00
      0.8020000              1.0000000
D    1   1.00
      0.2005000              1.0000000
F    1   1.00
      0.5000000              1.0000000
****
C     0
S    6   1.00
   3047.5249000              0.0018347
    457.3695100              0.0140373
    103.9486900              0.0688426
     29.2101550              0.2321844
      9.2866630              0.4679413
      3.1639270              0.3623120
SP   3   1.00
      7.8682724             -0.1193324              0.0689991
      1.8812885             -0.1608542              0.3164240
      0.5442493              1.1434564              0.7443083
SP   1   1.00
      0.1687144              1.0000000              1.0000000
D    1   1.00
      1.2520000              1.0000000
D    1   1.00
      0.3130000              1.0000000
F    1   1.00
      0.8000000              1.0000000
****
N     0
S    6   1.00
   4173.5110000              0.0018348
    627.4579000              0.0139950
    142.9021000              0.0685870
     40.2343300              0.2322410
     12.8202100              0.4690700
      4.3904370              0.3604550
SP   3   1.00
     11.6263580             -0.1149610              0.0675800
      2.7162800             -0.1691180              0.3239070
      0.7722180              1.1458520              0.7408950
SP   1   1.00
      0.2120313              1.0000000              1.0000000
D    1   1.00
      1.8260000              1.0000000
D    1   1.00
      0.4565000              1.0000000
F    1   1.00
      1.0000000              1.0000000
****
O     0
S    6   1.00
   5484.6717000              0.0018311
    825.2349500              0.0139501
    188.0469600              0.0684451
     52.9645000              0.2327143
     16.8975700              0.4701930
      5.7996353              0.3585209
SP   3   1.00
     15.5396160             -0.1107775              0.0708743
      3.5999336             -0.1480263              0.3397528
      1.0137618              1.1307670              0.7271586
SP   1   1.00
      0.2700058              1.0000000              1.0000000
D    1   1.00
      2.5840000              1.0000000
D    1   1.00
      0.6460000              1.0000000
F    1   1.00
      1.4000000              1.0000000
****
F     0
S    6   1.00
   7001.7130900              0.0018196169
   1051.3660900              0.0139160796
    239.2856900              0.0684053245
     67.3974453              0.233185760
     21.5199573              0.471267439
      7.40310130             0.356618546
SP   3   1.00
     20.8479528             -0.108506975            0.0716287243
      4.80830834            -0.146451658            0.3459121030
      1.34406986             1.128688580            0.7224699570
SP   1   1.00
      0.358151393            1.0000000              1.0000000
D    1   1.00
      3.5000000              1.0000000
D    1   1.00
      0.8750000              1.0000000
F    1   1.00
      1.8500000              1.0000000
****
Al     0
S    6   1.00
  13983.1000000              0.00194267
   2098.7500000              0.0148599
    477.7050000              0.0728494
    134.3600000              0.2468300
     42.8709000              0.4872580
     14.5189000              0.3234960
SP   6   1.00
    239.6680000             -0.00292619             0.00460285
     57.4419000             -0.0374080              0.0331990
     18.2859000             -0.1144870              0.1362820
      6.5991400              0.1156350              0.3304760
      2.4904900              0.6125950              0.4491460
      0.9445400              0.3937990              0.2657040
SP   3   1.00
      1.2779000             -0.2276060             -0.0175130
      0.3975900              0.00144583             0.2445330
      0.1600950              1.0927900              0.8049340
SP   1   1.00
      0.0556577              1.0000000              1.0000000
D    1   1.00
      0.6500000              1.0000000
D    1   1.00
      0.1625000              1.0000000
F    1   1.00
      0.2500000              1.0000000
****
Si     0
S    6   1.00
  16115.9000000              0.00195948
   2425.5800000              0.01492880
    553.8670000              0.07284780
    156.3400000              0.24613000
     50.0683000              0.48591400
     17.0178000              0.32500200
SP   6   1.00
    292.7180000             -0.00278094             0.00443826
     69.8731000             -0.03571460             0.03266790
     22.3363000             -0.11498500             0.13472100
      8.1503900              0.09356340             0.32867800
      3.1345800              0.60301700             0.44964000
      1.2254300              0.41895900             0.26137200
SP   3   1.00
      1.7273800             -0.24463000            -0.01779510
      0.5729220              0.00431572             0.25353900
      0.2221920              1.09818000             0.80066900
SP   1   1.00
      0.0778369              1.00000000             1.00000000
D    1   1.00
      0.9000000              1.0000000
D    1   1.00
      0.2250000              1.0000000
F    1   1.00
      0.3200000              1.0000000
****
P     0
S    6   1.00
  19413.3000000              0.0018516
   2909.4200000              0.0142062
    661.3640000              0.0699995
    185.7590000              0.2400790
     59.1943000              0.4847620
     20.0310000              0.3352000
SP   6   1.00
    339.4780000             -0.00278217             0.00456462
     81.0101000             -0.0360499              0.03369360
     25.8780000             -0.1166310              0.13975500
      9.4522100              0.0968328              0.33936200
      3.6656600              0.6144180              0.45092100
      1.4674600              0.4037980              0.23858600
SP   3   1.00
      2.1562300             -0.2529230             -0.01776530
      0.7489970              0.0328517              0.27405800
      0.2831450              1.0812500              0.78542100
SP   1   1.00
      0.0998317              1.0000000              1.00000000
D    1   1.00
      1.1000000              1.0000000
D    1   1.00
      0.2750000              1.0000000
F    1   1.00
      0.4500000              1.0000000
****
S     0
S    6   1.00
  21917.1000000              0.0018690
   3301.4900000              0.0142300
    754.1460000              0.0696960
    212.7110000              0.2384870
     67.9896000              0.4833070
     23.0515000              0.3380740
SP   6   1.00
    423.7350000             -0.0023767              0.0040610
    100.7100000             -0.0316930              0.0306810
     32.1599000             -0.1133170              0.1304520
     11.8079000              0.0560900              0.3272050
      4.6311000              0.5922550              0.4528510
      1.8702500              0.4550060              0.2560420
SP   3   1.00
      2.6158400             -0.2503740             -0.0145110
      0.9221670              0.0669570              0.3102630
      0.3412870              1.0545100              0.7544830
SP   1   1.00
      0.1171670              1.0000000              1.0000000
D    1   1.00
      1.3000000              1.0000000
D    1   1.00
      0.3250000              1.0000000
F    1   1.00
      0.5500000              1.0000000
****
Cl     0
S    6   1.00
  25180.1000000              0.0018330
   3780.3500000              0.0140340
    860.4740000              0.0690970
    242.1450000              0.2374520
     77.3349000              0.4830340
     26.2470000              0.3398560
SP   6   1.00
    491.7650000             -0.0022974              0.0039894
    116.9840000             -0.0307140              0.0303180
     37.4153000             -0.1125280              0.1298800
     13.7834000              0.0450160              0.3279510
      5.4521500              0.5893530              0.4535270
      2.2258800              0.4652060              0.2521540
SP   3   1.00
      3.1864900             -0.2518300             -0.0142990
      1.1442700              0.0615890              0.3235720
      0.4203770              1.0601800              0.7435070
SP   1   1.00
      0.1426570              1.0000000              1.0000000
D    1   1.00
      1.5000000              1.0000000
D    1   1.00
      0.3750000              1.0000000
F    1   1.00
      0.7000000              1.0000000
****
}

set {
reference uhf
freeze_core true
e_convergence 10
d_convergence 10
dft_spherical_points 1202
dft_radial_points 99
}

e = energy('b3lyp')

print_out('Grab this energy {0}'.format(e))
--------------------------------------------------------------------------

    Molecular point group: c1

    Geometry (in Bohr), charge = 0, multiplicity = 2:

       Center              X                  Y                   Z               Mass
    ------------   -----------------  -----------------  -----------------  -----------------
         C           -0.323340344336     0.000204057348    -0.000697588447    12.000000000000
         C            0.061551926564    -1.399807045652    -2.425154294547    12.000000000000
         C            0.059909669664     2.801842834848    -0.000956164647    12.000000000000
         C            0.061839079064    -1.402189359552     2.427371747253    12.000000000000
         H            2.088481857964    -1.647432153852    -2.850220123647     1.007825032230
         H           -0.763667322136    -0.386880463052    -4.024080685247     1.007825032230
         H           -0.765438960136    -3.291549703952    -2.349896604847     1.007825032230
         H            2.083546647364     3.281973591548    -0.000286727847     1.007825032230
         H           -0.767224277136     3.683535791148     1.676229726753     1.007825032230
         H           -0.767342815436     3.683558708748    -1.676992528947     1.007825032230
         H            2.088627719164    -1.646677740152     2.848341051153     1.007825032230
         H           -0.765724614536    -3.291134124952     2.347883003453     1.007825032230
         H           -0.763829887136    -0.385995045452     4.022311014453     1.007825032230

  Charge       = 0
  Multiplicity = 2
  Basis Set: ANONYMOUSEEF9D135
    Blend: 6-31G_2DFP_
  Basis Set: (ANONYMOUSEEF9D135 AUX)
    Blend: DEF2-UNIVERSAL-JKFIT

    Orbital Energies [Eh]
    ---------------------

    Alpha Occupied:

       1A    -10.180342     2A    -10.167059     3A    -10.167031
       4A    -10.166955     5A     -0.797767     6A     -0.686225
       7A     -0.686149     8A     -0.530776     9A     -0.441125
      10A     -0.434790    11A     -0.434553    12A     -0.382840
      13A     -0.382356    14A     -0.363612    15A     -0.338256
      16A     -0.337741    17A     -0.168961

    Alpha Virtual:

      18A      0.076073    19A      0.134103    20A      0.134205
      21A      0.142413    22A      0.142844    23A      0.154880
      24A      0.178620    25A      0.178932    26A      0.203549
      27A      0.214802    28A      0.275760    29A      0.276211
      30A      0.399099    31A      0.399355    32A      0.403346
      33A      0.423986    34A      0.424210    35A      0.456595
      36A      0.495363    37A      0.495414    38A      0.512161
      39A      0.513982    40A      0.578672    41A      0.578946
      42A      0.591374    43A      0.591877    44A      0.602605
      45A      0.624763    46A      0.631745    47A      0.635991
      48A      0.636534    49A      0.663340    50A      0.663486
      51A      0.683736    52A      0.683968    53A      0.734993
      54A      0.825325    55A      0.825488    56A      0.853915
      57A      0.914705    58A      0.915343    59A      0.944108
      60A      0.944613    61A      0.961221    62A      0.961387
      63A      1.003450    64A      1.127691    65A      1.128522
      66A      1.142211    67A      1.162940    68A      1.163611
      69A      1.223325    70A      1.274176    71A      1.274773
      72A      1.279390    73A      1.324253    74A      1.324456
      75A      1.355974    76A      1.365912    77A      1.366215
      78A      1.392444    79A      1.403523    80A      1.404561
      81A      1.416721    82A      1.417483    83A      1.427937
      84A      1.491498    85A      1.499061    86A      1.542766
      87A      1.542904    88A      1.573930    89A      1.574975
      90A      1.669825    91A      1.739262    92A      1.739565
      93A      1.768329    94A      1.830738    95A      1.832067
      96A      1.971723    97A      2.018194    98A      2.018601
      99A      2.019603   100A      2.051818   101A      2.053473
     102A      2.738367   103A      2.738608   104A      2.790926
     105A      2.811428   106A      2.889749   107A      2.890123
     108A      2.894982   109A      2.929183   110A      2.929806
     111A      2.958988   112A      2.964169   113A      2.964592
     114A      3.034003   115A      3.070620   116A      3.071950
     117A      3.084353   118A      3.168484   119A      3.169063
     120A      3.180600   121A      3.285198   122A      3.285432
     123A      3.326267   124A      3.328062   125A      3.375614
     126A      3.489032   127A      3.491275   128A      3.514008
     129A      3.525336   130A      3.568220   131A      3.568417
     132A      3.575293   133A      3.665576   134A      3.667140
     135A      3.679679   136A      3.693464   137A      3.694776
     138A      3.776603   139A      3.776988   140A      3.789174
     141A      3.911468   142A      3.912994   143A      4.034446
     144A      4.111165   145A      4.111569   146A      4.147822
     147A      4.148403   148A      4.173250   149A      4.201899
     150A      4.203281   151A      4.203641   152A      4.210851
     153A      4.315212   154A      4.316688   155A      4.358981
     156A      4.423496   157A      4.425350   158A      4.443507
     159A      4.515927   160A      4.517725   161A      4.578250
     162A      4.578301   163A      4.617588   164A      4.709400
     165A      4.773900   166A      4.775270   167A      4.836930
     168A      4.962830   169A      5.002093   170A      5.003857
     171A      5.228065   172A      5.246228   173A      5.247395
     174A      5.355427   175A      5.355590   176A      5.479344

    Beta Occupied:

       1A    -10.167811     2A    -10.167795     3A    -10.167719
       4A    -10.166520     5A     -0.781092     6A     -0.684028
       7A     -0.683952     8A     -0.511747     9A     -0.431171
      10A     -0.430914    11A     -0.421823    12A     -0.376939
      13A     -0.376427    14A     -0.362596    15A     -0.333373
      16A     -0.332870

    Beta Virtual:

      17A     -0.025743    18A      0.077082    19A      0.135003
      20A      0.135085    21A      0.144309    22A      0.144689
      23A      0.163339    24A      0.182294    25A      0.182603
      26A      0.215032    27A      0.218930    28A      0.282117
      29A      0.282551    30A      0.400272    31A      0.400521
      32A      0.419792    33A      0.426796    34A      0.427022
      35A      0.468502    36A      0.497619    37A      0.497681
      38A      0.513896    39A      0.556326    40A      0.584217
      41A      0.584504    42A      0.597549    43A      0.598064
      44A      0.610023    45A      0.628138    46A      0.631913
      47A      0.639275    48A      0.639810    49A      0.666894
      50A      0.667059    51A      0.686389    52A      0.686585
      53A      0.757516    54A      0.830492    55A      0.830658
      56A      0.855269    57A      0.922702    58A      0.923291
      59A      0.945947    60A      0.953539    61A      0.966539
      62A      0.966681    63A      1.008691    64A      1.131764
      65A      1.132509    66A      1.155575    67A      1.167983
      68A      1.168724    69A      1.232297    70A      1.279774
      71A      1.280372    72A      1.285143    73A      1.329247
      74A      1.329441    75A      1.365375    76A      1.371194
      77A      1.371435    78A      1.393504    79A      1.406999
      80A      1.408014    81A      1.421765    82A      1.422520
      83A      1.428224    84A      1.492547    85A      1.509502
      86A      1.547129    87A      1.547365    88A      1.581713
      89A      1.582932    90A      1.674672    91A      1.745022
      92A      1.745330    93A      1.779108    94A      1.834604
      95A      1.835912    96A      1.972583    97A      2.024911
      98A      2.025998    99A      2.039658   100A      2.058526
     101A      2.060202   102A      2.746722   103A      2.746924
     104A      2.811840   105A      2.816061   106A      2.902442
     107A      2.902838   108A      2.924652   109A      2.931681
     110A      2.932276   111A      2.960056   112A      2.968708
     113A      2.969137   114A      3.041938   115A      3.080489
     116A      3.081897   117A      3.086174   118A      3.184226
     119A      3.184771   120A      3.188332   121A      3.289959
     122A      3.290269   123A      3.330084   124A      3.331853
     125A      3.383433   126A      3.491777   127A      3.493989
     128A      3.512375   129A      3.528381   130A      3.574880
     131A      3.581682   132A      3.581905   133A      3.670305
     134A      3.671920   135A      3.692963   136A      3.725329
     137A      3.726184   138A      3.781101   139A      3.781548
     140A      3.817704   141A      3.921333   142A      3.922762
     143A      4.045334   144A      4.117904   145A      4.118462
     146A      4.155099   147A      4.155545   148A      4.187306
     149A      4.208267   150A      4.209536   151A      4.210859
     152A      4.215327   153A      4.322631   154A      4.324149
     155A      4.362343   156A      4.431732   157A      4.433515
     158A      4.446421   159A      4.523727   160A      4.525505
     161A      4.588830   162A      4.588922   163A      4.624781
     164A      4.719744   165A      4.780835   166A      4.782242
     167A      4.839848   168A      4.967625   169A      5.006152
     170A      5.007876   171A      5.233780   172A      5.248017
     173A      5.249175   174A      5.361894   175A      5.362084
     176A      5.481665

    Final Occupation by Irrep:
              A
    DOCC [    16 ]
    SOCC [     1 ]

  @DF-UKS Final Energy:  -157.81306535532568

   => Energetics <=

    Nuclear Repulsion Energy =            125.3946102185645941
    One-Electron Energy =                -458.7488705333066150
    Two-Electron Energy =                 195.8483384123684630
    DFT Exchange-Correlation Energy =     -20.3071434529521220
    Empirical Dispersion Energy =           0.0000000000000000
    VV10 Nonlocal Energy =                  0.0000000000000000
    Total Energy =                       -157.8130653553256764

  UHF NO Occupations:
  HONO-2 :   15  A 1.9996008
  HONO-1 :   16  A 1.9989805
  HONO-0 :   17  A 1.0000000
  LUNO+0 :   18  A 0.0010195
  LUNO+1 :   19  A 0.0003992
  LUNO+2 :   20  A 0.0001979
  LUNO+3 :   21  A 0.0001971

Computation Completed

Properties will be evaluated at   0.000000,   0.000000,   0.000000 [a0]

Properties computed using the SCF density matrix

  Nuclear Dipole Moment: [e a0]
     X:     0.8272      Y:    -0.0003      Z:    -0.0033

  Electronic Dipole Moment: [e a0]
     X:    -0.7493      Y:     0.0011      Z:     0.0034

  Dipole Moment: [e a0]
     X:     0.0779      Y:     0.0008      Z:     0.0001     Total:     0.0779

  Dipole Moment: [D]
     X:     0.1980      Y:     0.0019      Z:     0.0002     Total:     0.1980

*** tstop() called on n035 at Fri Nov  5 13:14:16 2021
Module time:
	user time   =     635.21 seconds =      10.59 minutes
	system time =      12.39 seconds =       0.21 minutes
	total time  =        163 seconds =       2.72 minutes
Total time:
	user time   =     635.21 seconds =      10.59 minutes
	system time =      12.39 seconds =       0.21 minutes
	total time  =        163 seconds =       2.72 minutes
Grab this energy -157.81306535532568
    Psi4 stopped on: Friday, 05 November 2021 01:14PM
    Psi4 wall time for execution: 0:02:42.83

*** Psi4 exiting successfully. Buy a developer a beer!
