                               Psi4 1.4a2.dev629

  ==> Input File <==

--------------------------------------------------------------------------
import os
memory 14 GB

molecule {
 C   -0.3218901971   -0.0002271352   -0.0000000000
 C    0.0602011104   -1.4007205173   -2.4252710948
 C    0.0603300914    2.8041229666   -0.0000000000
 C    0.0602011104   -1.4007205173    2.4252710948
 H    2.0869470392   -1.6441088355   -2.8477803181
 H   -0.7651258726   -0.3883323507   -4.0257893820
 H   -0.7653958370   -3.2920827954   -2.3493341317
 H    2.0869263431    3.2873746188    0.0000000000
 H   -0.7656134970    3.6795971170    1.6767082965
 H   -0.7656134970    3.6795971170   -1.6767082965
 H    2.0869470392   -1.6441088355    2.8477803181
 H   -0.7653958370   -3.2920827954    2.3493341317
 H   -0.7651258726   -0.3883323507    4.0257893820
units bohr
0 2
}

basis {

assign 6-31g_2dfp_

[ 6-31g_2dfp_ ]

spherical

!----------------------------------------------------------------------
! Basis Set Exchange
! Version v0.8.13
! https://www.basissetexchange.org
!----------------------------------------------------------------------
!   Basis set: 6-31G(2df,p)
! Description: 6-31G(2df,p)
!        Role: orbital
!     Version: 0  (Data from the original Basis Set Exchange)
!----------------------------------------------------------------------

****
H     0
S    3   1.00
     18.7311370              0.03349460
      2.8253937              0.23472695
      0.6401217              0.81375733
S    1   1.00
      0.1612778              1.00000000
P    1   1.00
      1.5000000              1.0000000
P    1   1.00
      0.3750000              1.0000000
****
B     0
S    6   1.00
   2068.8823000              0.0018663
    310.6495700              0.0142515
     70.6830330              0.0695516
     19.8610800              0.2325729
      6.2993048              0.4670787
      2.1270270              0.3634314
SP   3   1.00
      4.7279710             -0.1303938              0.0745976
      1.1903377             -0.1307889              0.3078467
      0.3594117              1.1309444              0.7434568
SP   1   1.00
      0.1267512              1.0000000              1.0000000
D    1   1.00
      0.8020000              1.0000000
D    1   1.00
      0.2005000              1.0000000
F    1   1.00
      0.5000000              1.0000000
****
C     0
S    6   1.00
   3047.5249000              0.0018347
    457.3695100              0.0140373
    103.9486900              0.0688426
     29.2101550              0.2321844
      9.2866630              0.4679413
      3.1639270              0.3623120
SP   3   1.00
      7.8682724             -0.1193324              0.0689991
      1.8812885             -0.1608542              0.3164240
      0.5442493              1.1434564              0.7443083
SP   1   1.00
      0.1687144              1.0000000              1.0000000
D    1   1.00
      1.2520000              1.0000000
D    1   1.00
      0.3130000              1.0000000
F    1   1.00
      0.8000000              1.0000000
****
N     0
S    6   1.00
   4173.5110000              0.0018348
    627.4579000              0.0139950
    142.9021000              0.0685870
     40.2343300              0.2322410
     12.8202100              0.4690700
      4.3904370              0.3604550
SP   3   1.00
     11.6263580             -0.1149610              0.0675800
      2.7162800             -0.1691180              0.3239070
      0.7722180              1.1458520              0.7408950
SP   1   1.00
      0.2120313              1.0000000              1.0000000
D    1   1.00
      1.8260000              1.0000000
D    1   1.00
      0.4565000              1.0000000
F    1   1.00
      1.0000000              1.0000000
****
O     0
S    6   1.00
   5484.6717000              0.0018311
    825.2349500              0.0139501
    188.0469600              0.0684451
     52.9645000              0.2327143
     16.8975700              0.4701930
      5.7996353              0.3585209
SP   3   1.00
     15.5396160             -0.1107775              0.0708743
      3.5999336             -0.1480263              0.3397528
      1.0137618              1.1307670              0.7271586
SP   1   1.00
      0.2700058              1.0000000              1.0000000
D    1   1.00
      2.5840000              1.0000000
D    1   1.00
      0.6460000              1.0000000
F    1   1.00
      1.4000000              1.0000000
****
F     0
S    6   1.00
   7001.7130900              0.0018196169
   1051.3660900              0.0139160796
    239.2856900              0.0684053245
     67.3974453              0.233185760
     21.5199573              0.471267439
      7.40310130             0.356618546
SP   3   1.00
     20.8479528             -0.108506975            0.0716287243
      4.80830834            -0.146451658            0.3459121030
      1.34406986             1.128688580            0.7224699570
SP   1   1.00
      0.358151393            1.0000000              1.0000000
D    1   1.00
      3.5000000              1.0000000
D    1   1.00
      0.8750000              1.0000000
F    1   1.00
      1.8500000              1.0000000
****
Al     0
S    6   1.00
  13983.1000000              0.00194267
   2098.7500000              0.0148599
    477.7050000              0.0728494
    134.3600000              0.2468300
     42.8709000              0.4872580
     14.5189000              0.3234960
SP   6   1.00
    239.6680000             -0.00292619             0.00460285
     57.4419000             -0.0374080              0.0331990
     18.2859000             -0.1144870              0.1362820
      6.5991400              0.1156350              0.3304760
      2.4904900              0.6125950              0.4491460
      0.9445400              0.3937990              0.2657040
SP   3   1.00
      1.2779000             -0.2276060             -0.0175130
      0.3975900              0.00144583             0.2445330
      0.1600950              1.0927900              0.8049340
SP   1   1.00
      0.0556577              1.0000000              1.0000000
D    1   1.00
      0.6500000              1.0000000
D    1   1.00
      0.1625000              1.0000000
F    1   1.00
      0.2500000              1.0000000
****
Si     0
S    6   1.00
  16115.9000000              0.00195948
   2425.5800000              0.01492880
    553.8670000              0.07284780
    156.3400000              0.24613000
     50.0683000              0.48591400
     17.0178000              0.32500200
SP   6   1.00
    292.7180000             -0.00278094             0.00443826
     69.8731000             -0.03571460             0.03266790
     22.3363000             -0.11498500             0.13472100
      8.1503900              0.09356340             0.32867800
      3.1345800              0.60301700             0.44964000
      1.2254300              0.41895900             0.26137200
SP   3   1.00
      1.7273800             -0.24463000            -0.01779510
      0.5729220              0.00431572             0.25353900
      0.2221920              1.09818000             0.80066900
SP   1   1.00
      0.0778369              1.00000000             1.00000000
D    1   1.00
      0.9000000              1.0000000
D    1   1.00
      0.2250000              1.0000000
F    1   1.00
      0.3200000              1.0000000
****
P     0
S    6   1.00
  19413.3000000              0.0018516
   2909.4200000              0.0142062
    661.3640000              0.0699995
    185.7590000              0.2400790
     59.1943000              0.4847620
     20.0310000              0.3352000
SP   6   1.00
    339.4780000             -0.00278217             0.00456462
     81.0101000             -0.0360499              0.03369360
     25.8780000             -0.1166310              0.13975500
      9.4522100              0.0968328              0.33936200
      3.6656600              0.6144180              0.45092100
      1.4674600              0.4037980              0.23858600
SP   3   1.00
      2.1562300             -0.2529230             -0.01776530
      0.7489970              0.0328517              0.27405800
      0.2831450              1.0812500              0.78542100
SP   1   1.00
      0.0998317              1.0000000              1.00000000
D    1   1.00
      1.1000000              1.0000000
D    1   1.00
      0.2750000              1.0000000
F    1   1.00
      0.4500000              1.0000000
****
S     0
S    6   1.00
  21917.1000000              0.0018690
   3301.4900000              0.0142300
    754.1460000              0.0696960
    212.7110000              0.2384870
     67.9896000              0.4833070
     23.0515000              0.3380740
SP   6   1.00
    423.7350000             -0.0023767              0.0040610
    100.7100000             -0.0316930              0.0306810
     32.1599000             -0.1133170              0.1304520
     11.8079000              0.0560900              0.3272050
      4.6311000              0.5922550              0.4528510
      1.8702500              0.4550060              0.2560420
SP   3   1.00
      2.6158400             -0.2503740             -0.0145110
      0.9221670              0.0669570              0.3102630
      0.3412870              1.0545100              0.7544830
SP   1   1.00
      0.1171670              1.0000000              1.0000000
D    1   1.00
      1.3000000              1.0000000
D    1   1.00
      0.3250000              1.0000000
F    1   1.00
      0.5500000              1.0000000
****
Cl     0
S    6   1.00
  25180.1000000              0.0018330
   3780.3500000              0.0140340
    860.4740000              0.0690970
    242.1450000              0.2374520
     77.3349000              0.4830340
     26.2470000              0.3398560
SP   6   1.00
    491.7650000             -0.0022974              0.0039894
    116.9840000             -0.0307140              0.0303180
     37.4153000             -0.1125280              0.1298800
     13.7834000              0.0450160              0.3279510
      5.4521500              0.5893530              0.4535270
      2.2258800              0.4652060              0.2521540
SP   3   1.00
      3.1864900             -0.2518300             -0.0142990
      1.1442700              0.0615890              0.3235720
      0.4203770              1.0601800              0.7435070
SP   1   1.00
      0.1426570              1.0000000              1.0000000
D    1   1.00
      1.5000000              1.0000000
D    1   1.00
      0.3750000              1.0000000
F    1   1.00
      0.7000000              1.0000000
****
}

set {
reference uhf
freeze_core true
e_convergence 10
d_convergence 10
dft_spherical_points 1202
dft_radial_points 99
}

e = energy('b3lyp')

print_out('Grab this energy {0}'.format(e))
--------------------------------------------------------------------------

    Molecular point group: cs

    Geometry (in Bohr), charge = 0, multiplicity = 2:

       Center              X                  Y                   Z               Mass
    ------------   -----------------  -----------------  -----------------  -----------------
         C           -0.321674881499    -0.000699517383     0.000000000000    12.000000000000
         C            0.060416426001    -1.401192899483    -2.425271094800    12.000000000000
         C            0.060545407001     2.803650584417     0.000000000000    12.000000000000
         C            0.060416426001    -1.401192899483     2.425271094800    12.000000000000
         H            2.087162354801    -1.644581217683    -2.847780318100     1.007825032230
         H           -0.764910556999    -0.388804732883    -4.025789382000     1.007825032230
         H           -0.765180521399    -3.292555177583    -2.349334131700     1.007825032230
         H            2.087141658701     3.286902236617     0.000000000000     1.007825032230
         H           -0.765398181399     3.679124734817     1.676708296500     1.007825032230
         H           -0.765398181399     3.679124734817    -1.676708296500     1.007825032230
         H            2.087162354801    -1.644581217683     2.847780318100     1.007825032230
         H           -0.765180521399    -3.292555177583     2.349334131700     1.007825032230
         H           -0.764910556999    -0.388804732883     4.025789382000     1.007825032230

  Charge       = 0
  Multiplicity = 2
  Basis Set: ANONYMOUSCE49D80E
    Blend: 6-31G_2DFP_
  Basis Set: (ANONYMOUSCE49D80E AUX)
    Blend: DEF2-UNIVERSAL-JKFIT

    Orbital Energies [Eh]
    ---------------------

    Alpha Occupied:

       1Ap   -10.180276     1App  -10.167059     2Ap   -10.167037
       3Ap   -10.166973     4Ap    -0.797781     5Ap    -0.686228
       2App   -0.686180     6Ap    -0.530770     7Ap    -0.441067
       3App   -0.434817     8Ap    -0.434652     9Ap    -0.382583
       4App   -0.382401     5App   -0.363738     6App   -0.338298
      10Ap    -0.337882    11Ap    -0.168778

    Alpha Virtual:

      12Ap     0.076069     7App    0.134141    13Ap     0.134176
      14Ap     0.142587     8App    0.142717    15Ap     0.154800
       9App    0.178628    16Ap     0.178792    17Ap     0.203519
      10App    0.214850    18Ap     0.275935    11App    0.276382
      19Ap     0.399235    12App    0.399261    20Ap     0.403426
      21Ap     0.424081    13App    0.424169    22Ap     0.456499
      23Ap     0.495392    14App    0.495437    15App    0.512115
      24Ap     0.514079    25Ap     0.578645    16App    0.578729
      17App    0.591548    26Ap     0.591669    27Ap     0.602354
      28Ap     0.624843    18App    0.631833    29Ap     0.636241
      19App    0.636571    30Ap     0.663191    20App    0.663314
      21App    0.683942    31Ap     0.683981    32Ap     0.735190
      22App    0.825407    33Ap     0.825519    23App    0.853914
      34Ap     0.915078    24App    0.915103    25App    0.944078
      35Ap     0.944565    26App    0.961235    36Ap     0.961316
      37Ap     1.003452    38Ap     1.127927    27App    1.128098
      39Ap     1.142211    40Ap     1.162549    28App    1.163128
      41Ap     1.223487    42Ap     1.274235    29App    1.274860
      43Ap     1.279131    44Ap     1.324546    30App    1.324671
      45Ap     1.355754    46Ap     1.366284    31App    1.366582
      32App    1.392444    33App    1.403835    47Ap     1.404167
      48Ap     1.416729    34App    1.417012    35App    1.427872
      36App    1.491674    49Ap     1.498686    50Ap     1.542712
      37App    1.542848    51Ap     1.574532    38App    1.574924
      52Ap     1.670089    39App    1.739529    53Ap     1.739793
      54Ap     1.768259    40App    1.831277    55Ap     1.832294
      41App    1.971991    56Ap     2.018173    42App    2.019288
      57Ap     2.019338    58Ap     2.051578    43App    2.052927
      44App    2.738559    59Ap     2.738801    60Ap     2.790724
      45App    2.811458    61Ap     2.890117    46App    2.890284
      62Ap     2.894636    63Ap     2.929409    47App    2.929541
      48App    2.959062    64Ap     2.964398    49App    2.964571
      65Ap     3.033654    50App    3.071985    66Ap     3.072268
      51App    3.084424    67Ap     3.168448    52App    3.168857
      68Ap     3.180640    69Ap     3.284503    53App    3.284528
      70Ap     3.326616    54App    3.326995    71Ap     3.375446
      72Ap     3.490063    55App    3.490708    56App    3.514196
      73Ap     3.524867    74Ap     3.568615    57App    3.568751
      58App    3.574523    59App    3.666277    75Ap     3.667613
      76Ap     3.679890    60App    3.693927    77Ap     3.694194
      78Ap     3.776884    61App    3.777285    79Ap     3.790386
      80Ap     3.911496    62App    3.913000    81Ap     4.034764
      82Ap     4.111457    63App    4.111764    83Ap     4.147844
      64App    4.148462    84Ap     4.173284    85Ap     4.202208
      65App    4.203186    86Ap     4.203225    66App    4.210803
      87Ap     4.315023    67App    4.316479    68App    4.358498
      88Ap     4.423688    69App    4.425445    70App    4.443790
      89Ap     4.515879    71App    4.517206    90Ap     4.578139
      72App    4.578174    91Ap     4.618032    92Ap     4.709125
      73App    4.774401    93Ap     4.775052    74App    4.838113
      94Ap     4.962731    75App    5.002087    95Ap     5.003559
      96Ap     5.228149    97Ap     5.246719    76App    5.247115
      98Ap     5.355710    77App    5.355850    78App    5.479712

    Beta Occupied:

       1App  -10.167816     1Ap   -10.167801     2Ap   -10.167738
       3Ap   -10.166458     4Ap    -0.781102     5Ap    -0.684038
       2App   -0.683980     6Ap    -0.511750     3App   -0.431199
       7Ap    -0.431031     8Ap    -0.421733     9Ap    -0.376677
       4App   -0.376456     5App   -0.362723     6App   -0.333418
      10Ap    -0.333000

    Beta Virtual:

      11Ap    -0.025642    12Ap     0.077083    13Ap     0.135056
       7App    0.135062    14Ap     0.144472     8App    0.144568
      15Ap     0.163270     9App    0.182310    16Ap     0.182450
      10App    0.215080    17Ap     0.218924    18Ap     0.282279
      11App    0.282709    19Ap     0.400409    12App    0.400428
      20Ap     0.419898    21Ap     0.426889    13App    0.426979
      22Ap     0.468394    23Ap     0.497642    14App    0.497699
      15App    0.513854    24Ap     0.556424    25Ap     0.584204
      16App    0.584298    17App    0.597722    26Ap     0.597842
      27Ap     0.609805    28Ap     0.628195    18App    0.631989
      29Ap     0.639527    19App    0.639845    30Ap     0.666746
      20App    0.666882    21App    0.686595    31Ap     0.686610
      32Ap     0.757693    22App    0.830567    33Ap     0.830688
      23App    0.855271    34Ap     0.923037    24App    0.923066
      25App    0.945918    35Ap     0.953499    26App    0.966578
      36Ap     0.966652    37Ap     1.008673    38Ap     1.131958
      27App    1.132113    39Ap     1.155614    40Ap     1.167609
      28App    1.168221    41Ap     1.232463    42Ap     1.279812
      29App    1.280445    43Ap     1.284877    44Ap     1.329541
      30App    1.329638    45Ap     1.365195    46Ap     1.371559
      31App    1.371801    32App    1.393509    33App    1.407350
      47Ap     1.407586    48Ap     1.421817    34App    1.422061
      35App    1.428141    36App    1.492724    49Ap     1.509123
      50Ap     1.547111    37App    1.547266    51Ap     1.582399
      38App    1.582800    52Ap     1.674921    39App    1.745288
      53Ap     1.745559    54Ap     1.779060    40App    1.835151
      55Ap     1.836148    41App    1.972851    56Ap     2.024612
      42App    2.025705    57Ap     2.040658    58Ap     2.058279
      43App    2.059621    44App    2.746917    59Ap     2.747115
      45App    2.811861    60Ap     2.815879    61Ap     2.902790
      46App    2.902906    62Ap     2.924352    63Ap     2.931921
      47App    2.932018    48App    2.960124    64Ap     2.968918
      49App    2.969119    65Ap     3.041631    50App    3.081857
      66Ap     3.082131    51App    3.086249    67Ap     3.184240
      52App    3.184723    68Ap     3.188315    53App    3.289339
      69Ap     3.289368    70Ap     3.330419    54App    3.330783
      71Ap     3.383255    72Ap     3.492754    55App    3.493441
      56App    3.512557    73Ap     3.527904    57App    3.574376
      74Ap     3.581894    58App    3.582068    59App    3.671012
      75Ap     3.672419    76Ap     3.693187    60App    3.725546
      77Ap     3.725820    78Ap     3.781326    61App    3.781813
      79Ap     3.818942    80Ap     3.921401    62App    3.922804
      81Ap     4.045623    82Ap     4.118185    63App    4.118695
      83Ap     4.155137    64App    4.155561    84Ap     4.187383
      85Ap     4.208280    65App    4.209128    86Ap     4.211042
      66App    4.215300    87Ap     4.322416    67App    4.323925
      68App    4.361860    88Ap     4.431978    69App    4.433638
      70App    4.446702    89Ap     4.523693    71App    4.525007
      90Ap     4.588690    72App    4.588759    91Ap     4.625234
      92Ap     4.719445    73App    4.781358    93Ap     4.781972
      74App    4.841020    94Ap     4.967530    75App    5.006154
      95Ap     5.007597    96Ap     5.233863    97Ap     5.248511
      76App    5.248891    98Ap     5.362161    77App    5.362343
      78App    5.482027

    Final Occupation by Irrep:
             Ap   App
    DOCC [    10,    6 ]
    SOCC [     1,    0 ]

  @DF-UKS Final Energy:  -157.81307917579392

   => Energetics <=

    Nuclear Repulsion Energy =            125.3970072093645882
    One-Electron Energy =                -458.7535168194299331
    Two-Electron Energy =                 195.8506413695585593
    DFT Exchange-Correlation Energy =     -20.3072109352871131
    Empirical Dispersion Energy =           0.0000000000000000
    VV10 Nonlocal Energy =                  0.0000000000000000
    Total Energy =                       -157.8130791757939164

  UHF NO Occupations:
  HONO-2 :    9 Ap 1.9995994
  HONO-1 :   10 Ap 1.9989790
  HONO-0 :   11 Ap 1.0000000
  LUNO+0 :   12 Ap 0.0010210
  LUNO+1 :   13 Ap 0.0004006
  LUNO+2 :   14 Ap 0.0001978
  LUNO+3 :    7App 0.0001971

Computation Completed

Properties will be evaluated at   0.000000,   0.000000,   0.000000 [a0]

Properties computed using the SCF density matrix

  Nuclear Dipole Moment: [e a0]
     X:     0.8287      Y:    -0.0033      Z:     0.0000

  Electronic Dipole Moment: [e a0]
     X:    -0.7516      Y:     0.0034      Z:     0.0000

  Dipole Moment: [e a0]
     X:     0.0771      Y:     0.0001      Z:     0.0000     Total:     0.0771

  Dipole Moment: [D]
     X:     0.1961      Y:     0.0002      Z:     0.0000     Total:     0.1961

*** tstop() called on n082 at Fri Nov  5 11:31:08 2021
Module time:
	user time   =     496.33 seconds =       8.27 minutes
	system time =       4.44 seconds =       0.07 minutes
	total time  =        126 seconds =       2.10 minutes
Total time:
	user time   =     496.33 seconds =       8.27 minutes
	system time =       4.44 seconds =       0.07 minutes
	total time  =        126 seconds =       2.10 minutes
Grab this energy -157.81307917579392
    Psi4 stopped on: Friday, 05 November 2021 11:31AM
    Psi4 wall time for execution: 0:02:05.93

*** Psi4 exiting successfully. Buy a developer a beer!
