                               Psi4 1.4a2.dev629

  ==> Input File <==

--------------------------------------------------------------------------
import os
memory 14 GB

molecule {
 C   -0.3251197500   -0.0000033512   -0.0024285672
 C    0.0598930465   -1.3999220787   -2.4259771196
 C    0.0604625671    2.8020156485   -0.0012519402
 C    0.0612722851   -1.4020915654    2.4272307338
 H    2.0850320727   -1.6428842509   -2.8419976528
 H   -0.7640408631   -0.3881740263   -4.0280253267
 H   -0.7685566168   -3.2898922296   -2.3493816815
 H    2.0871107863    3.2820673883    0.0033539459
 H   -0.7695893028    3.6805900578    1.6725936078
 H   -0.7608646649    3.6863742211   -1.6792678966
 H    2.0894732072   -1.6392747698    2.8424333023
 H   -0.7617443309   -3.2963575907    2.3547518661
 H   -0.7659363133   -0.3924717666    4.0279667287
units bohr
0 2
}

basis {

assign 6-31g_2dfp_

[ 6-31g_2dfp_ ]

spherical

!----------------------------------------------------------------------
! Basis Set Exchange
! Version v0.8.13
! https://www.basissetexchange.org
!----------------------------------------------------------------------
!   Basis set: 6-31G(2df,p)
! Description: 6-31G(2df,p)
!        Role: orbital
!     Version: 0  (Data from the original Basis Set Exchange)
!----------------------------------------------------------------------

****
H     0
S    3   1.00
     18.7311370              0.03349460
      2.8253937              0.23472695
      0.6401217              0.81375733
S    1   1.00
      0.1612778              1.00000000
P    1   1.00
      1.5000000              1.0000000
P    1   1.00
      0.3750000              1.0000000
****
B     0
S    6   1.00
   2068.8823000              0.0018663
    310.6495700              0.0142515
     70.6830330              0.0695516
     19.8610800              0.2325729
      6.2993048              0.4670787
      2.1270270              0.3634314
SP   3   1.00
      4.7279710             -0.1303938              0.0745976
      1.1903377             -0.1307889              0.3078467
      0.3594117              1.1309444              0.7434568
SP   1   1.00
      0.1267512              1.0000000              1.0000000
D    1   1.00
      0.8020000              1.0000000
D    1   1.00
      0.2005000              1.0000000
F    1   1.00
      0.5000000              1.0000000
****
C     0
S    6   1.00
   3047.5249000              0.0018347
    457.3695100              0.0140373
    103.9486900              0.0688426
     29.2101550              0.2321844
      9.2866630              0.4679413
      3.1639270              0.3623120
SP   3   1.00
      7.8682724             -0.1193324              0.0689991
      1.8812885             -0.1608542              0.3164240
      0.5442493              1.1434564              0.7443083
SP   1   1.00
      0.1687144              1.0000000              1.0000000
D    1   1.00
      1.2520000              1.0000000
D    1   1.00
      0.3130000              1.0000000
F    1   1.00
      0.8000000              1.0000000
****
N     0
S    6   1.00
   4173.5110000              0.0018348
    627.4579000              0.0139950
    142.9021000              0.0685870
     40.2343300              0.2322410
     12.8202100              0.4690700
      4.3904370              0.3604550
SP   3   1.00
     11.6263580             -0.1149610              0.0675800
      2.7162800             -0.1691180              0.3239070
      0.7722180              1.1458520              0.7408950
SP   1   1.00
      0.2120313              1.0000000              1.0000000
D    1   1.00
      1.8260000              1.0000000
D    1   1.00
      0.4565000              1.0000000
F    1   1.00
      1.0000000              1.0000000
****
O     0
S    6   1.00
   5484.6717000              0.0018311
    825.2349500              0.0139501
    188.0469600              0.0684451
     52.9645000              0.2327143
     16.8975700              0.4701930
      5.7996353              0.3585209
SP   3   1.00
     15.5396160             -0.1107775              0.0708743
      3.5999336             -0.1480263              0.3397528
      1.0137618              1.1307670              0.7271586
SP   1   1.00
      0.2700058              1.0000000              1.0000000
D    1   1.00
      2.5840000              1.0000000
D    1   1.00
      0.6460000              1.0000000
F    1   1.00
      1.4000000              1.0000000
****
F     0
S    6   1.00
   7001.7130900              0.0018196169
   1051.3660900              0.0139160796
    239.2856900              0.0684053245
     67.3974453              0.233185760
     21.5199573              0.471267439
      7.40310130             0.356618546
SP   3   1.00
     20.8479528             -0.108506975            0.0716287243
      4.80830834            -0.146451658            0.3459121030
      1.34406986             1.128688580            0.7224699570
SP   1   1.00
      0.358151393            1.0000000              1.0000000
D    1   1.00
      3.5000000              1.0000000
D    1   1.00
      0.8750000              1.0000000
F    1   1.00
      1.8500000              1.0000000
****
Al     0
S    6   1.00
  13983.1000000              0.00194267
   2098.7500000              0.0148599
    477.7050000              0.0728494
    134.3600000              0.2468300
     42.8709000              0.4872580
     14.5189000              0.3234960
SP   6   1.00
    239.6680000             -0.00292619             0.00460285
     57.4419000             -0.0374080              0.0331990
     18.2859000             -0.1144870              0.1362820
      6.5991400              0.1156350              0.3304760
      2.4904900              0.6125950              0.4491460
      0.9445400              0.3937990              0.2657040
SP   3   1.00
      1.2779000             -0.2276060             -0.0175130
      0.3975900              0.00144583             0.2445330
      0.1600950              1.0927900              0.8049340
SP   1   1.00
      0.0556577              1.0000000              1.0000000
D    1   1.00
      0.6500000              1.0000000
D    1   1.00
      0.1625000              1.0000000
F    1   1.00
      0.2500000              1.0000000
****
Si     0
S    6   1.00
  16115.9000000              0.00195948
   2425.5800000              0.01492880
    553.8670000              0.07284780
    156.3400000              0.24613000
     50.0683000              0.48591400
     17.0178000              0.32500200
SP   6   1.00
    292.7180000             -0.00278094             0.00443826
     69.8731000             -0.03571460             0.03266790
     22.3363000             -0.11498500             0.13472100
      8.1503900              0.09356340             0.32867800
      3.1345800              0.60301700             0.44964000
      1.2254300              0.41895900             0.26137200
SP   3   1.00
      1.7273800             -0.24463000            -0.01779510
      0.5729220              0.00431572             0.25353900
      0.2221920              1.09818000             0.80066900
SP   1   1.00
      0.0778369              1.00000000             1.00000000
D    1   1.00
      0.9000000              1.0000000
D    1   1.00
      0.2250000              1.0000000
F    1   1.00
      0.3200000              1.0000000
****
P     0
S    6   1.00
  19413.3000000              0.0018516
   2909.4200000              0.0142062
    661.3640000              0.0699995
    185.7590000              0.2400790
     59.1943000              0.4847620
     20.0310000              0.3352000
SP   6   1.00
    339.4780000             -0.00278217             0.00456462
     81.0101000             -0.0360499              0.03369360
     25.8780000             -0.1166310              0.13975500
      9.4522100              0.0968328              0.33936200
      3.6656600              0.6144180              0.45092100
      1.4674600              0.4037980              0.23858600
SP   3   1.00
      2.1562300             -0.2529230             -0.01776530
      0.7489970              0.0328517              0.27405800
      0.2831450              1.0812500              0.78542100
SP   1   1.00
      0.0998317              1.0000000              1.00000000
D    1   1.00
      1.1000000              1.0000000
D    1   1.00
      0.2750000              1.0000000
F    1   1.00
      0.4500000              1.0000000
****
S     0
S    6   1.00
  21917.1000000              0.0018690
   3301.4900000              0.0142300
    754.1460000              0.0696960
    212.7110000              0.2384870
     67.9896000              0.4833070
     23.0515000              0.3380740
SP   6   1.00
    423.7350000             -0.0023767              0.0040610
    100.7100000             -0.0316930              0.0306810
     32.1599000             -0.1133170              0.1304520
     11.8079000              0.0560900              0.3272050
      4.6311000              0.5922550              0.4528510
      1.8702500              0.4550060              0.2560420
SP   3   1.00
      2.6158400             -0.2503740             -0.0145110
      0.9221670              0.0669570              0.3102630
      0.3412870              1.0545100              0.7544830
SP   1   1.00
      0.1171670              1.0000000              1.0000000
D    1   1.00
      1.3000000              1.0000000
D    1   1.00
      0.3250000              1.0000000
F    1   1.00
      0.5500000              1.0000000
****
Cl     0
S    6   1.00
  25180.1000000              0.0018330
   3780.3500000              0.0140340
    860.4740000              0.0690970
    242.1450000              0.2374520
     77.3349000              0.4830340
     26.2470000              0.3398560
SP   6   1.00
    491.7650000             -0.0022974              0.0039894
    116.9840000             -0.0307140              0.0303180
     37.4153000             -0.1125280              0.1298800
     13.7834000              0.0450160              0.3279510
      5.4521500              0.5893530              0.4535270
      2.2258800              0.4652060              0.2521540
SP   3   1.00
      3.1864900             -0.2518300             -0.0142990
      1.1442700              0.0615890              0.3235720
      0.4203770              1.0601800              0.7435070
SP   1   1.00
      0.1426570              1.0000000              1.0000000
D    1   1.00
      1.5000000              1.0000000
D    1   1.00
      0.3750000              1.0000000
F    1   1.00
      0.7000000              1.0000000
****
}

set {
reference uhf
freeze_core true
e_convergence 10
d_convergence 10
dft_spherical_points 1202
dft_radial_points 99
}

e = energy('b3lyp')

print_out('Grab this energy {0}'.format(e))
--------------------------------------------------------------------------

    Molecular point group: c1

    Geometry (in Bohr), charge = 0, multiplicity = 2:

       Center              X                  Y                   Z               Mass
    ------------   -----------------  -----------------  -----------------  -----------------
         C           -0.324454895655    -0.000002662437    -0.001961130090    12.000000000000
         C            0.060557900845    -1.399921389937    -2.425509682490    12.000000000000
         C            0.061127421445     2.802016337263    -0.000784503090    12.000000000000
         C            0.061937139445    -1.402090876637     2.427698170910    12.000000000000
         H            2.085696927045    -1.642883562137    -2.841530215690     1.007825032230
         H           -0.763376008755    -0.388173337537    -4.027557889590     1.007825032230
         H           -0.767891762455    -3.289891540837    -2.348914244390     1.007825032230
         H            2.087775640645     3.282068077063     0.003821383010     1.007825032230
         H           -0.768924448455     3.680590746563     1.673061044910     1.007825032230
         H           -0.760199810555     3.686374909863    -1.678800459490     1.007825032230
         H            2.090138061545    -1.639274081037     2.842900739410     1.007825032230
         H           -0.761079476555    -3.296356901937     2.355219303210     1.007825032230
         H           -0.765271458955    -0.392471077837     4.028434165810     1.007825032230

  Charge       = 0
  Multiplicity = 2
  Basis Set: ANONYMOUS23B3776F
    Blend: 6-31G_2DFP_
  Basis Set: (ANONYMOUS23B3776F AUX)
    Blend: DEF2-UNIVERSAL-JKFIT

    Orbital Energies [Eh]
    ---------------------

    Alpha Occupied:

       1A    -10.180355     2A    -10.167250     3A    -10.167062
       4A    -10.166872     5A     -0.797703     6A     -0.686292
       7A     -0.686006     8A     -0.530764     9A     -0.441294
      10A     -0.434533    11A     -0.434388    12A     -0.382797
      13A     -0.382706    14A     -0.363472    15A     -0.338124
      16A     -0.337826    17A     -0.168871

    Alpha Virtual:

      18A      0.076036    19A      0.134142    20A      0.134269
      21A      0.142545    22A      0.142571    23A      0.154673
      24A      0.178812    25A      0.178818    26A      0.203415
      27A      0.214581    28A      0.275610    29A      0.276283
      30A      0.398990    31A      0.399004    32A      0.403429
      33A      0.424216    34A      0.424285    35A      0.456359
      36A      0.495361    37A      0.495463    38A      0.512350
      39A      0.513923    40A      0.578453    41A      0.578849
      42A      0.591620    43A      0.592055    44A      0.602805
      45A      0.624700    46A      0.631520    47A      0.636069
      48A      0.636247    49A      0.662932    50A      0.663340
      51A      0.683916    52A      0.683957    53A      0.734910
      54A      0.825476    55A      0.825536    56A      0.853575
      57A      0.914755    58A      0.915015    59A      0.943902
      60A      0.945409    61A      0.961530    62A      0.961614
      63A      1.002725    64A      1.127606    65A      1.127689
      66A      1.142796    67A      1.162608    68A      1.162859
      69A      1.223408    70A      1.274324    71A      1.274697
      72A      1.279147    73A      1.323955    74A      1.324199
      75A      1.356411    76A      1.365436    77A      1.366024
      78A      1.392634    79A      1.403990    80A      1.404650
      81A      1.417006    82A      1.417525    83A      1.427303
      84A      1.490895    85A      1.499397    86A      1.542632
      87A      1.542897    88A      1.574845    89A      1.575294
      90A      1.669768    91A      1.739288    92A      1.739824
      93A      1.768462    94A      1.830697    95A      1.831530
      96A      1.971633    97A      2.018011    98A      2.018197
      99A      2.018694   100A      2.051207   101A      2.053135
     102A      2.738847   103A      2.738953   104A      2.790704
     105A      2.810906   106A      2.889347   107A      2.890181
     108A      2.894750   109A      2.928867   110A      2.929216
     111A      2.958933   112A      2.964063   113A      2.964587
     114A      3.033528   115A      3.071461   116A      3.072059
     117A      3.084706   118A      3.168784   119A      3.168891
     120A      3.180456   121A      3.285676   122A      3.285762
     123A      3.325607   124A      3.326495   125A      3.375904
     126A      3.490415   127A      3.490886   128A      3.513726
     129A      3.525141   130A      3.567037   131A      3.568682
     132A      3.574335   133A      3.666206   134A      3.666630
     135A      3.678584   136A      3.694292   137A      3.694995
     138A      3.774298   139A      3.776965   140A      3.790474
     141A      3.911647   142A      3.912617   143A      4.035569
     144A      4.110220   145A      4.112276   146A      4.147801
     147A      4.148907   148A      4.173301   149A      4.201739
     150A      4.202608   151A      4.203225   152A      4.210376
     153A      4.315156   154A      4.316165   155A      4.357799
     156A      4.424462   157A      4.425454   158A      4.442450
     159A      4.515236   160A      4.516781   161A      4.576642
     162A      4.577954   163A      4.616991   164A      4.709168
     165A      4.773623   166A      4.774855   167A      4.837930
     168A      4.962331   169A      5.002446   170A      5.003698
     171A      5.227676   172A      5.246752   173A      5.246987
     174A      5.353980   175A      5.355886   176A      5.479085

    Beta Occupied:

       1A    -10.168006     2A    -10.167820     3A    -10.167634
       4A    -10.166526     5A     -0.781025     6A     -0.684085
       7A     -0.683822     8A     -0.511739     9A     -0.430919
      10A     -0.430760    11A     -0.421986    12A     -0.376881
      13A     -0.376814    14A     -0.362462    15A     -0.333243
      16A     -0.332945

    Beta Virtual:

      17A     -0.025576    18A      0.077049    19A      0.135013
      20A      0.135147    21A      0.144395    22A      0.144441
      23A      0.163082    24A      0.182489    25A      0.182498
      26A      0.214808    27A      0.218836    28A      0.281980
      29A      0.282631    30A      0.400164    31A      0.400167
      32A      0.419845    33A      0.427020    34A      0.427115
      35A      0.468189    36A      0.497615    37A      0.497702
      38A      0.514080    39A      0.556352    40A      0.583974
      41A      0.584390    42A      0.597841    43A      0.598240
      44A      0.610208    45A      0.628073    46A      0.631673
      47A      0.639341    48A      0.639561    49A      0.666483
      50A      0.666870    51A      0.686583    52A      0.686600
      53A      0.757469    54A      0.830656    55A      0.830661
      56A      0.854926    57A      0.922677    58A      0.922943
      59A      0.945739    60A      0.954255    61A      0.966833
      62A      0.966976    63A      1.007936    64A      1.131579
      65A      1.131771    66A      1.156387    67A      1.167753
      68A      1.167877    69A      1.232276    70A      1.279896
      71A      1.280279    72A      1.284838    73A      1.328919
      74A      1.329137    75A      1.365887    76A      1.370724
      77A      1.371235    78A      1.393676    79A      1.407412
      80A      1.408127    81A      1.422118    82A      1.422619
      83A      1.427571    84A      1.491954    85A      1.509864
      86A      1.547074    87A      1.547281    88A      1.582749
      89A      1.583114    90A      1.674612    91A      1.745034
      92A      1.745597    93A      1.779228    94A      1.834548
      95A      1.835394    96A      1.972485    97A      2.024484
      98A      2.024647    99A      2.039870   100A      2.057972
     101A      2.059833   102A      2.747146   103A      2.747306
     104A      2.811314   105A      2.815833   106A      2.902182
     107A      2.902905   108A      2.924402   109A      2.931344
     110A      2.931690   111A      2.959992   112A      2.968586
     113A      2.969079   114A      3.041472   115A      3.081426
     116A      3.081940   117A      3.086521   118A      3.184437
     119A      3.184697   120A      3.188179   121A      3.290494
     122A      3.290586   123A      3.329443   124A      3.330317
     125A      3.383750   126A      3.493058   127A      3.493570
     128A      3.512087   129A      3.528226   130A      3.574195
     131A      3.580471   132A      3.582048   133A      3.671196
     134A      3.671347   135A      3.691914   136A      3.725923
     137A      3.726304   138A      3.778812   139A      3.781393
     140A      3.818976   141A      3.921556   142A      3.922438
     143A      4.046403   144A      4.116950   145A      4.118999
     146A      4.155155   147A      4.156127   148A      4.187395
     149A      4.207732   150A      4.208684   151A      4.211021
     152A      4.214821   153A      4.322550   154A      4.323621
     155A      4.361139   156A      4.432690   157A      4.433638
     158A      4.445362   159A      4.523049   160A      4.524572
     161A      4.587217   162A      4.588536   163A      4.624264
     164A      4.719405   165A      4.780632   166A      4.781782
     167A      4.840844   168A      4.967128   169A      5.006451
     170A      5.007740   171A      5.233406   172A      5.248520
     173A      5.248780   174A      5.360438   175A      5.362387
     176A      5.481402

    Final Occupation by Irrep:
              A
    DOCC [    16 ]
    SOCC [     1 ]

  @DF-UKS Final Energy:  -157.81305819330154

   => Energetics <=

    Nuclear Repulsion Energy =            125.3830420105955312
    One-Electron Energy =                -458.7262861596487369
    Two-Electron Energy =                 195.8369847879475287
    DFT Exchange-Correlation Energy =     -20.3067988321958843
    Empirical Dispersion Energy =           0.0000000000000000
    VV10 Nonlocal Energy =                  0.0000000000000000
    Total Energy =                       -157.8130581933015435

  UHF NO Occupations:
  HONO-2 :   15  A 1.9996022
  HONO-1 :   16  A 1.9989785
  HONO-0 :   17  A 1.0000000
  LUNO+0 :   18  A 0.0010215
  LUNO+1 :   19  A 0.0003978
  LUNO+2 :   20  A 0.0001984
  LUNO+3 :   21  A 0.0001973

Computation Completed

Properties will be evaluated at   0.000000,   0.000000,   0.000000 [a0]

Properties computed using the SCF density matrix

  Nuclear Dipole Moment: [e a0]
     X:     0.8319      Y:    -0.0000      Z:     0.0033

  Electronic Dipole Moment: [e a0]
     X:    -0.7535      Y:     0.0000      Z:    -0.0033

  Dipole Moment: [e a0]
     X:     0.0783      Y:     0.0000      Z:     0.0000     Total:     0.0783

  Dipole Moment: [D]
     X:     0.1991      Y:     0.0000      Z:     0.0001     Total:     0.1991

*** tstop() called on n065 at Fri Nov  5 15:40:38 2021
Module time:
	user time   =     547.08 seconds =       9.12 minutes
	system time =      12.18 seconds =       0.20 minutes
	total time  =        141 seconds =       2.35 minutes
Total time:
	user time   =     547.08 seconds =       9.12 minutes
	system time =      12.18 seconds =       0.20 minutes
	total time  =        141 seconds =       2.35 minutes
Grab this energy -157.81305819330154
    Psi4 stopped on: Friday, 05 November 2021 03:40PM
    Psi4 wall time for execution: 0:02:20.73

*** Psi4 exiting successfully. Buy a developer a beer!
