                               Psi4 1.4a2.dev629

  ==> Input File <==

--------------------------------------------------------------------------
import os
memory 14 GB

molecule {
 C   -0.3223153948   -0.0000017455    0.0010211985
 C    0.0615525514   -1.4001900449   -2.4269935150
 C    0.0620790939    2.8016049000   -0.0018016446
 C    0.0628466116   -1.4014092182    2.4255019399
 H    2.0836975338   -1.6441454551   -2.8468296524
 H   -0.7643382979   -0.3863508577   -4.0268263428
 H   -0.7643523517   -3.2942976780   -2.3478194151
 H    2.0834850092    3.2876790015    0.0006941315
 H   -0.7645406596    3.6804129114    1.6791361244
 H   -0.7648401291    3.6805956095   -1.6785693102
 H    2.0835539438   -1.6436273234    2.8473204385
 H   -0.7648746351   -3.2940246231    2.3482404629
 H   -0.7645611524   -0.3862697901    4.0269255846
units bohr
0 2
}

basis {

assign 6-31g_2dfp_

[ 6-31g_2dfp_ ]

spherical

!----------------------------------------------------------------------
! Basis Set Exchange
! Version v0.8.13
! https://www.basissetexchange.org
!----------------------------------------------------------------------
!   Basis set: 6-31G(2df,p)
! Description: 6-31G(2df,p)
!        Role: orbital
!     Version: 0  (Data from the original Basis Set Exchange)
!----------------------------------------------------------------------

****
H     0
S    3   1.00
     18.7311370              0.03349460
      2.8253937              0.23472695
      0.6401217              0.81375733
S    1   1.00
      0.1612778              1.00000000
P    1   1.00
      1.5000000              1.0000000
P    1   1.00
      0.3750000              1.0000000
****
B     0
S    6   1.00
   2068.8823000              0.0018663
    310.6495700              0.0142515
     70.6830330              0.0695516
     19.8610800              0.2325729
      6.2993048              0.4670787
      2.1270270              0.3634314
SP   3   1.00
      4.7279710             -0.1303938              0.0745976
      1.1903377             -0.1307889              0.3078467
      0.3594117              1.1309444              0.7434568
SP   1   1.00
      0.1267512              1.0000000              1.0000000
D    1   1.00
      0.8020000              1.0000000
D    1   1.00
      0.2005000              1.0000000
F    1   1.00
      0.5000000              1.0000000
****
C     0
S    6   1.00
   3047.5249000              0.0018347
    457.3695100              0.0140373
    103.9486900              0.0688426
     29.2101550              0.2321844
      9.2866630              0.4679413
      3.1639270              0.3623120
SP   3   1.00
      7.8682724             -0.1193324              0.0689991
      1.8812885             -0.1608542              0.3164240
      0.5442493              1.1434564              0.7443083
SP   1   1.00
      0.1687144              1.0000000              1.0000000
D    1   1.00
      1.2520000              1.0000000
D    1   1.00
      0.3130000              1.0000000
F    1   1.00
      0.8000000              1.0000000
****
N     0
S    6   1.00
   4173.5110000              0.0018348
    627.4579000              0.0139950
    142.9021000              0.0685870
     40.2343300              0.2322410
     12.8202100              0.4690700
      4.3904370              0.3604550
SP   3   1.00
     11.6263580             -0.1149610              0.0675800
      2.7162800             -0.1691180              0.3239070
      0.7722180              1.1458520              0.7408950
SP   1   1.00
      0.2120313              1.0000000              1.0000000
D    1   1.00
      1.8260000              1.0000000
D    1   1.00
      0.4565000              1.0000000
F    1   1.00
      1.0000000              1.0000000
****
O     0
S    6   1.00
   5484.6717000              0.0018311
    825.2349500              0.0139501
    188.0469600              0.0684451
     52.9645000              0.2327143
     16.8975700              0.4701930
      5.7996353              0.3585209
SP   3   1.00
     15.5396160             -0.1107775              0.0708743
      3.5999336             -0.1480263              0.3397528
      1.0137618              1.1307670              0.7271586
SP   1   1.00
      0.2700058              1.0000000              1.0000000
D    1   1.00
      2.5840000              1.0000000
D    1   1.00
      0.6460000              1.0000000
F    1   1.00
      1.4000000              1.0000000
****
F     0
S    6   1.00
   7001.7130900              0.0018196169
   1051.3660900              0.0139160796
    239.2856900              0.0684053245
     67.3974453              0.233185760
     21.5199573              0.471267439
      7.40310130             0.356618546
SP   3   1.00
     20.8479528             -0.108506975            0.0716287243
      4.80830834            -0.146451658            0.3459121030
      1.34406986             1.128688580            0.7224699570
SP   1   1.00
      0.358151393            1.0000000              1.0000000
D    1   1.00
      3.5000000              1.0000000
D    1   1.00
      0.8750000              1.0000000
F    1   1.00
      1.8500000              1.0000000
****
Al     0
S    6   1.00
  13983.1000000              0.00194267
   2098.7500000              0.0148599
    477.7050000              0.0728494
    134.3600000              0.2468300
     42.8709000              0.4872580
     14.5189000              0.3234960
SP   6   1.00
    239.6680000             -0.00292619             0.00460285
     57.4419000             -0.0374080              0.0331990
     18.2859000             -0.1144870              0.1362820
      6.5991400              0.1156350              0.3304760
      2.4904900              0.6125950              0.4491460
      0.9445400              0.3937990              0.2657040
SP   3   1.00
      1.2779000             -0.2276060             -0.0175130
      0.3975900              0.00144583             0.2445330
      0.1600950              1.0927900              0.8049340
SP   1   1.00
      0.0556577              1.0000000              1.0000000
D    1   1.00
      0.6500000              1.0000000
D    1   1.00
      0.1625000              1.0000000
F    1   1.00
      0.2500000              1.0000000
****
Si     0
S    6   1.00
  16115.9000000              0.00195948
   2425.5800000              0.01492880
    553.8670000              0.07284780
    156.3400000              0.24613000
     50.0683000              0.48591400
     17.0178000              0.32500200
SP   6   1.00
    292.7180000             -0.00278094             0.00443826
     69.8731000             -0.03571460             0.03266790
     22.3363000             -0.11498500             0.13472100
      8.1503900              0.09356340             0.32867800
      3.1345800              0.60301700             0.44964000
      1.2254300              0.41895900             0.26137200
SP   3   1.00
      1.7273800             -0.24463000            -0.01779510
      0.5729220              0.00431572             0.25353900
      0.2221920              1.09818000             0.80066900
SP   1   1.00
      0.0778369              1.00000000             1.00000000
D    1   1.00
      0.9000000              1.0000000
D    1   1.00
      0.2250000              1.0000000
F    1   1.00
      0.3200000              1.0000000
****
P     0
S    6   1.00
  19413.3000000              0.0018516
   2909.4200000              0.0142062
    661.3640000              0.0699995
    185.7590000              0.2400790
     59.1943000              0.4847620
     20.0310000              0.3352000
SP   6   1.00
    339.4780000             -0.00278217             0.00456462
     81.0101000             -0.0360499              0.03369360
     25.8780000             -0.1166310              0.13975500
      9.4522100              0.0968328              0.33936200
      3.6656600              0.6144180              0.45092100
      1.4674600              0.4037980              0.23858600
SP   3   1.00
      2.1562300             -0.2529230             -0.01776530
      0.7489970              0.0328517              0.27405800
      0.2831450              1.0812500              0.78542100
SP   1   1.00
      0.0998317              1.0000000              1.00000000
D    1   1.00
      1.1000000              1.0000000
D    1   1.00
      0.2750000              1.0000000
F    1   1.00
      0.4500000              1.0000000
****
S     0
S    6   1.00
  21917.1000000              0.0018690
   3301.4900000              0.0142300
    754.1460000              0.0696960
    212.7110000              0.2384870
     67.9896000              0.4833070
     23.0515000              0.3380740
SP   6   1.00
    423.7350000             -0.0023767              0.0040610
    100.7100000             -0.0316930              0.0306810
     32.1599000             -0.1133170              0.1304520
     11.8079000              0.0560900              0.3272050
      4.6311000              0.5922550              0.4528510
      1.8702500              0.4550060              0.2560420
SP   3   1.00
      2.6158400             -0.2503740             -0.0145110
      0.9221670              0.0669570              0.3102630
      0.3412870              1.0545100              0.7544830
SP   1   1.00
      0.1171670              1.0000000              1.0000000
D    1   1.00
      1.3000000              1.0000000
D    1   1.00
      0.3250000              1.0000000
F    1   1.00
      0.5500000              1.0000000
****
Cl     0
S    6   1.00
  25180.1000000              0.0018330
   3780.3500000              0.0140340
    860.4740000              0.0690970
    242.1450000              0.2374520
     77.3349000              0.4830340
     26.2470000              0.3398560
SP   6   1.00
    491.7650000             -0.0022974              0.0039894
    116.9840000             -0.0307140              0.0303180
     37.4153000             -0.1125280              0.1298800
     13.7834000              0.0450160              0.3279510
      5.4521500              0.5893530              0.4535270
      2.2258800              0.4652060              0.2521540
SP   3   1.00
      3.1864900             -0.2518300             -0.0142990
      1.1442700              0.0615890              0.3235720
      0.4203770              1.0601800              0.7435070
SP   1   1.00
      0.1426570              1.0000000              1.0000000
D    1   1.00
      1.5000000              1.0000000
D    1   1.00
      0.3750000              1.0000000
F    1   1.00
      0.7000000              1.0000000
****
}

set {
reference uhf
freeze_core true
e_convergence 10
d_convergence 10
dft_spherical_points 1202
dft_radial_points 99
}

e = energy('b3lyp')

print_out('Grab this energy {0}'.format(e))
--------------------------------------------------------------------------

    Molecular point group: c1

    Geometry (in Bohr), charge = 0, multiplicity = 2:

       Center              X                  Y                   Z               Mass
    ------------   -----------------  -----------------  -----------------  -----------------
         C           -0.323124893389    -0.000002065650     0.001458806144    12.000000000000
         C            0.060743052811    -1.400190365050    -2.426555907356    12.000000000000
         C            0.061269595311     2.801604579850    -0.001364036956    12.000000000000
         C            0.062037113011    -1.401409538350     2.425939547544    12.000000000000
         H            2.082888035211    -1.644145775250    -2.846392044756     1.007825032230
         H           -0.765147796489    -0.386351177850    -4.026388735156     1.007825032230
         H           -0.765161850289    -3.294297998150    -2.347381807456     1.007825032230
         H            2.082675510611     3.287678681350     0.001131739144     1.007825032230
         H           -0.765350158189     3.680412591250     1.679573732044     1.007825032230
         H           -0.765649627689     3.680595289350    -1.678131702556     1.007825032230
         H            2.082744445211    -1.643627643550     2.847758046144     1.007825032230
         H           -0.765684133689    -3.294024943250     2.348678070544     1.007825032230
         H           -0.765370650989    -0.386270110250     4.027363192244     1.007825032230

  Charge       = 0
  Multiplicity = 2
  Basis Set: ANONYMOUS7A21ECCC
    Blend: 6-31G_2DFP_
  Basis Set: (ANONYMOUS7A21ECCC AUX)
    Blend: DEF2-UNIVERSAL-JKFIT

    Orbital Energies [Eh]
    ---------------------

    Alpha Occupied:

       1A    -10.180284     2A    -10.167046     3A    -10.167017
       4A    -10.166972     5A     -0.797804     6A     -0.686273
       7A     -0.686114     8A     -0.530787     9A     -0.441221
      10A     -0.434635    11A     -0.434620    12A     -0.382772
      13A     -0.382698    14A     -0.363431    15A     -0.338239
      16A     -0.337652    17A     -0.168924

    Alpha Virtual:

      18A      0.075986    19A      0.134107    20A      0.134189
      21A      0.142503    22A      0.142623    23A      0.155045
      24A      0.178907    25A      0.179006    26A      0.203589
      27A      0.214529    28A      0.275884    29A      0.276137
      30A      0.399239    31A      0.399457    32A      0.403426
      33A      0.423904    34A      0.423915    35A      0.456670
      36A      0.495176    37A      0.495246    38A      0.512278
      39A      0.514133    40A      0.578940    41A      0.579022
      42A      0.591884    43A      0.591923    44A      0.603323
      45A      0.624258    46A      0.631383    47A      0.635874
      48A      0.635883    49A      0.663818    50A      0.663998
      51A      0.683593    52A      0.683617    53A      0.734933
      54A      0.825435    55A      0.825442    56A      0.854195
      57A      0.915144    58A      0.915353    59A      0.943840
      60A      0.944469    61A      0.961330    62A      0.961457
      63A      1.003639    64A      1.127845    65A      1.127880
      66A      1.142932    67A      1.162981    68A      1.163027
      69A      1.222911    70A      1.274552    71A      1.274911
      72A      1.279516    73A      1.324507    74A      1.324626
      75A      1.355453    76A      1.365874    77A      1.366360
      78A      1.392484    79A      1.404818    80A      1.405334
      81A      1.415898    82A      1.416394    83A      1.428130
      84A      1.491513    85A      1.500033    86A      1.543031
      87A      1.543377    88A      1.573757    89A      1.574394
      90A      1.668551    91A      1.740159    92A      1.740370
      93A      1.770187    94A      1.829931    95A      1.830070
      96A      1.970705    97A      2.018175    98A      2.018671
      99A      2.019431   100A      2.053425   101A      2.054600
     102A      2.738121   103A      2.738214   104A      2.791317
     105A      2.810971   106A      2.889659   107A      2.891003
     108A      2.895271   109A      2.929123   110A      2.929457
     111A      2.959131   112A      2.964515   113A      2.965097
     114A      3.034710   115A      3.071184   116A      3.071450
     117A      3.082954   118A      3.168779   119A      3.169016
     120A      3.180661   121A      3.285196   122A      3.285628
     123A      3.326485   124A      3.326577   125A      3.375440
     126A      3.490350   127A      3.490437   128A      3.515230
     129A      3.524143   130A      3.568689   131A      3.568889
     132A      3.575979   133A      3.666553   134A      3.666943
     135A      3.679076   136A      3.693924   137A      3.693958
     138A      3.776375   139A      3.776401   140A      3.789903
     141A      3.911309   142A      3.912023   143A      4.033989
     144A      4.111185   145A      4.111627   146A      4.148508
     147A      4.148881   148A      4.174921   149A      4.202176
     150A      4.202243   151A      4.202856   152A      4.211980
     153A      4.315635   154A      4.317224   155A      4.357759
     156A      4.424609   157A      4.425724   158A      4.443232
     159A      4.517319   160A      4.517681   161A      4.577305
     162A      4.577878   163A      4.617624   164A      4.710014
     165A      4.774336   166A      4.774633   167A      4.835544
     168A      4.962558   169A      5.003966   170A      5.004538
     171A      5.230783   172A      5.243586   173A      5.244054
     174A      5.357464   175A      5.357530   176A      5.477404

    Beta Occupied:

       1A    -10.167800     2A    -10.167771     3A    -10.167738
       4A    -10.166455     5A     -0.781122     6A     -0.684061
       7A     -0.683907     8A     -0.511709     9A     -0.430989
      10A     -0.430961    11A     -0.421976    12A     -0.376890
      13A     -0.376802    14A     -0.362406    15A     -0.333365
      16A     -0.332779

    Beta Virtual:

      17A     -0.025615    18A      0.076980    19A      0.134918
      20A      0.135023    21A      0.144413    22A      0.144498
      23A      0.163484    24A      0.182618    25A      0.182693
      26A      0.214766    27A      0.218973    28A      0.282242
      29A      0.282466    30A      0.400406    31A      0.400624
      32A      0.419776    33A      0.426715    34A      0.426727
      35A      0.468677    36A      0.497430    37A      0.497495
      38A      0.514006    39A      0.556517    40A      0.584462
      41A      0.584543    42A      0.598062    43A      0.598122
      44A      0.610607    45A      0.627776    46A      0.631542
      47A      0.639199    48A      0.639205    49A      0.667347
      50A      0.667535    51A      0.686238    52A      0.686266
      53A      0.757460    54A      0.830584    55A      0.830587
      56A      0.855540    57A      0.923097    58A      0.923306
      59A      0.945685    60A      0.953348    61A      0.966680
      62A      0.966787    63A      1.008919    64A      1.131846
      65A      1.131862    66A      1.156222    67A      1.168071
      68A      1.168140    69A      1.231900    70A      1.280144
      71A      1.280556    72A      1.285328    73A      1.329439
      74A      1.329578    75A      1.364890    76A      1.371026
      77A      1.371558    78A      1.393527    79A      1.408324
      80A      1.408856    81A      1.421007    82A      1.421462
      83A      1.428393    84A      1.492588    85A      1.510469
      86A      1.547394    87A      1.547764    88A      1.581656
      89A      1.582275    90A      1.673348    91A      1.745928
      92A      1.746136    93A      1.780977    94A      1.833788
      95A      1.833921    96A      1.971579    97A      2.025060
      98A      2.025901    99A      2.039782   100A      2.059998
     101A      2.061215   102A      2.746454   103A      2.746535
     104A      2.811380   105A      2.816491   106A      2.902387
     107A      2.903701   108A      2.925176   109A      2.931569
     110A      2.931972   111A      2.960198   112A      2.969106
     113A      2.969663   114A      3.042433   115A      3.081099
     116A      3.081382   117A      3.084770   118A      3.184477
     119A      3.184760   120A      3.188384   121A      3.289994
     122A      3.290365   123A      3.330313   124A      3.330431
     125A      3.383284   126A      3.493105   127A      3.493222
     128A      3.513595   129A      3.527202   130A      3.575832
     131A      3.581904   132A      3.582019   133A      3.671304
     134A      3.671899   135A      3.692386   136A      3.725382
     137A      3.725751   138A      3.780917   139A      3.781046
     140A      3.818421   141A      3.921048   142A      3.921804
     143A      4.044814   144A      4.117995   145A      4.118440
     146A      4.155758   147A      4.156063   148A      4.188953
     149A      4.208028   150A      4.208085   151A      4.210848
     152A      4.216330   153A      4.323103   154A      4.324757
     155A      4.361165   156A      4.432821   157A      4.433932
     158A      4.446176   159A      4.525089   160A      4.525422
     161A      4.587971   162A      4.588499   163A      4.624910
     164A      4.720241   165A      4.781358   166A      4.781616
     167A      4.838472   168A      4.967341   169A      5.007979
     170A      5.008552   171A      5.236530   172A      5.245394
     173A      5.245846   174A      5.363952   175A      5.364056
     176A      5.479737

    Final Occupation by Irrep:
              A
    DOCC [    16 ]
    SOCC [     1 ]

  @DF-UKS Final Energy:  -157.81305765654193

   => Energetics <=

    Nuclear Repulsion Energy =            125.4000160189644077
    One-Electron Energy =                -458.7596834055850650
    Two-Electron Energy =                 195.8538668296540095
    DFT Exchange-Correlation Energy =     -20.3072570995752599
    Empirical Dispersion Energy =           0.0000000000000000
    VV10 Nonlocal Energy =                  0.0000000000000000
    Total Energy =                       -157.8130576565419290

  UHF NO Occupations:
  HONO-2 :   15  A 1.9996032
  HONO-1 :   16  A 1.9989813
  HONO-0 :   17  A 1.0000000
  LUNO+0 :   18  A 0.0010187
  LUNO+1 :   19  A 0.0003968
  LUNO+2 :   20  A 0.0001980
  LUNO+3 :   21  A 0.0001971

Computation Completed

Properties will be evaluated at   0.000000,   0.000000,   0.000000 [a0]

Properties computed using the SCF density matrix

  Nuclear Dipole Moment: [e a0]
     X:     0.8215      Y:    -0.0000      Z:     0.0031

  Electronic Dipole Moment: [e a0]
     X:    -0.7404      Y:     0.0000      Z:    -0.0030

  Dipole Moment: [e a0]
     X:     0.0811      Y:     0.0000      Z:     0.0000     Total:     0.0811

  Dipole Moment: [D]
     X:     0.2061      Y:     0.0000      Z:     0.0001     Total:     0.2061

*** tstop() called on n089 at Fri Nov  5 12:05:42 2021
Module time:
	user time   =     512.22 seconds =       8.54 minutes
	system time =       4.52 seconds =       0.08 minutes
	total time  =        130 seconds =       2.17 minutes
Total time:
	user time   =     512.22 seconds =       8.54 minutes
	system time =       4.52 seconds =       0.08 minutes
	total time  =        130 seconds =       2.17 minutes
Grab this energy -157.81305765654193
    Psi4 stopped on: Friday, 05 November 2021 12:05PM
    Psi4 wall time for execution: 0:02:09.92

*** Psi4 exiting successfully. Buy a developer a beer!
