                               Psi4 1.4a2.dev629

  ==> Input File <==

--------------------------------------------------------------------------
import os
memory 14 GB

molecule {
 C   -0.3265090461   -0.0024292742   -0.0000000000
 C    0.0594153595   -1.4015925640   -2.4254508635
 C    0.0604926340    2.8031929005   -0.0000000000
 C    0.0594153595   -1.4015925640    2.4254508635
 H    2.0859801686   -1.6419193960   -2.8494749209
 H   -0.7688628722   -0.3881833735   -4.0206658922
 H   -0.7614754195   -3.2953591871   -2.3479937666
 H    2.0897024894    3.2875434848    0.0000000000
 H   -0.7632042134    3.6828888082    1.6766615796
 H   -0.7632042134    3.6828888082   -1.6766615796
 H    2.0859801686   -1.6419193960    2.8494749209
 H   -0.7614754195   -3.2953591871    2.3479937666
 H   -0.7688628722   -0.3881833735    4.0206658922
units bohr
0 2
}

basis {

assign 6-31g_2dfp_

[ 6-31g_2dfp_ ]

spherical

!----------------------------------------------------------------------
! Basis Set Exchange
! Version v0.8.13
! https://www.basissetexchange.org
!----------------------------------------------------------------------
!   Basis set: 6-31G(2df,p)
! Description: 6-31G(2df,p)
!        Role: orbital
!     Version: 0  (Data from the original Basis Set Exchange)
!----------------------------------------------------------------------

****
H     0
S    3   1.00
     18.7311370              0.03349460
      2.8253937              0.23472695
      0.6401217              0.81375733
S    1   1.00
      0.1612778              1.00000000
P    1   1.00
      1.5000000              1.0000000
P    1   1.00
      0.3750000              1.0000000
****
B     0
S    6   1.00
   2068.8823000              0.0018663
    310.6495700              0.0142515
     70.6830330              0.0695516
     19.8610800              0.2325729
      6.2993048              0.4670787
      2.1270270              0.3634314
SP   3   1.00
      4.7279710             -0.1303938              0.0745976
      1.1903377             -0.1307889              0.3078467
      0.3594117              1.1309444              0.7434568
SP   1   1.00
      0.1267512              1.0000000              1.0000000
D    1   1.00
      0.8020000              1.0000000
D    1   1.00
      0.2005000              1.0000000
F    1   1.00
      0.5000000              1.0000000
****
C     0
S    6   1.00
   3047.5249000              0.0018347
    457.3695100              0.0140373
    103.9486900              0.0688426
     29.2101550              0.2321844
      9.2866630              0.4679413
      3.1639270              0.3623120
SP   3   1.00
      7.8682724             -0.1193324              0.0689991
      1.8812885             -0.1608542              0.3164240
      0.5442493              1.1434564              0.7443083
SP   1   1.00
      0.1687144              1.0000000              1.0000000
D    1   1.00
      1.2520000              1.0000000
D    1   1.00
      0.3130000              1.0000000
F    1   1.00
      0.8000000              1.0000000
****
N     0
S    6   1.00
   4173.5110000              0.0018348
    627.4579000              0.0139950
    142.9021000              0.0685870
     40.2343300              0.2322410
     12.8202100              0.4690700
      4.3904370              0.3604550
SP   3   1.00
     11.6263580             -0.1149610              0.0675800
      2.7162800             -0.1691180              0.3239070
      0.7722180              1.1458520              0.7408950
SP   1   1.00
      0.2120313              1.0000000              1.0000000
D    1   1.00
      1.8260000              1.0000000
D    1   1.00
      0.4565000              1.0000000
F    1   1.00
      1.0000000              1.0000000
****
O     0
S    6   1.00
   5484.6717000              0.0018311
    825.2349500              0.0139501
    188.0469600              0.0684451
     52.9645000              0.2327143
     16.8975700              0.4701930
      5.7996353              0.3585209
SP   3   1.00
     15.5396160             -0.1107775              0.0708743
      3.5999336             -0.1480263              0.3397528
      1.0137618              1.1307670              0.7271586
SP   1   1.00
      0.2700058              1.0000000              1.0000000
D    1   1.00
      2.5840000              1.0000000
D    1   1.00
      0.6460000              1.0000000
F    1   1.00
      1.4000000              1.0000000
****
F     0
S    6   1.00
   7001.7130900              0.0018196169
   1051.3660900              0.0139160796
    239.2856900              0.0684053245
     67.3974453              0.233185760
     21.5199573              0.471267439
      7.40310130             0.356618546
SP   3   1.00
     20.8479528             -0.108506975            0.0716287243
      4.80830834            -0.146451658            0.3459121030
      1.34406986             1.128688580            0.7224699570
SP   1   1.00
      0.358151393            1.0000000              1.0000000
D    1   1.00
      3.5000000              1.0000000
D    1   1.00
      0.8750000              1.0000000
F    1   1.00
      1.8500000              1.0000000
****
Al     0
S    6   1.00
  13983.1000000              0.00194267
   2098.7500000              0.0148599
    477.7050000              0.0728494
    134.3600000              0.2468300
     42.8709000              0.4872580
     14.5189000              0.3234960
SP   6   1.00
    239.6680000             -0.00292619             0.00460285
     57.4419000             -0.0374080              0.0331990
     18.2859000             -0.1144870              0.1362820
      6.5991400              0.1156350              0.3304760
      2.4904900              0.6125950              0.4491460
      0.9445400              0.3937990              0.2657040
SP   3   1.00
      1.2779000             -0.2276060             -0.0175130
      0.3975900              0.00144583             0.2445330
      0.1600950              1.0927900              0.8049340
SP   1   1.00
      0.0556577              1.0000000              1.0000000
D    1   1.00
      0.6500000              1.0000000
D    1   1.00
      0.1625000              1.0000000
F    1   1.00
      0.2500000              1.0000000
****
Si     0
S    6   1.00
  16115.9000000              0.00195948
   2425.5800000              0.01492880
    553.8670000              0.07284780
    156.3400000              0.24613000
     50.0683000              0.48591400
     17.0178000              0.32500200
SP   6   1.00
    292.7180000             -0.00278094             0.00443826
     69.8731000             -0.03571460             0.03266790
     22.3363000             -0.11498500             0.13472100
      8.1503900              0.09356340             0.32867800
      3.1345800              0.60301700             0.44964000
      1.2254300              0.41895900             0.26137200
SP   3   1.00
      1.7273800             -0.24463000            -0.01779510
      0.5729220              0.00431572             0.25353900
      0.2221920              1.09818000             0.80066900
SP   1   1.00
      0.0778369              1.00000000             1.00000000
D    1   1.00
      0.9000000              1.0000000
D    1   1.00
      0.2250000              1.0000000
F    1   1.00
      0.3200000              1.0000000
****
P     0
S    6   1.00
  19413.3000000              0.0018516
   2909.4200000              0.0142062
    661.3640000              0.0699995
    185.7590000              0.2400790
     59.1943000              0.4847620
     20.0310000              0.3352000
SP   6   1.00
    339.4780000             -0.00278217             0.00456462
     81.0101000             -0.0360499              0.03369360
     25.8780000             -0.1166310              0.13975500
      9.4522100              0.0968328              0.33936200
      3.6656600              0.6144180              0.45092100
      1.4674600              0.4037980              0.23858600
SP   3   1.00
      2.1562300             -0.2529230             -0.01776530
      0.7489970              0.0328517              0.27405800
      0.2831450              1.0812500              0.78542100
SP   1   1.00
      0.0998317              1.0000000              1.00000000
D    1   1.00
      1.1000000              1.0000000
D    1   1.00
      0.2750000              1.0000000
F    1   1.00
      0.4500000              1.0000000
****
S     0
S    6   1.00
  21917.1000000              0.0018690
   3301.4900000              0.0142300
    754.1460000              0.0696960
    212.7110000              0.2384870
     67.9896000              0.4833070
     23.0515000              0.3380740
SP   6   1.00
    423.7350000             -0.0023767              0.0040610
    100.7100000             -0.0316930              0.0306810
     32.1599000             -0.1133170              0.1304520
     11.8079000              0.0560900              0.3272050
      4.6311000              0.5922550              0.4528510
      1.8702500              0.4550060              0.2560420
SP   3   1.00
      2.6158400             -0.2503740             -0.0145110
      0.9221670              0.0669570              0.3102630
      0.3412870              1.0545100              0.7544830
SP   1   1.00
      0.1171670              1.0000000              1.0000000
D    1   1.00
      1.3000000              1.0000000
D    1   1.00
      0.3250000              1.0000000
F    1   1.00
      0.5500000              1.0000000
****
Cl     0
S    6   1.00
  25180.1000000              0.0018330
   3780.3500000              0.0140340
    860.4740000              0.0690970
    242.1450000              0.2374520
     77.3349000              0.4830340
     26.2470000              0.3398560
SP   6   1.00
    491.7650000             -0.0022974              0.0039894
    116.9840000             -0.0307140              0.0303180
     37.4153000             -0.1125280              0.1298800
     13.7834000              0.0450160              0.3279510
      5.4521500              0.5893530              0.4535270
      2.2258800              0.4652060              0.2521540
SP   3   1.00
      3.1864900             -0.2518300             -0.0142990
      1.1442700              0.0615890              0.3235720
      0.4203770              1.0601800              0.7435070
SP   1   1.00
      0.1426570              1.0000000              1.0000000
D    1   1.00
      1.5000000              1.0000000
D    1   1.00
      0.3750000              1.0000000
F    1   1.00
      0.7000000              1.0000000
****
}

set {
reference uhf
freeze_core true
e_convergence 10
d_convergence 10
dft_spherical_points 1202
dft_radial_points 99
}

e = energy('b3lyp')

print_out('Grab this energy {0}'.format(e))
--------------------------------------------------------------------------

    Molecular point group: cs

    Geometry (in Bohr), charge = 0, multiplicity = 2:

       Center              X                  Y                   Z               Mass
    ------------   -----------------  -----------------  -----------------  -----------------
         C           -0.325132731222    -0.001962446168     0.000000000000    12.000000000000
         C            0.060791674378    -1.401125735968    -2.425450863500    12.000000000000
         C            0.061868948878     2.803659728532     0.000000000000    12.000000000000
         C            0.060791674378    -1.401125735968     2.425450863500    12.000000000000
         H            2.087356483478    -1.641452567968    -2.849474920900     1.007825032230
         H           -0.767486557322    -0.387716545468    -4.020665892200     1.007825032230
         H           -0.760099104622    -3.294892359068    -2.347993766600     1.007825032230
         H            2.091078804278     3.288010312832     0.000000000000     1.007825032230
         H           -0.761827898522     3.683355636232     1.676661579600     1.007825032230
         H           -0.761827898522     3.683355636232    -1.676661579600     1.007825032230
         H            2.087356483478    -1.641452567968     2.849474920900     1.007825032230
         H           -0.760099104622    -3.294892359068     2.347993766600     1.007825032230
         H           -0.767486557322    -0.387716545468     4.020665892200     1.007825032230

  Charge       = 0
  Multiplicity = 2
  Basis Set: ANONYMOUS1FDC611D
    Blend: 6-31G_2DFP_
  Basis Set: (ANONYMOUS1FDC611D AUX)
    Blend: DEF2-UNIVERSAL-JKFIT

    Orbital Energies [Eh]
    ---------------------

    Alpha Occupied:

       1Ap   -10.180454     2Ap   -10.167256     1App  -10.166945
       3Ap   -10.166914     4Ap    -0.797713     2App   -0.686317
       5Ap    -0.686031     6Ap    -0.530797     7Ap    -0.440889
       8Ap    -0.434889     3App   -0.434746     4App   -0.382396
       9Ap    -0.382307     5App   -0.363892     6App   -0.338196
      10Ap    -0.337898    11Ap    -0.169076

    Alpha Virtual:

      12Ap     0.076090    13Ap     0.134098     7App    0.134224
       8App    0.142700    14Ap     0.142720    15Ap     0.154813
       9App    0.178670    16Ap     0.178677    17Ap     0.203501
      10App    0.214934    18Ap     0.275512    11App    0.276182
      19Ap     0.399191    12App    0.399220    20Ap     0.403315
      21Ap     0.424058    13App    0.424125    22Ap     0.456590
      14App    0.495391    23Ap     0.495491    15App    0.512056
      24Ap     0.513982    25Ap     0.578717    16App    0.579091
      26Ap     0.591101    17App    0.591562    27Ap     0.602263
      28Ap     0.624904    18App    0.631913    29Ap     0.636293
      19App    0.636470    30Ap     0.663035    20App    0.663446
      21App    0.683857    31Ap     0.683895    32Ap     0.734866
      33Ap     0.825203    22App    0.825262    23App    0.853963
      34Ap     0.914731    24App    0.914992    25App    0.944021
      35Ap     0.944594    36Ap     0.961353    26App    0.961417
      37Ap     1.004335    27App    1.128270    38Ap     1.128370
      39Ap     1.141839    28App    1.163047    40Ap     1.163243
      41Ap     1.222905    42Ap     1.274017    29App    1.274388
      43Ap     1.279209    44Ap     1.324347    30App    1.324590
      45Ap     1.354969    46Ap     1.366109    31App    1.366684
      32App    1.392522    47Ap     1.403101    33App    1.403749
      48Ap     1.416247    34App    1.416769    35App    1.427738
      36App    1.491959    49Ap     1.498580    50Ap     1.543066
      37App    1.543357    38App    1.574316    51Ap     1.574771
      52Ap     1.670364    53Ap     1.738936    39App    1.739480
      54Ap     1.768103    55Ap     1.831308    40App    1.832132
      41App    1.972286    56Ap     2.017911    42App    2.018781
      57Ap     2.018803    58Ap     2.051318    43App    2.053234
      59Ap     2.738097    44App    2.738206    60Ap     2.790711
      45App    2.811695    61Ap     2.889303    46App    2.890203
      62Ap     2.895027    47App    2.929483    63Ap     2.929816
      48App    2.959160    49App    2.964089    64Ap     2.964598
      65Ap     3.033968    66Ap     3.070378    50App    3.070954
      51App    3.084411    67Ap     3.168683    52App    3.168823
      68Ap     3.180805    69Ap     3.285626    53App    3.285703
      70Ap     3.327646    54App    3.328540    71Ap     3.375319
      72Ap     3.489755    55App    3.490203    56App    3.513544
      73Ap     3.525475    74Ap     3.567147    57App    3.568798
      58App    3.574698    59App    3.666180    75Ap     3.666548
      76Ap     3.680699    77Ap     3.693504    60App    3.694169
      61App    3.774592    78Ap     3.777218    79Ap     3.787854
      80Ap     3.911837    62App    3.912827    81Ap     4.033280
      82Ap     4.110722    63App    4.112775    83Ap     4.147795
      64App    4.148902    84Ap     4.173104    85Ap     4.201928
      86Ap     4.202646    65App    4.203186    66App    4.210770
      87Ap     4.315232    67App    4.316274    68App    4.359074
      69App    4.423322    88Ap     4.424312    70App    4.444328
      89Ap     4.516212    71App    4.517741    90Ap     4.577676
      72App    4.579041    91Ap     4.616657    92Ap     4.709037
      73App    4.773729    93Ap     4.775009    74App    4.836680
      94Ap     4.962910    95Ap     5.001641    75App    5.002860
      96Ap     5.227963    76App    5.246699    97Ap     5.246950
      98Ap     5.355007    77App    5.356916    78App    5.478835

    Beta Occupied:

       1Ap   -10.168012     1App  -10.167698     2Ap   -10.167683
       3Ap   -10.166633     4Ap    -0.781054     2App   -0.684112
       5Ap    -0.683849     6Ap    -0.511773     7Ap    -0.431278
       3App   -0.431120     8Ap    -0.421580     4App   -0.376458
       9Ap    -0.376391     5App   -0.362878     6App   -0.333316
      10Ap    -0.333018

    Beta Virtual:

      11Ap    -0.025891    12Ap     0.077100    13Ap     0.135016
       7App    0.135151     8App    0.144550    14Ap     0.144592
      15Ap     0.163304    16Ap     0.182330     9App    0.182339
      10App    0.215160    17Ap     0.218861    18Ap     0.281882
      11App    0.282531    19Ap     0.400378    12App    0.400388
      20Ap     0.419811    21Ap     0.426854    13App    0.426945
      22Ap     0.468435    14App    0.497659    23Ap     0.497745
      15App    0.513796    24Ap     0.556280    25Ap     0.584247
      16App    0.584644    26Ap     0.597317    17App    0.597736
      27Ap     0.609711    28Ap     0.628248    18App    0.632070
      29Ap     0.639542    19App    0.639759    30Ap     0.666637
      20App    0.667026    21App    0.686501    31Ap     0.686517
      32Ap     0.757395    33Ap     0.830419    22App    0.830424
      23App    0.855319    34Ap     0.922703    24App    0.922971
      25App    0.945857    35Ap     0.953488    36Ap     0.966612
      26App    0.966734    37Ap     1.009622    27App    1.132141
      38Ap     1.132349    39Ap     1.155224    28App    1.168243
      40Ap     1.168316    41Ap     1.231871    42Ap     1.279622
      29App    1.280008    43Ap     1.284958    44Ap     1.329408
      30App    1.329626    45Ap     1.364367    46Ap     1.371396
      31App    1.371891    32App    1.393590    47Ap     1.406521
      33App    1.407223    48Ap     1.421289    34App    1.421795
      35App    1.427991    36App    1.493011    49Ap     1.509003
      50Ap     1.547611    37App    1.547843    38App    1.582126
      51Ap     1.582497    52Ap     1.675196    53Ap     1.744693
      39App    1.745263    54Ap     1.778890    55Ap     1.835150
      40App    1.835987    41App    1.973144    56Ap     2.025003
      42App    2.025191    57Ap     2.039426    58Ap     2.058094
      43App    2.059939    59Ap     2.746410    44App    2.746570
      45App    2.812108    60Ap     2.815793    61Ap     2.902103
      46App    2.902846    62Ap     2.924593    47App    2.931939
      63Ap     2.932287    48App    2.960222    49App    2.968664
      64Ap     2.969143    65Ap     3.041943    66Ap     3.080352
      50App    3.080848    51App    3.086233    67Ap     3.184239
      52App    3.184570    68Ap     3.188595    69Ap     3.290379
      53App    3.290462    70Ap     3.331474    54App    3.332351
      71Ap     3.383100    72Ap     3.492474    55App    3.492962
      56App    3.511914    73Ap     3.528487    57App    3.574537
      74Ap     3.580581    58App    3.582186    59App    3.670982
      75Ap     3.671121    76Ap     3.693959    77Ap     3.725309
      60App    3.725677    61App    3.779201    78Ap     3.781768
      79Ap     3.816396    80Ap     3.921701    62App    3.922603
      81Ap     4.044179    82Ap     4.117519    63App    4.119562
      83Ap     4.155087    64App    4.156061    84Ap     4.187194
      85Ap     4.208164    65App    4.209123    86Ap     4.210293
      66App    4.215281    87Ap     4.322629    67App    4.323734
      68App    4.362449    69App    4.431613    88Ap     4.432565
      70App    4.447185    89Ap     4.524016    71App    4.525523
      90Ap     4.588246    72App    4.589623    91Ap     4.623781
      92Ap     4.719471    73App    4.780699    93Ap     4.781900
      74App    4.839594    94Ap     4.967721    95Ap     5.005675
      75App    5.006929    96Ap     5.233647    76App    5.248462
      97Ap     5.248736    98Ap     5.361450    77App    5.363401
      78App    5.481155

    Final Occupation by Irrep:
             Ap   App
    DOCC [    10,    6 ]
    SOCC [     1,    0 ]

  @DF-UKS Final Energy:  -157.81306197111425

   => Energetics <=

    Nuclear Repulsion Energy =            125.3858983325539924
    One-Electron Energy =                -458.7313543636876716
    Two-Electron Energy =                 195.8392829598871003
    DFT Exchange-Correlation Energy =     -20.3068888998676833
    Empirical Dispersion Energy =           0.0000000000000000
    VV10 Nonlocal Energy =                  0.0000000000000000
    Total Energy =                       -157.8130619711142515

  UHF NO Occupations:
  HONO-2 :    9 Ap 1.9995999
  HONO-1 :   10 Ap 1.9989813
  HONO-0 :   11 Ap 1.0000000
  LUNO+0 :   12 Ap 0.0010187
  LUNO+1 :   13 Ap 0.0004001
  LUNO+2 :   14 Ap 0.0001982
  LUNO+3 :    7App 0.0001971

Computation Completed

Properties will be evaluated at   0.000000,   0.000000,   0.000000 [a0]

Properties computed using the SCF density matrix

  Nuclear Dipole Moment: [e a0]
     X:     0.8369      Y:     0.0033      Z:     0.0000

  Electronic Dipole Moment: [e a0]
     X:    -0.7591      Y:    -0.0032      Z:     0.0000

  Dipole Moment: [e a0]
     X:     0.0778      Y:     0.0000      Z:     0.0000     Total:     0.0778

  Dipole Moment: [D]
     X:     0.1977      Y:     0.0001      Z:     0.0000     Total:     0.1977

*** tstop() called on n035 at Fri Nov  5 13:39:30 2021
Module time:
	user time   =     633.28 seconds =      10.55 minutes
	system time =      12.16 seconds =       0.20 minutes
	total time  =        162 seconds =       2.70 minutes
Total time:
	user time   =     633.28 seconds =      10.55 minutes
	system time =      12.16 seconds =       0.20 minutes
	total time  =        162 seconds =       2.70 minutes
Grab this energy -157.81306197111425
    Psi4 stopped on: Friday, 05 November 2021 01:39PM
    Psi4 wall time for execution: 0:02:42.33

*** Psi4 exiting successfully. Buy a developer a beer!
