                               Psi4 1.4a2.dev629

  ==> Input File <==

--------------------------------------------------------------------------
import os
memory 14 GB

molecule {
 C   -0.3251196008   -0.0024295948   -0.0000000000
 C    0.0601843531   -1.4016314758   -2.4255184225
 C    0.0612592474    2.8032711102   -0.0000000000
 C    0.0601843531   -1.4016314758    2.4255184225
 H    2.0859687047   -1.6387743994   -2.8440220611
 H   -0.7694717073   -0.3907519289   -4.0231916032
 H   -0.7620843360   -3.2962620699   -2.3514831694
 H    2.0896791491    3.2812447170    0.0000000000
 H   -0.7638103507    3.6863646009    1.6756962935
 H   -0.7638103507    3.6863646009   -1.6756962935
 H    2.0859687047   -1.6387743994    2.8440220611
 H   -0.7620843360   -3.2962620699    2.3514831694
 H   -0.7694717073   -0.3907519289    4.0231916032
units bohr
0 2
}

basis {

assign 6-31g_2dfp_

[ 6-31g_2dfp_ ]

spherical

!----------------------------------------------------------------------
! Basis Set Exchange
! Version v0.8.13
! https://www.basissetexchange.org
!----------------------------------------------------------------------
!   Basis set: 6-31G(2df,p)
! Description: 6-31G(2df,p)
!        Role: orbital
!     Version: 0  (Data from the original Basis Set Exchange)
!----------------------------------------------------------------------

****
H     0
S    3   1.00
     18.7311370              0.03349460
      2.8253937              0.23472695
      0.6401217              0.81375733
S    1   1.00
      0.1612778              1.00000000
P    1   1.00
      1.5000000              1.0000000
P    1   1.00
      0.3750000              1.0000000
****
B     0
S    6   1.00
   2068.8823000              0.0018663
    310.6495700              0.0142515
     70.6830330              0.0695516
     19.8610800              0.2325729
      6.2993048              0.4670787
      2.1270270              0.3634314
SP   3   1.00
      4.7279710             -0.1303938              0.0745976
      1.1903377             -0.1307889              0.3078467
      0.3594117              1.1309444              0.7434568
SP   1   1.00
      0.1267512              1.0000000              1.0000000
D    1   1.00
      0.8020000              1.0000000
D    1   1.00
      0.2005000              1.0000000
F    1   1.00
      0.5000000              1.0000000
****
C     0
S    6   1.00
   3047.5249000              0.0018347
    457.3695100              0.0140373
    103.9486900              0.0688426
     29.2101550              0.2321844
      9.2866630              0.4679413
      3.1639270              0.3623120
SP   3   1.00
      7.8682724             -0.1193324              0.0689991
      1.8812885             -0.1608542              0.3164240
      0.5442493              1.1434564              0.7443083
SP   1   1.00
      0.1687144              1.0000000              1.0000000
D    1   1.00
      1.2520000              1.0000000
D    1   1.00
      0.3130000              1.0000000
F    1   1.00
      0.8000000              1.0000000
****
N     0
S    6   1.00
   4173.5110000              0.0018348
    627.4579000              0.0139950
    142.9021000              0.0685870
     40.2343300              0.2322410
     12.8202100              0.4690700
      4.3904370              0.3604550
SP   3   1.00
     11.6263580             -0.1149610              0.0675800
      2.7162800             -0.1691180              0.3239070
      0.7722180              1.1458520              0.7408950
SP   1   1.00
      0.2120313              1.0000000              1.0000000
D    1   1.00
      1.8260000              1.0000000
D    1   1.00
      0.4565000              1.0000000
F    1   1.00
      1.0000000              1.0000000
****
O     0
S    6   1.00
   5484.6717000              0.0018311
    825.2349500              0.0139501
    188.0469600              0.0684451
     52.9645000              0.2327143
     16.8975700              0.4701930
      5.7996353              0.3585209
SP   3   1.00
     15.5396160             -0.1107775              0.0708743
      3.5999336             -0.1480263              0.3397528
      1.0137618              1.1307670              0.7271586
SP   1   1.00
      0.2700058              1.0000000              1.0000000
D    1   1.00
      2.5840000              1.0000000
D    1   1.00
      0.6460000              1.0000000
F    1   1.00
      1.4000000              1.0000000
****
F     0
S    6   1.00
   7001.7130900              0.0018196169
   1051.3660900              0.0139160796
    239.2856900              0.0684053245
     67.3974453              0.233185760
     21.5199573              0.471267439
      7.40310130             0.356618546
SP   3   1.00
     20.8479528             -0.108506975            0.0716287243
      4.80830834            -0.146451658            0.3459121030
      1.34406986             1.128688580            0.7224699570
SP   1   1.00
      0.358151393            1.0000000              1.0000000
D    1   1.00
      3.5000000              1.0000000
D    1   1.00
      0.8750000              1.0000000
F    1   1.00
      1.8500000              1.0000000
****
Al     0
S    6   1.00
  13983.1000000              0.00194267
   2098.7500000              0.0148599
    477.7050000              0.0728494
    134.3600000              0.2468300
     42.8709000              0.4872580
     14.5189000              0.3234960
SP   6   1.00
    239.6680000             -0.00292619             0.00460285
     57.4419000             -0.0374080              0.0331990
     18.2859000             -0.1144870              0.1362820
      6.5991400              0.1156350              0.3304760
      2.4904900              0.6125950              0.4491460
      0.9445400              0.3937990              0.2657040
SP   3   1.00
      1.2779000             -0.2276060             -0.0175130
      0.3975900              0.00144583             0.2445330
      0.1600950              1.0927900              0.8049340
SP   1   1.00
      0.0556577              1.0000000              1.0000000
D    1   1.00
      0.6500000              1.0000000
D    1   1.00
      0.1625000              1.0000000
F    1   1.00
      0.2500000              1.0000000
****
Si     0
S    6   1.00
  16115.9000000              0.00195948
   2425.5800000              0.01492880
    553.8670000              0.07284780
    156.3400000              0.24613000
     50.0683000              0.48591400
     17.0178000              0.32500200
SP   6   1.00
    292.7180000             -0.00278094             0.00443826
     69.8731000             -0.03571460             0.03266790
     22.3363000             -0.11498500             0.13472100
      8.1503900              0.09356340             0.32867800
      3.1345800              0.60301700             0.44964000
      1.2254300              0.41895900             0.26137200
SP   3   1.00
      1.7273800             -0.24463000            -0.01779510
      0.5729220              0.00431572             0.25353900
      0.2221920              1.09818000             0.80066900
SP   1   1.00
      0.0778369              1.00000000             1.00000000
D    1   1.00
      0.9000000              1.0000000
D    1   1.00
      0.2250000              1.0000000
F    1   1.00
      0.3200000              1.0000000
****
P     0
S    6   1.00
  19413.3000000              0.0018516
   2909.4200000              0.0142062
    661.3640000              0.0699995
    185.7590000              0.2400790
     59.1943000              0.4847620
     20.0310000              0.3352000
SP   6   1.00
    339.4780000             -0.00278217             0.00456462
     81.0101000             -0.0360499              0.03369360
     25.8780000             -0.1166310              0.13975500
      9.4522100              0.0968328              0.33936200
      3.6656600              0.6144180              0.45092100
      1.4674600              0.4037980              0.23858600
SP   3   1.00
      2.1562300             -0.2529230             -0.01776530
      0.7489970              0.0328517              0.27405800
      0.2831450              1.0812500              0.78542100
SP   1   1.00
      0.0998317              1.0000000              1.00000000
D    1   1.00
      1.1000000              1.0000000
D    1   1.00
      0.2750000              1.0000000
F    1   1.00
      0.4500000              1.0000000
****
S     0
S    6   1.00
  21917.1000000              0.0018690
   3301.4900000              0.0142300
    754.1460000              0.0696960
    212.7110000              0.2384870
     67.9896000              0.4833070
     23.0515000              0.3380740
SP   6   1.00
    423.7350000             -0.0023767              0.0040610
    100.7100000             -0.0316930              0.0306810
     32.1599000             -0.1133170              0.1304520
     11.8079000              0.0560900              0.3272050
      4.6311000              0.5922550              0.4528510
      1.8702500              0.4550060              0.2560420
SP   3   1.00
      2.6158400             -0.2503740             -0.0145110
      0.9221670              0.0669570              0.3102630
      0.3412870              1.0545100              0.7544830
SP   1   1.00
      0.1171670              1.0000000              1.0000000
D    1   1.00
      1.3000000              1.0000000
D    1   1.00
      0.3250000              1.0000000
F    1   1.00
      0.5500000              1.0000000
****
Cl     0
S    6   1.00
  25180.1000000              0.0018330
   3780.3500000              0.0140340
    860.4740000              0.0690970
    242.1450000              0.2374520
     77.3349000              0.4830340
     26.2470000              0.3398560
SP   6   1.00
    491.7650000             -0.0022974              0.0039894
    116.9840000             -0.0307140              0.0303180
     37.4153000             -0.1125280              0.1298800
     13.7834000              0.0450160              0.3279510
      5.4521500              0.5893530              0.4535270
      2.2258800              0.4652060              0.2521540
SP   3   1.00
      3.1864900             -0.2518300             -0.0142990
      1.1442700              0.0615890              0.3235720
      0.4203770              1.0601800              0.7435070
SP   1   1.00
      0.1426570              1.0000000              1.0000000
D    1   1.00
      1.5000000              1.0000000
D    1   1.00
      0.3750000              1.0000000
F    1   1.00
      0.7000000              1.0000000
****
}

set {
reference uhf
freeze_core true
e_convergence 10
d_convergence 10
dft_spherical_points 1202
dft_radial_points 99
}

e = energy('b3lyp')

print_out('Grab this energy {0}'.format(e))
--------------------------------------------------------------------------

    Molecular point group: cs

    Geometry (in Bohr), charge = 0, multiplicity = 2:

       Center              X                  Y                   Z               Mass
    ------------   -----------------  -----------------  -----------------  -----------------
         C           -0.324454785769    -0.001962779382     0.000000000000    12.000000000000
         C            0.060849168131    -1.401164660382    -2.425518422500    12.000000000000
         C            0.061924062431     2.803737925618     0.000000000000    12.000000000000
         C            0.060849168131    -1.401164660382     2.425518422500    12.000000000000
         H            2.086633519731    -1.638307583982    -2.844022061100     1.007825032230
         H           -0.768806892269    -0.390285113482    -4.023191603200     1.007825032230
         H           -0.761419520969    -3.295795254482    -2.351483169400     1.007825032230
         H            2.090343964131     3.281711532418     0.000000000000     1.007825032230
         H           -0.763145535669     3.686831416318     1.675696293500     1.007825032230
         H           -0.763145535669     3.686831416318    -1.675696293500     1.007825032230
         H            2.086633519731    -1.638307583982     2.844022061100     1.007825032230
         H           -0.761419520969    -3.295795254482     2.351483169400     1.007825032230
         H           -0.768806892269    -0.390285113482     4.023191603200     1.007825032230

  Charge       = 0
  Multiplicity = 2
  Basis Set: ANONYMOUSBBB9C263
    Blend: 6-31G_2DFP_
  Basis Set: (ANONYMOUSBBB9C263 AUX)
    Blend: DEF2-UNIVERSAL-JKFIT

    Orbital Energies [Eh]
    ---------------------

    Alpha Occupied:

       1Ap   -10.180355     2Ap   -10.167279     1App  -10.166968
       3Ap   -10.166937     4Ap    -0.797703     2App   -0.686292
       5Ap    -0.686006     6Ap    -0.530764     7Ap    -0.441294
       8Ap    -0.434532     3App   -0.434389     4App   -0.382797
       9Ap    -0.382707     5App   -0.363472     6App   -0.338123
      10Ap    -0.337827    11Ap    -0.168871

    Alpha Virtual:

      12Ap     0.076037    13Ap     0.134142     7App    0.134269
       8App    0.142546    14Ap     0.142570    15Ap     0.154673
       9App    0.178812    16Ap     0.178817    17Ap     0.203415
      10App    0.214581    18Ap     0.275611    11App    0.276282
      19Ap     0.398984    12App    0.399011    20Ap     0.403429
      21Ap     0.424216    13App    0.424285    22Ap     0.456359
      14App    0.495362    23Ap     0.495463    15App    0.512350
      24Ap     0.513923    25Ap     0.578450    16App    0.578852
      26Ap     0.591619    17App    0.592055    27Ap     0.602805
      28Ap     0.624700    18App    0.631520    29Ap     0.636069
      19App    0.636247    30Ap     0.662932    20App    0.663341
      21App    0.683918    31Ap     0.683956    32Ap     0.734910
      33Ap     0.825478    22App    0.825534    23App    0.853575
      34Ap     0.914756    24App    0.915013    25App    0.943902
      35Ap     0.945409    36Ap     0.961538    26App    0.961606
      37Ap     1.002725    27App    1.127617    38Ap     1.127679
      39Ap     1.142795    28App    1.162611    40Ap     1.162856
      41Ap     1.223408    42Ap     1.274322    29App    1.274699
      43Ap     1.279147    44Ap     1.323955    30App    1.324198
      45Ap     1.356411    46Ap     1.365445    31App    1.366016
      32App    1.392635    47Ap     1.403988    33App    1.404652
      48Ap     1.417006    34App    1.417524    35App    1.427303
      36App    1.490895    49Ap     1.499397    50Ap     1.542630
      37App    1.542899    38App    1.574845    51Ap     1.575294
      52Ap     1.669768    53Ap     1.739282    39App    1.739829
      54Ap     1.768462    55Ap     1.830700    40App    1.831527
      41App    1.971633    56Ap     2.017985    42App    2.018236
      57Ap     2.018682    58Ap     2.051208    43App    2.053134
      59Ap     2.738846    44App    2.738954    60Ap     2.790704
      45App    2.810906    61Ap     2.889315    46App    2.890219
      62Ap     2.894744    47App    2.928869    63Ap     2.929214
      48App    2.958933    49App    2.964071    64Ap     2.964579
      65Ap     3.033528    66Ap     3.071468    50App    3.072052
      51App    3.084706    67Ap     3.168767    52App    3.168908
      68Ap     3.180456    69Ap     3.285678    53App    3.285760
      70Ap     3.325600    54App    3.326502    71Ap     3.375904
      72Ap     3.490426    55App    3.490876    56App    3.513726
      73Ap     3.525141    74Ap     3.567048    57App    3.568671
      58App    3.574335    59App    3.666231    75Ap     3.666605
      76Ap     3.678583    77Ap     3.694297    60App    3.694991
      61App    3.774319    78Ap     3.776943    79Ap     3.790475
      80Ap     3.911645    62App    3.912618    81Ap     4.035569
      82Ap     4.110219    63App    4.112277    83Ap     4.147800
      64App    4.148908    84Ap     4.173301    85Ap     4.201716
      65App    4.202715    86Ap     4.203140    66App    4.210377
      87Ap     4.315154    67App    4.316166    68App    4.357799
      69App    4.424457    88Ap     4.425459    70App    4.442450
      89Ap     4.515232    71App    4.516784    90Ap     4.576628
      72App    4.577969    91Ap     4.616991    92Ap     4.709168
      73App    4.773602    93Ap     4.774876    74App    4.837930
      94Ap     4.962331    95Ap     5.002459    75App    5.003685
      96Ap     5.227676    76App    5.246747    97Ap     5.246993
      98Ap     5.353981    77App    5.355886    78App    5.479085

    Beta Occupied:

       1Ap   -10.168035     1App  -10.167721     2Ap   -10.167704
       3Ap   -10.166526     4Ap    -0.781025     2App   -0.684085
       5Ap    -0.683822     6Ap    -0.511739     7Ap    -0.430918
       3App   -0.430761     8Ap    -0.421986     4App   -0.376881
       9Ap    -0.376814     5App   -0.362462     6App   -0.333243
      10Ap    -0.332945

    Beta Virtual:

      11Ap    -0.025576    12Ap     0.077049    13Ap     0.135013
       7App    0.135148     8App    0.144396    14Ap     0.144441
      15Ap     0.163083    16Ap     0.182488     9App    0.182498
      10App    0.214808    17Ap     0.218836    18Ap     0.281981
      11App    0.282630    19Ap     0.400161    12App    0.400170
      20Ap     0.419845    21Ap     0.427021    13App    0.427114
      22Ap     0.468189    14App    0.497615    23Ap     0.497702
      15App    0.514079    24Ap     0.556352    25Ap     0.583972
      16App    0.584392    26Ap     0.597841    17App    0.598240
      27Ap     0.610208    28Ap     0.628073    18App    0.631673
      29Ap     0.639342    19App    0.639559    30Ap     0.666483
      20App    0.666870    21App    0.686584    31Ap     0.686599
      32Ap     0.757469    33Ap     0.830658    22App    0.830659
      23App    0.854925    34Ap     0.922679    24App    0.922941
      25App    0.945739    35Ap     0.954255    36Ap     0.966841
      26App    0.966968    37Ap     1.007937    27App    1.131589
      38Ap     1.131761    39Ap     1.156387    28App    1.167755
      40Ap     1.167875    41Ap     1.232276    42Ap     1.279892
      29App    1.280283    43Ap     1.284838    44Ap     1.328919
      30App    1.329137    45Ap     1.365887    46Ap     1.370733
      31App    1.371227    32App    1.393676    47Ap     1.407410
      33App    1.408129    48Ap     1.422119    34App    1.422617
      35App    1.427571    36App    1.491954    49Ap     1.509864
      50Ap     1.547072    37App    1.547283    38App    1.582747
      51Ap     1.583115    52Ap     1.674612    53Ap     1.745028
      39App    1.745603    54Ap     1.779228    55Ap     1.834551
      40App    1.835391    41App    1.972485    56Ap     2.024479
      42App    2.024653    57Ap     2.039869    58Ap     2.057976
      43App    2.059830    59Ap     2.747146    44App    2.747305
      45App    2.811314    60Ap     2.815833    61Ap     2.902171
      46App    2.902916    62Ap     2.924404    47App    2.931336
      63Ap     2.931696    48App    2.959992    49App    2.968593
      64Ap     2.969072    65Ap     3.041472    66Ap     3.081432
      50App    3.081934    51App    3.086521    67Ap     3.184396
      52App    3.184741    68Ap     3.188176    69Ap     3.290496
      53App    3.290585    70Ap     3.329436    54App    3.330323
      71Ap     3.383750    72Ap     3.493069    55App    3.493560
      56App    3.512087    73Ap     3.528226    57App    3.574197
      74Ap     3.580477    58App    3.582040    59App    3.671212
      75Ap     3.671331    76Ap     3.691914    77Ap     3.725926
      60App    3.726300    61App    3.778825    78Ap     3.781381
      79Ap     3.818976    80Ap     3.921554    62App    3.922439
      81Ap     4.046403    82Ap     4.116950    63App    4.118998
      83Ap     4.155153    64App    4.156128    84Ap     4.187394
      85Ap     4.207734    65App    4.208690    86Ap     4.211011
      66App    4.214822    87Ap     4.322548    67App    4.323622
      68App    4.361139    69App    4.432681    88Ap     4.433648
      70App    4.445361    89Ap     4.523046    71App    4.524576
      90Ap     4.587201    72App    4.588553    91Ap     4.624264
      92Ap     4.719405    73App    4.780610    93Ap     4.781803
      74App    4.840844    94Ap     4.967128    95Ap     5.006465
      75App    5.007726    96Ap     5.233406    76App    5.248515
      97Ap     5.248785    98Ap     5.360438    77App    5.362386
      78App    5.481402

    Final Occupation by Irrep:
             Ap   App
    DOCC [    10,    6 ]
    SOCC [     1,    0 ]

  @DF-UKS Final Energy:  -157.81305821333709

   => Energetics <=

    Nuclear Repulsion Energy =            125.3830429750782400
    One-Electron Energy =                -458.7262879516694056
    Two-Electron Energy =                 195.8369856784086096
    DFT Exchange-Correlation Energy =     -20.3067989151545341
    Empirical Dispersion Energy =           0.0000000000000000
    VV10 Nonlocal Energy =                  0.0000000000000000
    Total Energy =                       -157.8130582133370865

  UHF NO Occupations:
  HONO-2 :    9 Ap 1.9996022
  HONO-1 :   10 Ap 1.9989785
  HONO-0 :   11 Ap 1.0000000
  LUNO+0 :   12 Ap 0.0010215
  LUNO+1 :   13 Ap 0.0003978
  LUNO+2 :   14 Ap 0.0001984
  LUNO+3 :    7App 0.0001973

Computation Completed

Properties will be evaluated at   0.000000,   0.000000,   0.000000 [a0]

Properties computed using the SCF density matrix

  Nuclear Dipole Moment: [e a0]
     X:     0.8319      Y:     0.0033      Z:     0.0000

  Electronic Dipole Moment: [e a0]
     X:    -0.7535      Y:    -0.0032      Z:     0.0000

  Dipole Moment: [e a0]
     X:     0.0783      Y:     0.0000      Z:     0.0000     Total:     0.0783

  Dipole Moment: [D]
     X:     0.1991      Y:     0.0001      Z:     0.0000     Total:     0.1991

*** tstop() called on n089 at Fri Nov  5 15:40:11 2021
Module time:
	user time   =     507.52 seconds =       8.46 minutes
	system time =       4.59 seconds =       0.08 minutes
	total time  =        129 seconds =       2.15 minutes
Total time:
	user time   =     507.52 seconds =       8.46 minutes
	system time =       4.59 seconds =       0.08 minutes
	total time  =        129 seconds =       2.15 minutes
Grab this energy -157.8130582133371
    Psi4 stopped on: Friday, 05 November 2021 03:40PM
    Psi4 wall time for execution: 0:02:08.77

*** Psi4 exiting successfully. Buy a developer a beer!
