                               Psi4 1.4a2.dev629

  ==> Input File <==

--------------------------------------------------------------------------
import os
memory 14 GB

molecule {
 C   -0.3243659787   -0.0000025241   -0.0004981832
 C    0.0588854452   -1.4008309608   -2.4266836974
 C    0.0599599090    2.8019129359   -0.0003850143
 C    0.0612723583   -1.4010793925    2.4263439528
 H    2.0938194623   -1.6440130594   -2.8474740500
 H   -0.7674145585   -0.3925082910   -4.0224926426
 H   -0.7687736689   -3.2877602472   -2.3514584013
 H    2.0901109310    3.2885202834   -0.0001838492
 H   -0.7677983892    3.6804650927    1.6744508600
 H   -0.7654045411    3.6795352571   -1.6738488829
 H    2.0866785352   -1.6445995918    2.8481236153
 H   -0.7642718833   -3.2919146763    2.3484260698
 H   -0.7653054981   -0.3877491395    4.0256802232
units bohr
0 2
}

basis {

assign 6-31g_2dfp_

[ 6-31g_2dfp_ ]

spherical

!----------------------------------------------------------------------
! Basis Set Exchange
! Version v0.8.13
! https://www.basissetexchange.org
!----------------------------------------------------------------------
!   Basis set: 6-31G(2df,p)
! Description: 6-31G(2df,p)
!        Role: orbital
!     Version: 0  (Data from the original Basis Set Exchange)
!----------------------------------------------------------------------

****
H     0
S    3   1.00
     18.7311370              0.03349460
      2.8253937              0.23472695
      0.6401217              0.81375733
S    1   1.00
      0.1612778              1.00000000
P    1   1.00
      1.5000000              1.0000000
P    1   1.00
      0.3750000              1.0000000
****
B     0
S    6   1.00
   2068.8823000              0.0018663
    310.6495700              0.0142515
     70.6830330              0.0695516
     19.8610800              0.2325729
      6.2993048              0.4670787
      2.1270270              0.3634314
SP   3   1.00
      4.7279710             -0.1303938              0.0745976
      1.1903377             -0.1307889              0.3078467
      0.3594117              1.1309444              0.7434568
SP   1   1.00
      0.1267512              1.0000000              1.0000000
D    1   1.00
      0.8020000              1.0000000
D    1   1.00
      0.2005000              1.0000000
F    1   1.00
      0.5000000              1.0000000
****
C     0
S    6   1.00
   3047.5249000              0.0018347
    457.3695100              0.0140373
    103.9486900              0.0688426
     29.2101550              0.2321844
      9.2866630              0.4679413
      3.1639270              0.3623120
SP   3   1.00
      7.8682724             -0.1193324              0.0689991
      1.8812885             -0.1608542              0.3164240
      0.5442493              1.1434564              0.7443083
SP   1   1.00
      0.1687144              1.0000000              1.0000000
D    1   1.00
      1.2520000              1.0000000
D    1   1.00
      0.3130000              1.0000000
F    1   1.00
      0.8000000              1.0000000
****
N     0
S    6   1.00
   4173.5110000              0.0018348
    627.4579000              0.0139950
    142.9021000              0.0685870
     40.2343300              0.2322410
     12.8202100              0.4690700
      4.3904370              0.3604550
SP   3   1.00
     11.6263580             -0.1149610              0.0675800
      2.7162800             -0.1691180              0.3239070
      0.7722180              1.1458520              0.7408950
SP   1   1.00
      0.2120313              1.0000000              1.0000000
D    1   1.00
      1.8260000              1.0000000
D    1   1.00
      0.4565000              1.0000000
F    1   1.00
      1.0000000              1.0000000
****
O     0
S    6   1.00
   5484.6717000              0.0018311
    825.2349500              0.0139501
    188.0469600              0.0684451
     52.9645000              0.2327143
     16.8975700              0.4701930
      5.7996353              0.3585209
SP   3   1.00
     15.5396160             -0.1107775              0.0708743
      3.5999336             -0.1480263              0.3397528
      1.0137618              1.1307670              0.7271586
SP   1   1.00
      0.2700058              1.0000000              1.0000000
D    1   1.00
      2.5840000              1.0000000
D    1   1.00
      0.6460000              1.0000000
F    1   1.00
      1.4000000              1.0000000
****
F     0
S    6   1.00
   7001.7130900              0.0018196169
   1051.3660900              0.0139160796
    239.2856900              0.0684053245
     67.3974453              0.233185760
     21.5199573              0.471267439
      7.40310130             0.356618546
SP   3   1.00
     20.8479528             -0.108506975            0.0716287243
      4.80830834            -0.146451658            0.3459121030
      1.34406986             1.128688580            0.7224699570
SP   1   1.00
      0.358151393            1.0000000              1.0000000
D    1   1.00
      3.5000000              1.0000000
D    1   1.00
      0.8750000              1.0000000
F    1   1.00
      1.8500000              1.0000000
****
Al     0
S    6   1.00
  13983.1000000              0.00194267
   2098.7500000              0.0148599
    477.7050000              0.0728494
    134.3600000              0.2468300
     42.8709000              0.4872580
     14.5189000              0.3234960
SP   6   1.00
    239.6680000             -0.00292619             0.00460285
     57.4419000             -0.0374080              0.0331990
     18.2859000             -0.1144870              0.1362820
      6.5991400              0.1156350              0.3304760
      2.4904900              0.6125950              0.4491460
      0.9445400              0.3937990              0.2657040
SP   3   1.00
      1.2779000             -0.2276060             -0.0175130
      0.3975900              0.00144583             0.2445330
      0.1600950              1.0927900              0.8049340
SP   1   1.00
      0.0556577              1.0000000              1.0000000
D    1   1.00
      0.6500000              1.0000000
D    1   1.00
      0.1625000              1.0000000
F    1   1.00
      0.2500000              1.0000000
****
Si     0
S    6   1.00
  16115.9000000              0.00195948
   2425.5800000              0.01492880
    553.8670000              0.07284780
    156.3400000              0.24613000
     50.0683000              0.48591400
     17.0178000              0.32500200
SP   6   1.00
    292.7180000             -0.00278094             0.00443826
     69.8731000             -0.03571460             0.03266790
     22.3363000             -0.11498500             0.13472100
      8.1503900              0.09356340             0.32867800
      3.1345800              0.60301700             0.44964000
      1.2254300              0.41895900             0.26137200
SP   3   1.00
      1.7273800             -0.24463000            -0.01779510
      0.5729220              0.00431572             0.25353900
      0.2221920              1.09818000             0.80066900
SP   1   1.00
      0.0778369              1.00000000             1.00000000
D    1   1.00
      0.9000000              1.0000000
D    1   1.00
      0.2250000              1.0000000
F    1   1.00
      0.3200000              1.0000000
****
P     0
S    6   1.00
  19413.3000000              0.0018516
   2909.4200000              0.0142062
    661.3640000              0.0699995
    185.7590000              0.2400790
     59.1943000              0.4847620
     20.0310000              0.3352000
SP   6   1.00
    339.4780000             -0.00278217             0.00456462
     81.0101000             -0.0360499              0.03369360
     25.8780000             -0.1166310              0.13975500
      9.4522100              0.0968328              0.33936200
      3.6656600              0.6144180              0.45092100
      1.4674600              0.4037980              0.23858600
SP   3   1.00
      2.1562300             -0.2529230             -0.01776530
      0.7489970              0.0328517              0.27405800
      0.2831450              1.0812500              0.78542100
SP   1   1.00
      0.0998317              1.0000000              1.00000000
D    1   1.00
      1.1000000              1.0000000
D    1   1.00
      0.2750000              1.0000000
F    1   1.00
      0.4500000              1.0000000
****
S     0
S    6   1.00
  21917.1000000              0.0018690
   3301.4900000              0.0142300
    754.1460000              0.0696960
    212.7110000              0.2384870
     67.9896000              0.4833070
     23.0515000              0.3380740
SP   6   1.00
    423.7350000             -0.0023767              0.0040610
    100.7100000             -0.0316930              0.0306810
     32.1599000             -0.1133170              0.1304520
     11.8079000              0.0560900              0.3272050
      4.6311000              0.5922550              0.4528510
      1.8702500              0.4550060              0.2560420
SP   3   1.00
      2.6158400             -0.2503740             -0.0145110
      0.9221670              0.0669570              0.3102630
      0.3412870              1.0545100              0.7544830
SP   1   1.00
      0.1171670              1.0000000              1.0000000
D    1   1.00
      1.3000000              1.0000000
D    1   1.00
      0.3250000              1.0000000
F    1   1.00
      0.5500000              1.0000000
****
Cl     0
S    6   1.00
  25180.1000000              0.0018330
   3780.3500000              0.0140340
    860.4740000              0.0690970
    242.1450000              0.2374520
     77.3349000              0.4830340
     26.2470000              0.3398560
SP   6   1.00
    491.7650000             -0.0022974              0.0039894
    116.9840000             -0.0307140              0.0303180
     37.4153000             -0.1125280              0.1298800
     13.7834000              0.0450160              0.3279510
      5.4521500              0.5893530              0.4535270
      2.2258800              0.4652060              0.2521540
SP   3   1.00
      3.1864900             -0.2518300             -0.0142990
      1.1442700              0.0615890              0.3235720
      0.4203770              1.0601800              0.7435070
SP   1   1.00
      0.1426570              1.0000000              1.0000000
D    1   1.00
      1.5000000              1.0000000
D    1   1.00
      0.3750000              1.0000000
F    1   1.00
      0.7000000              1.0000000
****
}

set {
reference uhf
freeze_core true
e_convergence 10
d_convergence 10
dft_spherical_points 1202
dft_radial_points 99
}

e = energy('b3lyp')

print_out('Grab this energy {0}'.format(e))
--------------------------------------------------------------------------

    Molecular point group: c1

    Geometry (in Bohr), charge = 0, multiplicity = 2:

       Center              X                  Y                   Z               Mass
    ------------   -----------------  -----------------  -----------------  -----------------
         C           -0.323555433398    -0.000002106008    -0.000262635747    12.000000000000
         C            0.059695990502    -1.400830542708    -2.426448149947    12.000000000000
         C            0.060770454302     2.801913353992    -0.000149466847    12.000000000000
         C            0.062082903602    -1.401078974408     2.426579500253    12.000000000000
         H            2.094630007602    -1.644012641308    -2.847238502547     1.007825032230
         H           -0.766604013198    -0.392507872908    -4.022257095147     1.007825032230
         H           -0.767963123598    -3.287759829108    -2.351222853847     1.007825032230
         H            2.090921476302     3.288520701492     0.000051698253     1.007825032230
         H           -0.766987843898     3.680465510792     1.674686407453     1.007825032230
         H           -0.764593995798     3.679535675192    -1.673613335447     1.007825032230
         H            2.087489080502    -1.644599173708     2.848359162753     1.007825032230
         H           -0.763461337998    -3.291914258208     2.348661617253     1.007825032230
         H           -0.764494952798    -0.387748721408     4.025915770653     1.007825032230

  Charge       = 0
  Multiplicity = 2
  Basis Set: ANONYMOUS80F401DA
    Blend: 6-31G_2DFP_
  Basis Set: (ANONYMOUS80F401DA AUX)
    Blend: DEF2-UNIVERSAL-JKFIT

    Orbital Energies [Eh]
    ---------------------

    Alpha Occupied:

       1A    -10.180401     2A    -10.167048     3A    -10.167024
       4A    -10.166981     5A     -0.797729     6A     -0.686184
       7A     -0.686183     8A     -0.530771     9A     -0.441028
      10A     -0.434735    11A     -0.434695    12A     -0.382485
      13A     -0.382436    14A     -0.363790    15A     -0.338085
      16A     -0.338021    17A     -0.168999

    Alpha Virtual:

      18A      0.076156    19A      0.133978    20A      0.134313
      21A      0.142635    22A      0.142767    23A      0.154713
      24A      0.178523    25A      0.178688    26A      0.203506
      27A      0.215076    28A      0.275884    29A      0.276038
      30A      0.399075    31A      0.399142    32A      0.403255
      33A      0.424201    34A      0.424371    35A      0.456517
      36A      0.495423    37A      0.495713    38A      0.512043
      39A      0.513828    40A      0.578462    41A      0.578823
      42A      0.591222    43A      0.591508    44A      0.601829
      45A      0.625274    46A      0.632144    47A      0.636524
      48A      0.636733    49A      0.662567    50A      0.663298
      51A      0.683929    52A      0.684281    53A      0.735057
      54A      0.825349    55A      0.825389    56A      0.853642
      57A      0.914589    58A      0.915016    59A      0.944413
      60A      0.944750    61A      0.961068    62A      0.961330
      63A      1.003265    64A      1.128307    65A      1.128411
      66A      1.141493    67A      1.163415    68A      1.163663
      69A      1.223740    70A      1.274094    71A      1.274392
      72A      1.279207    73A      1.324099    74A      1.324182
      75A      1.356478    76A      1.365931    77A      1.366007
      78A      1.392399    79A      1.402566    80A      1.403499
      81A      1.417555    82A      1.418640    83A      1.427697
      84A      1.491479    85A      1.498151    86A      1.542017
      87A      1.542928    88A      1.574653    89A      1.574967
      90A      1.671082    91A      1.738403    92A      1.738708
      93A      1.766496    94A      1.831989    95A      1.833600
      96A      1.972730    97A      2.018000    98A      2.018709
      99A      2.019557   100A      2.050507   101A      2.052333
     102A      2.738397   103A      2.739212   104A      2.790534
     105A      2.811880   106A      2.889553   107A      2.889581
     108A      2.894625   109A      2.929692   110A      2.929717
     111A      2.958867   112A      2.963634   113A      2.964284
     114A      3.033327   115A      3.071228   116A      3.071271
     117A      3.085772   118A      3.168430   119A      3.168880
     120A      3.180555   121A      3.284896   122A      3.285546
     123A      3.327589   124A      3.327991   125A      3.375792
     126A      3.489771   127A      3.490096   128A      3.512803
     129A      3.526530   130A      3.567872   131A      3.568099
     132A      3.574331   133A      3.665288   134A      3.666734
     135A      3.680251   136A      3.694171   137A      3.694481
     138A      3.777204   139A      3.777238   140A      3.788342
     141A      3.912678   142A      3.912903   143A      4.034860
     144A      4.110847   145A      4.111765   146A      4.146893
     147A      4.148069   148A      4.171456   149A      4.202201
     150A      4.203427   151A      4.204824   152A      4.209747
     153A      4.314731   154A      4.316393   155A      4.360218
     156A      4.423426   157A      4.424052   158A      4.443678
     159A      4.515519   160A      4.516870   161A      4.578844
     162A      4.579078   163A      4.617420   164A      4.708938
     165A      4.774282   166A      4.775174   167A      4.838254
     168A      4.963176   169A      5.000888   170A      5.002388
     171A      5.225297   172A      5.247726   173A      5.251881
     174A      5.352397   175A      5.354774   176A      5.481337

    Beta Occupied:

       1A    -10.167806     2A    -10.167781     3A    -10.167751
       4A    -10.166584     5A     -0.781061     6A     -0.684004
       7A     -0.683993     8A     -0.511791     9A     -0.431127
      10A     -0.431099    11A     -0.421662    12A     -0.376567
      13A     -0.376474    14A     -0.362783    15A     -0.333197
      16A     -0.333148

    Beta Virtual:

      17A     -0.025873    18A      0.077182    19A      0.134952
      20A      0.135265    21A      0.144505    22A      0.144585
      23A      0.163190    24A      0.182147    25A      0.182350
      26A      0.215298    27A      0.218887    28A      0.282234
      29A      0.282393    30A      0.400247    31A      0.400312
      32A      0.419798    33A      0.427012    34A      0.427182
      35A      0.468325    36A      0.497686    37A      0.497991
      38A      0.513786    39A      0.556134    40A      0.584055
      41A      0.584385    42A      0.597372    43A      0.597703
      44A      0.609372    45A      0.628526    46A      0.632307
      47A      0.639765    48A      0.639977    49A      0.666194
      50A      0.666861    51A      0.686570    52A      0.686886
      53A      0.757577    54A      0.830536    55A      0.830581
      56A      0.855005    57A      0.922591    58A      0.922992
      59A      0.946242    60A      0.953728    61A      0.966312
      62A      0.966630    63A      1.008465    64A      1.132413
      65A      1.132433    66A      1.154950    67A      1.168430
      68A      1.168749    69A      1.232696    70A      1.279656
      71A      1.279977    72A      1.284906    73A      1.329138
      74A      1.329215    75A      1.365870    76A      1.371273
      77A      1.371296    78A      1.393473    79A      1.405928
      80A      1.406955    81A      1.422552    82A      1.423678
      83A      1.427972    84A      1.492501    85A      1.508602
      86A      1.546468    87A      1.547353    88A      1.582522
      89A      1.582810    90A      1.675980    91A      1.744163
      92A      1.744467    93A      1.777258    94A      1.835839
      95A      1.837464    96A      1.973578    97A      2.024781
      98A      2.025774    99A      2.039585   100A      2.057397
     101A      2.059132   102A      2.746750   103A      2.747548
     104A      2.812295   105A      2.815632   106A      2.902183
     107A      2.902298   108A      2.924109   109A      2.932143
     110A      2.932229   111A      2.959926   112A      2.968133
     113A      2.968808   114A      3.041476   115A      3.081024
     116A      3.081255   117A      3.087603   118A      3.184084
     119A      3.184749   120A      3.188230   121A      3.289715
     122A      3.290386   123A      3.331336   124A      3.331783
     125A      3.383584   126A      3.492500   127A      3.492749
     128A      3.511167   129A      3.529561   130A      3.574162
     131A      3.581350   132A      3.581665   133A      3.669904
     134A      3.671438   135A      3.693523   136A      3.725792
     137A      3.726103   138A      3.781640   139A      3.781734
     140A      3.816908   141A      3.922529   142A      3.922798
     143A      4.045809   144A      4.117687   145A      4.118562
     146A      4.154150   147A      4.155219   148A      4.185532
     149A      4.208920   150A      4.210198   151A      4.211358
     152A      4.214351   153A      4.322100   154A      4.323773
     155A      4.363536   156A      4.431637   157A      4.432268
     158A      4.446508   159A      4.523340   160A      4.524698
     161A      4.589390   162A      4.589650   163A      4.624522
     164A      4.719399   165A      4.781186   166A      4.782079
     167A      4.841159   168A      4.967984   169A      5.004974
     170A      5.006435   171A      5.230976   172A      5.249508
     173A      5.253641   174A      5.358838   175A      5.361237
     176A      5.483646

    Final Occupation by Irrep:
              A
    DOCC [    16 ]
    SOCC [     1 ]

  @DF-UKS Final Energy:  -157.81305005903752

   => Energetics <=

    Nuclear Repulsion Energy =            125.3893124131936787
    One-Electron Energy =                -458.7382026264074284
    Two-Electron Energy =                 195.8428797811374977
    DFT Exchange-Correlation Energy =     -20.3070396269612878
    Empirical Dispersion Energy =           0.0000000000000000
    VV10 Nonlocal Energy =                  0.0000000000000000
    Total Energy =                       -157.8130500590375220

  UHF NO Occupations:
  HONO-2 :   15  A 1.9995985
  HONO-1 :   16  A 1.9989796
  HONO-0 :   17  A 1.0000000
  LUNO+0 :   18  A 0.0010204
  LUNO+1 :   19  A 0.0004015
  LUNO+2 :   20  A 0.0001976
  LUNO+3 :   21  A 0.0001975

Computation Completed

Properties will be evaluated at   0.000000,   0.000000,   0.000000 [a0]

Properties computed using the SCF density matrix

  Nuclear Dipole Moment: [e a0]
     X:     0.8329      Y:    -0.0000      Z:     0.0017

  Electronic Dipole Moment: [e a0]
     X:    -0.7582      Y:     0.0000      Z:    -0.0023

  Dipole Moment: [e a0]
     X:     0.0747      Y:     0.0000      Z:    -0.0006     Total:     0.0747

  Dipole Moment: [D]
     X:     0.1899      Y:     0.0000      Z:    -0.0016     Total:     0.1899

*** tstop() called on n061 at Fri Nov  5 14:05:14 2021
Module time:
	user time   =     509.59 seconds =       8.49 minutes
	system time =      11.70 seconds =       0.20 minutes
	total time  =        132 seconds =       2.20 minutes
Total time:
	user time   =     509.59 seconds =       8.49 minutes
	system time =      11.70 seconds =       0.20 minutes
	total time  =        132 seconds =       2.20 minutes
Grab this energy -157.81305005903752
    Psi4 stopped on: Friday, 05 November 2021 02:05PM
    Psi4 wall time for execution: 0:02:11.17

*** Psi4 exiting successfully. Buy a developer a beer!
