                               Psi4 1.4a2.dev629

  ==> Input File <==

--------------------------------------------------------------------------
import os
memory 14 GB

molecule {
 C   -0.3233285285   -0.0004946584   -0.0000000000
 C    0.0613713192   -1.4019410030   -2.4281555293
 C    0.0611063769    2.8025424830   -0.0000000000
 C    0.0613713192   -1.4019410030    2.4281555293
 H    2.0848975843   -1.6439521030   -2.8472393661
 H   -0.7643587569   -0.3894780041   -4.0243941000
 H   -0.7646782542   -3.2895069354   -2.3490770127
 H    2.0910321860    3.2871061091    0.0000000000
 H   -0.7679408479    3.6802889218    1.6806467103
 H   -0.7679408479    3.6802889218   -1.6806467103
 H    2.0848975843   -1.6439521030    2.8472393661
 H   -0.7646782542   -3.2895069354    2.3490770127
 H   -0.7643587569   -0.3894780041    4.0243941000
units bohr
0 2
}

basis {

assign 6-31g_2dfp_

[ 6-31g_2dfp_ ]

spherical

!----------------------------------------------------------------------
! Basis Set Exchange
! Version v0.8.13
! https://www.basissetexchange.org
!----------------------------------------------------------------------
!   Basis set: 6-31G(2df,p)
! Description: 6-31G(2df,p)
!        Role: orbital
!     Version: 0  (Data from the original Basis Set Exchange)
!----------------------------------------------------------------------

****
H     0
S    3   1.00
     18.7311370              0.03349460
      2.8253937              0.23472695
      0.6401217              0.81375733
S    1   1.00
      0.1612778              1.00000000
P    1   1.00
      1.5000000              1.0000000
P    1   1.00
      0.3750000              1.0000000
****
B     0
S    6   1.00
   2068.8823000              0.0018663
    310.6495700              0.0142515
     70.6830330              0.0695516
     19.8610800              0.2325729
      6.2993048              0.4670787
      2.1270270              0.3634314
SP   3   1.00
      4.7279710             -0.1303938              0.0745976
      1.1903377             -0.1307889              0.3078467
      0.3594117              1.1309444              0.7434568
SP   1   1.00
      0.1267512              1.0000000              1.0000000
D    1   1.00
      0.8020000              1.0000000
D    1   1.00
      0.2005000              1.0000000
F    1   1.00
      0.5000000              1.0000000
****
C     0
S    6   1.00
   3047.5249000              0.0018347
    457.3695100              0.0140373
    103.9486900              0.0688426
     29.2101550              0.2321844
      9.2866630              0.4679413
      3.1639270              0.3623120
SP   3   1.00
      7.8682724             -0.1193324              0.0689991
      1.8812885             -0.1608542              0.3164240
      0.5442493              1.1434564              0.7443083
SP   1   1.00
      0.1687144              1.0000000              1.0000000
D    1   1.00
      1.2520000              1.0000000
D    1   1.00
      0.3130000              1.0000000
F    1   1.00
      0.8000000              1.0000000
****
N     0
S    6   1.00
   4173.5110000              0.0018348
    627.4579000              0.0139950
    142.9021000              0.0685870
     40.2343300              0.2322410
     12.8202100              0.4690700
      4.3904370              0.3604550
SP   3   1.00
     11.6263580             -0.1149610              0.0675800
      2.7162800             -0.1691180              0.3239070
      0.7722180              1.1458520              0.7408950
SP   1   1.00
      0.2120313              1.0000000              1.0000000
D    1   1.00
      1.8260000              1.0000000
D    1   1.00
      0.4565000              1.0000000
F    1   1.00
      1.0000000              1.0000000
****
O     0
S    6   1.00
   5484.6717000              0.0018311
    825.2349500              0.0139501
    188.0469600              0.0684451
     52.9645000              0.2327143
     16.8975700              0.4701930
      5.7996353              0.3585209
SP   3   1.00
     15.5396160             -0.1107775              0.0708743
      3.5999336             -0.1480263              0.3397528
      1.0137618              1.1307670              0.7271586
SP   1   1.00
      0.2700058              1.0000000              1.0000000
D    1   1.00
      2.5840000              1.0000000
D    1   1.00
      0.6460000              1.0000000
F    1   1.00
      1.4000000              1.0000000
****
F     0
S    6   1.00
   7001.7130900              0.0018196169
   1051.3660900              0.0139160796
    239.2856900              0.0684053245
     67.3974453              0.233185760
     21.5199573              0.471267439
      7.40310130             0.356618546
SP   3   1.00
     20.8479528             -0.108506975            0.0716287243
      4.80830834            -0.146451658            0.3459121030
      1.34406986             1.128688580            0.7224699570
SP   1   1.00
      0.358151393            1.0000000              1.0000000
D    1   1.00
      3.5000000              1.0000000
D    1   1.00
      0.8750000              1.0000000
F    1   1.00
      1.8500000              1.0000000
****
Al     0
S    6   1.00
  13983.1000000              0.00194267
   2098.7500000              0.0148599
    477.7050000              0.0728494
    134.3600000              0.2468300
     42.8709000              0.4872580
     14.5189000              0.3234960
SP   6   1.00
    239.6680000             -0.00292619             0.00460285
     57.4419000             -0.0374080              0.0331990
     18.2859000             -0.1144870              0.1362820
      6.5991400              0.1156350              0.3304760
      2.4904900              0.6125950              0.4491460
      0.9445400              0.3937990              0.2657040
SP   3   1.00
      1.2779000             -0.2276060             -0.0175130
      0.3975900              0.00144583             0.2445330
      0.1600950              1.0927900              0.8049340
SP   1   1.00
      0.0556577              1.0000000              1.0000000
D    1   1.00
      0.6500000              1.0000000
D    1   1.00
      0.1625000              1.0000000
F    1   1.00
      0.2500000              1.0000000
****
Si     0
S    6   1.00
  16115.9000000              0.00195948
   2425.5800000              0.01492880
    553.8670000              0.07284780
    156.3400000              0.24613000
     50.0683000              0.48591400
     17.0178000              0.32500200
SP   6   1.00
    292.7180000             -0.00278094             0.00443826
     69.8731000             -0.03571460             0.03266790
     22.3363000             -0.11498500             0.13472100
      8.1503900              0.09356340             0.32867800
      3.1345800              0.60301700             0.44964000
      1.2254300              0.41895900             0.26137200
SP   3   1.00
      1.7273800             -0.24463000            -0.01779510
      0.5729220              0.00431572             0.25353900
      0.2221920              1.09818000             0.80066900
SP   1   1.00
      0.0778369              1.00000000             1.00000000
D    1   1.00
      0.9000000              1.0000000
D    1   1.00
      0.2250000              1.0000000
F    1   1.00
      0.3200000              1.0000000
****
P     0
S    6   1.00
  19413.3000000              0.0018516
   2909.4200000              0.0142062
    661.3640000              0.0699995
    185.7590000              0.2400790
     59.1943000              0.4847620
     20.0310000              0.3352000
SP   6   1.00
    339.4780000             -0.00278217             0.00456462
     81.0101000             -0.0360499              0.03369360
     25.8780000             -0.1166310              0.13975500
      9.4522100              0.0968328              0.33936200
      3.6656600              0.6144180              0.45092100
      1.4674600              0.4037980              0.23858600
SP   3   1.00
      2.1562300             -0.2529230             -0.01776530
      0.7489970              0.0328517              0.27405800
      0.2831450              1.0812500              0.78542100
SP   1   1.00
      0.0998317              1.0000000              1.00000000
D    1   1.00
      1.1000000              1.0000000
D    1   1.00
      0.2750000              1.0000000
F    1   1.00
      0.4500000              1.0000000
****
S     0
S    6   1.00
  21917.1000000              0.0018690
   3301.4900000              0.0142300
    754.1460000              0.0696960
    212.7110000              0.2384870
     67.9896000              0.4833070
     23.0515000              0.3380740
SP   6   1.00
    423.7350000             -0.0023767              0.0040610
    100.7100000             -0.0316930              0.0306810
     32.1599000             -0.1133170              0.1304520
     11.8079000              0.0560900              0.3272050
      4.6311000              0.5922550              0.4528510
      1.8702500              0.4550060              0.2560420
SP   3   1.00
      2.6158400             -0.2503740             -0.0145110
      0.9221670              0.0669570              0.3102630
      0.3412870              1.0545100              0.7544830
SP   1   1.00
      0.1171670              1.0000000              1.0000000
D    1   1.00
      1.3000000              1.0000000
D    1   1.00
      0.3250000              1.0000000
F    1   1.00
      0.5500000              1.0000000
****
Cl     0
S    6   1.00
  25180.1000000              0.0018330
   3780.3500000              0.0140340
    860.4740000              0.0690970
    242.1450000              0.2374520
     77.3349000              0.4830340
     26.2470000              0.3398560
SP   6   1.00
    491.7650000             -0.0022974              0.0039894
    116.9840000             -0.0307140              0.0303180
     37.4153000             -0.1125280              0.1298800
     13.7834000              0.0450160              0.3279510
      5.4521500              0.5893530              0.4535270
      2.2258800              0.4652060              0.2521540
SP   3   1.00
      3.1864900             -0.2518300             -0.0142990
      1.1442700              0.0615890              0.3235720
      0.4203770              1.0601800              0.7435070
SP   1   1.00
      0.1426570              1.0000000              1.0000000
D    1   1.00
      1.5000000              1.0000000
D    1   1.00
      0.3750000              1.0000000
F    1   1.00
      0.7000000              1.0000000
****
}

set {
reference uhf
freeze_core true
e_convergence 10
d_convergence 10
dft_spherical_points 1202
dft_radial_points 99
}

e = energy('b3lyp')

print_out('Grab this energy {0}'.format(e))
--------------------------------------------------------------------------

    Molecular point group: cs

    Geometry (in Bohr), charge = 0, multiplicity = 2:

       Center              X                  Y                   Z               Mass
    ------------   -----------------  -----------------  -----------------  -----------------
         C           -0.323436479377    -0.000140952488     0.000000000000    12.000000000000
         C            0.061263368323    -1.401587297088    -2.428155529300    12.000000000000
         C            0.060998426023     2.802896188912     0.000000000000    12.000000000000
         C            0.061263368323    -1.401587297088     2.428155529300    12.000000000000
         H            2.084789633423    -1.643598397088    -2.847239366100     1.007825032230
         H           -0.764466707777    -0.389124298188    -4.024394100000     1.007825032230
         H           -0.764786205077    -3.289153229488    -2.349077012700     1.007825032230
         H            2.090924235123     3.287459815012     0.000000000000     1.007825032230
         H           -0.768048798777     3.680642627712     1.680646710300     1.007825032230
         H           -0.768048798777     3.680642627712    -1.680646710300     1.007825032230
         H            2.084789633423    -1.643598397088     2.847239366100     1.007825032230
         H           -0.764786205077    -3.289153229488     2.349077012700     1.007825032230
         H           -0.764466707777    -0.389124298188     4.024394100000     1.007825032230

  Charge       = 0
  Multiplicity = 2
  Basis Set: ANONYMOUS68BCF70A
    Blend: 6-31G_2DFP_
  Basis Set: (ANONYMOUS68BCF70A AUX)
    Blend: DEF2-UNIVERSAL-JKFIT

    Orbital Energies [Eh]
    ---------------------

    Alpha Occupied:

       1Ap   -10.180394     2Ap   -10.167633     1App  -10.166642
       3Ap   -10.166611     4Ap    -0.797510     2App   -0.686499
       5Ap    -0.685857     6Ap    -0.530609     7Ap    -0.441115
       8Ap    -0.434692     3App   -0.434517     4App   -0.382959
       9Ap    -0.382514     5App   -0.363813    10Ap    -0.337870
       6App   -0.337806    11Ap    -0.168940

    Alpha Virtual:

      12Ap     0.076079     7App    0.134205    13Ap     0.134208
       8App    0.142665    14Ap     0.142870    15Ap     0.154769
      16Ap     0.178625     9App    0.179266    17Ap     0.203255
      10App    0.214929    11App    0.275698    18Ap     0.275789
      19Ap     0.399152    12App    0.399316    20Ap     0.403435
      13App    0.424055    21Ap     0.424246    22Ap     0.456411
      23Ap     0.495329    14App    0.495469    15App    0.512217
      24Ap     0.514036    25Ap     0.578727    16App    0.578984
      26Ap     0.591416    17App    0.592033    27Ap     0.602634
      28Ap     0.624886    18App    0.631911    19App    0.635904
      29Ap     0.636577    30Ap     0.663117    20App    0.663482
      31Ap     0.683562    21App    0.684186    32Ap     0.735125
      22App    0.824978    33Ap     0.825787    23App    0.853781
      24App    0.915056    34Ap     0.915082    25App    0.944084
      35Ap     0.944299    26App    0.961106    36Ap     0.961618
      37Ap     1.003623    38Ap     1.127696    27App    1.128370
      39Ap     1.141804    28App    1.163795    40Ap     1.163957
      41Ap     1.222904    42Ap     1.274178    29App    1.274544
      43Ap     1.279189    30App    1.323790    44Ap     1.324516
      45Ap     1.355644    46Ap     1.365658    31App    1.366171
      32App    1.392943    47Ap     1.404383    33App    1.405160
      48Ap     1.416801    34App    1.417427    35App    1.428171
      36App    1.490969    49Ap     1.499665    37App    1.542610
      50Ap     1.542728    38App    1.574068    51Ap     1.574630
      52Ap     1.670586    39App    1.738814    53Ap     1.738975
      54Ap     1.768351    55Ap     1.830281    40App    1.833463
      41App    1.971107    56Ap     2.017942    42App    2.018219
      57Ap     2.018929    43App    2.052160    58Ap     2.052328
      44App    2.737865    59Ap     2.738759    60Ap     2.790698
      45App    2.811343    61Ap     2.889520    46App    2.890129
      62Ap     2.894574    47App    2.929540    63Ap     2.929757
      48App    2.959056    64Ap     2.963875    49App    2.964948
      65Ap     3.033848    66Ap     3.071128    50App    3.071534
      51App    3.083979    52App    3.168558    67Ap     3.168799
      68Ap     3.179998    53App    3.285583    69Ap     3.285714
      54App    3.326871    70Ap     3.326960    71Ap     3.375698
      55App    3.489231    72Ap     3.490912    56App    3.513863
      73Ap     3.524992    74Ap     3.568117    57App    3.568135
      58App    3.575329    75Ap     3.666353    59App    3.667883
      76Ap     3.680213    77Ap     3.693833    60App    3.694711
      78Ap     3.776156    61App    3.777361    79Ap     3.789411
      80Ap     3.910672    62App    3.911557    81Ap     4.033887
      82Ap     4.110858    63App    4.112299    64App    4.146060
      83Ap     4.150123    84Ap     4.172641    85Ap     4.199786
      65App    4.202908    86Ap     4.203823    66App    4.210800
      87Ap     4.315356    67App    4.316768    68App    4.359581
      69App    4.425296    88Ap     4.425898    70App    4.445508
      89Ap     4.516251    71App    4.516735    72App    4.577131
      90Ap     4.578011    91Ap     4.617144    92Ap     4.708201
      93Ap     4.773686    73App    4.773888    74App    4.835538
      94Ap     4.964182    95Ap     5.003291    75App    5.004427
      96Ap     5.228361    76App    5.243347    97Ap     5.250810
      98Ap     5.352506    77App    5.358377    78App    5.478219

    Beta Occupied:

       1Ap   -10.168393     1App  -10.167391     2Ap   -10.167380
       3Ap   -10.166557     4Ap    -0.780850     2App   -0.684308
       5Ap    -0.683666     6Ap    -0.511534     7Ap    -0.431092
       3App   -0.430896     8Ap    -0.421856     4App   -0.377069
       9Ap    -0.376605     5App   -0.362801    10Ap    -0.332971
       6App   -0.332922

    Beta Virtual:

      11Ap    -0.025573    12Ap     0.077084     7App    0.135030
      13Ap     0.135147     8App    0.144580    14Ap     0.144691
      15Ap     0.163186    16Ap     0.182290     9App    0.182914
      10App    0.215157    17Ap     0.218687    11App    0.282063
      18Ap     0.282159    19Ap     0.400312    12App    0.400482
      20Ap     0.419874    13App    0.426861    21Ap     0.427059
      22Ap     0.468243    23Ap     0.497582    14App    0.497722
      15App    0.513943    24Ap     0.556412    25Ap     0.584271
      16App    0.584543    26Ap     0.597632    17App    0.598199
      27Ap     0.610059    28Ap     0.628225    18App    0.632110
      19App    0.639148    29Ap     0.639824    30Ap     0.666666
      20App    0.667057    31Ap     0.686221    21App    0.686776
      32Ap     0.757726    22App    0.830105    33Ap     0.830966
      23App    0.855123    24App    0.923031    34Ap     0.923054
      25App    0.945913    35Ap     0.953214    26App    0.966432
      36Ap     0.966887    37Ap     1.008873    38Ap     1.131717
      27App    1.132420    39Ap     1.155143    28App    1.168865
      40Ap     1.169056    41Ap     1.231935    42Ap     1.279740
      29App    1.280111    43Ap     1.284966    30App    1.328710
      44Ap     1.329530    45Ap     1.365043    46Ap     1.370981
      31App    1.371462    32App    1.393991    47Ap     1.407799
      33App    1.408612    48Ap     1.421806    34App    1.422520
      35App    1.428452    36App    1.492005    49Ap     1.510087
      37App    1.546951    50Ap     1.547158    38App    1.581965
      51Ap     1.582513    52Ap     1.675438    39App    1.744593
      53Ap     1.744727    54Ap     1.779087    55Ap     1.834140
      40App    1.837266    41App    1.971963    42App    2.024624
      56Ap     2.024628    57Ap     2.039884    43App    2.058853
      58Ap     2.059148    44App    2.746217    59Ap     2.747141
      45App    2.811755    60Ap     2.815868    61Ap     2.902360
      46App    2.902772    62Ap     2.924213    47App    2.932043
      63Ap     2.932160    48App    2.960122    64Ap     2.968351
      49App    2.969498    65Ap     3.041740    66Ap     3.080938
      50App    3.081413    51App    3.085832    52App    3.184364
      67Ap     3.184654    68Ap     3.187731    53App    3.290307
      69Ap     3.290490    54App    3.330701    70Ap     3.330750
      71Ap     3.383485    55App    3.491985    72Ap     3.493603
      56App    3.512229    73Ap     3.528073    57App    3.575083
      74Ap     3.581554    58App    3.581614    75Ap     3.671241
      59App    3.672887    76Ap     3.693546    77Ap     3.725307
      60App    3.726208    78Ap     3.780652    61App    3.781794
      79Ap     3.818012    80Ap     3.920540    62App    3.921400
      81Ap     4.044848    82Ap     4.117800    63App    4.118773
      64App    4.153550    83Ap     4.157187    84Ap     4.186640
      85Ap     4.206466    65App    4.208897    86Ap     4.210955
      66App    4.215266    87Ap     4.323010    67App    4.324173
      68App    4.362924    69App    4.433458    88Ap     4.433996
      70App    4.448432    89Ap     4.524039    71App    4.524402
      72App    4.587759    90Ap     4.588547    91Ap     4.624315
      92Ap     4.718544    93Ap     4.780609    73App    4.780874
      74App    4.838457    94Ap     4.968956    95Ap     5.007324
      75App    5.008426    96Ap     5.234057    76App    5.245123
      97Ap     5.252590    98Ap     5.358968    77App    5.364814
      78App    5.480532

    Final Occupation by Irrep:
             Ap   App
    DOCC [    10,    6 ]
    SOCC [     1,    0 ]

  @DF-UKS Final Energy:  -157.81303347034344

   => Energetics <=

    Nuclear Repulsion Energy =            125.3667013033424382
    One-Electron Energy =                -458.6939305880212032
    Two-Electron Energy =                 195.8214592979879569
    DFT Exchange-Correlation Energy =     -20.3072634836526404
    Empirical Dispersion Energy =           0.0000000000000000
    VV10 Nonlocal Energy =                  0.0000000000000000
    Total Energy =                       -157.8130334703434414

  UHF NO Occupations:
  HONO-2 :    9 Ap 1.9996025
  HONO-1 :   10 Ap 1.9989782
  HONO-0 :   11 Ap 1.0000000
  LUNO+0 :   12 Ap 0.0010218
  LUNO+1 :   13 Ap 0.0003975
  LUNO+2 :   14 Ap 0.0001984
  LUNO+3 :    7App 0.0001983

Computation Completed

Properties will be evaluated at   0.000000,   0.000000,   0.000000 [a0]

Properties computed using the SCF density matrix

  Nuclear Dipole Moment: [e a0]
     X:     0.8264      Y:     0.0025      Z:     0.0000

  Electronic Dipole Moment: [e a0]
     X:    -0.7484      Y:    -0.0049      Z:     0.0000

  Dipole Moment: [e a0]
     X:     0.0780      Y:    -0.0024      Z:     0.0000     Total:     0.0781

  Dipole Moment: [D]
     X:     0.1984      Y:    -0.0062      Z:     0.0000     Total:     0.1985

*** tstop() called on n082 at Fri Nov  5 13:24:54 2021
Module time:
	user time   =     619.05 seconds =      10.32 minutes
	system time =       5.64 seconds =       0.09 minutes
	total time  =        157 seconds =       2.62 minutes
Total time:
	user time   =     619.05 seconds =      10.32 minutes
	system time =       5.64 seconds =       0.09 minutes
	total time  =        157 seconds =       2.62 minutes
Grab this energy -157.81303347034344
    Psi4 stopped on: Friday, 05 November 2021 01:24PM
    Psi4 wall time for execution: 0:02:36.98

*** Psi4 exiting successfully. Buy a developer a beer!
