                               Psi4 1.4a2.dev629

  ==> Input File <==

--------------------------------------------------------------------------
import os
memory 14 GB

molecule {
 C   -0.3233399044   -0.0024291005   -0.0000001961
 C    0.0607449864   -1.4023386851   -2.4248127640
 C    0.0618171124    2.8030140365   -0.0009673217
 C    0.0607398223   -1.4006658862    2.4257782039
 H    2.0856536353   -1.6440446123   -2.8479459326
 H   -0.7722490907   -0.3873815645   -4.0219868297
 H   -0.7601442585   -3.2933505003   -2.3488470428
 H    2.0893685038    3.2872823466   -0.0026016450
 H   -0.7665942983    3.6836475734    1.6780190167
 H   -0.7618667307    3.6826235107   -1.6745000105
 H    2.0856432862   -1.6395369104    2.8505451848
 H   -0.7648619153   -3.2969213999    2.3479628753
 H   -0.7675190253   -0.3899231215    4.0193564617
units bohr
0 2
}

basis {

assign 6-31g_2dfp_

[ 6-31g_2dfp_ ]

spherical

!----------------------------------------------------------------------
! Basis Set Exchange
! Version v0.8.13
! https://www.basissetexchange.org
!----------------------------------------------------------------------
!   Basis set: 6-31G(2df,p)
! Description: 6-31G(2df,p)
!        Role: orbital
!     Version: 0  (Data from the original Basis Set Exchange)
!----------------------------------------------------------------------

****
H     0
S    3   1.00
     18.7311370              0.03349460
      2.8253937              0.23472695
      0.6401217              0.81375733
S    1   1.00
      0.1612778              1.00000000
P    1   1.00
      1.5000000              1.0000000
P    1   1.00
      0.3750000              1.0000000
****
B     0
S    6   1.00
   2068.8823000              0.0018663
    310.6495700              0.0142515
     70.6830330              0.0695516
     19.8610800              0.2325729
      6.2993048              0.4670787
      2.1270270              0.3634314
SP   3   1.00
      4.7279710             -0.1303938              0.0745976
      1.1903377             -0.1307889              0.3078467
      0.3594117              1.1309444              0.7434568
SP   1   1.00
      0.1267512              1.0000000              1.0000000
D    1   1.00
      0.8020000              1.0000000
D    1   1.00
      0.2005000              1.0000000
F    1   1.00
      0.5000000              1.0000000
****
C     0
S    6   1.00
   3047.5249000              0.0018347
    457.3695100              0.0140373
    103.9486900              0.0688426
     29.2101550              0.2321844
      9.2866630              0.4679413
      3.1639270              0.3623120
SP   3   1.00
      7.8682724             -0.1193324              0.0689991
      1.8812885             -0.1608542              0.3164240
      0.5442493              1.1434564              0.7443083
SP   1   1.00
      0.1687144              1.0000000              1.0000000
D    1   1.00
      1.2520000              1.0000000
D    1   1.00
      0.3130000              1.0000000
F    1   1.00
      0.8000000              1.0000000
****
N     0
S    6   1.00
   4173.5110000              0.0018348
    627.4579000              0.0139950
    142.9021000              0.0685870
     40.2343300              0.2322410
     12.8202100              0.4690700
      4.3904370              0.3604550
SP   3   1.00
     11.6263580             -0.1149610              0.0675800
      2.7162800             -0.1691180              0.3239070
      0.7722180              1.1458520              0.7408950
SP   1   1.00
      0.2120313              1.0000000              1.0000000
D    1   1.00
      1.8260000              1.0000000
D    1   1.00
      0.4565000              1.0000000
F    1   1.00
      1.0000000              1.0000000
****
O     0
S    6   1.00
   5484.6717000              0.0018311
    825.2349500              0.0139501
    188.0469600              0.0684451
     52.9645000              0.2327143
     16.8975700              0.4701930
      5.7996353              0.3585209
SP   3   1.00
     15.5396160             -0.1107775              0.0708743
      3.5999336             -0.1480263              0.3397528
      1.0137618              1.1307670              0.7271586
SP   1   1.00
      0.2700058              1.0000000              1.0000000
D    1   1.00
      2.5840000              1.0000000
D    1   1.00
      0.6460000              1.0000000
F    1   1.00
      1.4000000              1.0000000
****
F     0
S    6   1.00
   7001.7130900              0.0018196169
   1051.3660900              0.0139160796
    239.2856900              0.0684053245
     67.3974453              0.233185760
     21.5199573              0.471267439
      7.40310130             0.356618546
SP   3   1.00
     20.8479528             -0.108506975            0.0716287243
      4.80830834            -0.146451658            0.3459121030
      1.34406986             1.128688580            0.7224699570
SP   1   1.00
      0.358151393            1.0000000              1.0000000
D    1   1.00
      3.5000000              1.0000000
D    1   1.00
      0.8750000              1.0000000
F    1   1.00
      1.8500000              1.0000000
****
Al     0
S    6   1.00
  13983.1000000              0.00194267
   2098.7500000              0.0148599
    477.7050000              0.0728494
    134.3600000              0.2468300
     42.8709000              0.4872580
     14.5189000              0.3234960
SP   6   1.00
    239.6680000             -0.00292619             0.00460285
     57.4419000             -0.0374080              0.0331990
     18.2859000             -0.1144870              0.1362820
      6.5991400              0.1156350              0.3304760
      2.4904900              0.6125950              0.4491460
      0.9445400              0.3937990              0.2657040
SP   3   1.00
      1.2779000             -0.2276060             -0.0175130
      0.3975900              0.00144583             0.2445330
      0.1600950              1.0927900              0.8049340
SP   1   1.00
      0.0556577              1.0000000              1.0000000
D    1   1.00
      0.6500000              1.0000000
D    1   1.00
      0.1625000              1.0000000
F    1   1.00
      0.2500000              1.0000000
****
Si     0
S    6   1.00
  16115.9000000              0.00195948
   2425.5800000              0.01492880
    553.8670000              0.07284780
    156.3400000              0.24613000
     50.0683000              0.48591400
     17.0178000              0.32500200
SP   6   1.00
    292.7180000             -0.00278094             0.00443826
     69.8731000             -0.03571460             0.03266790
     22.3363000             -0.11498500             0.13472100
      8.1503900              0.09356340             0.32867800
      3.1345800              0.60301700             0.44964000
      1.2254300              0.41895900             0.26137200
SP   3   1.00
      1.7273800             -0.24463000            -0.01779510
      0.5729220              0.00431572             0.25353900
      0.2221920              1.09818000             0.80066900
SP   1   1.00
      0.0778369              1.00000000             1.00000000
D    1   1.00
      0.9000000              1.0000000
D    1   1.00
      0.2250000              1.0000000
F    1   1.00
      0.3200000              1.0000000
****
P     0
S    6   1.00
  19413.3000000              0.0018516
   2909.4200000              0.0142062
    661.3640000              0.0699995
    185.7590000              0.2400790
     59.1943000              0.4847620
     20.0310000              0.3352000
SP   6   1.00
    339.4780000             -0.00278217             0.00456462
     81.0101000             -0.0360499              0.03369360
     25.8780000             -0.1166310              0.13975500
      9.4522100              0.0968328              0.33936200
      3.6656600              0.6144180              0.45092100
      1.4674600              0.4037980              0.23858600
SP   3   1.00
      2.1562300             -0.2529230             -0.01776530
      0.7489970              0.0328517              0.27405800
      0.2831450              1.0812500              0.78542100
SP   1   1.00
      0.0998317              1.0000000              1.00000000
D    1   1.00
      1.1000000              1.0000000
D    1   1.00
      0.2750000              1.0000000
F    1   1.00
      0.4500000              1.0000000
****
S     0
S    6   1.00
  21917.1000000              0.0018690
   3301.4900000              0.0142300
    754.1460000              0.0696960
    212.7110000              0.2384870
     67.9896000              0.4833070
     23.0515000              0.3380740
SP   6   1.00
    423.7350000             -0.0023767              0.0040610
    100.7100000             -0.0316930              0.0306810
     32.1599000             -0.1133170              0.1304520
     11.8079000              0.0560900              0.3272050
      4.6311000              0.5922550              0.4528510
      1.8702500              0.4550060              0.2560420
SP   3   1.00
      2.6158400             -0.2503740             -0.0145110
      0.9221670              0.0669570              0.3102630
      0.3412870              1.0545100              0.7544830
SP   1   1.00
      0.1171670              1.0000000              1.0000000
D    1   1.00
      1.3000000              1.0000000
D    1   1.00
      0.3250000              1.0000000
F    1   1.00
      0.5500000              1.0000000
****
Cl     0
S    6   1.00
  25180.1000000              0.0018330
   3780.3500000              0.0140340
    860.4740000              0.0690970
    242.1450000              0.2374520
     77.3349000              0.4830340
     26.2470000              0.3398560
SP   6   1.00
    491.7650000             -0.0022974              0.0039894
    116.9840000             -0.0307140              0.0303180
     37.4153000             -0.1125280              0.1298800
     13.7834000              0.0450160              0.3279510
      5.4521500              0.5893530              0.4535270
      2.2258800              0.4652060              0.2521540
SP   3   1.00
      3.1864900             -0.2518300             -0.0142990
      1.1442700              0.0615890              0.3235720
      0.4203770              1.0601800              0.7435070
SP   1   1.00
      0.1426570              1.0000000              1.0000000
D    1   1.00
      1.5000000              1.0000000
D    1   1.00
      0.3750000              1.0000000
F    1   1.00
      0.7000000              1.0000000
****
}

set {
reference uhf
freeze_core true
e_convergence 10
d_convergence 10
dft_spherical_points 1202
dft_radial_points 99
}

e = energy('b3lyp')

print_out('Grab this energy {0}'.format(e))
--------------------------------------------------------------------------

    Molecular point group: c1

    Geometry (in Bohr), charge = 0, multiplicity = 2:

       Center              X                  Y                   Z               Mass
    ------------   -----------------  -----------------  -----------------  -----------------
         C           -0.323340289910    -0.001962631954     0.000000204119    12.000000000000
         C            0.060744600890    -1.401872216554    -2.424812363781    12.000000000000
         C            0.061816726890     2.803480505046    -0.000966921481    12.000000000000
         C            0.060739436790    -1.400199417654     2.425778604119    12.000000000000
         H            2.085653249790    -1.643578143754    -2.847945532381     1.007825032230
         H           -0.772249476210    -0.386915095954    -4.021986429481     1.007825032230
         H           -0.760144644010    -3.292884031754    -2.348846642581     1.007825032230
         H            2.089368118290     3.287748815146    -0.002601244781     1.007825032230
         H           -0.766594683810     3.684114041946     1.678019416919     1.007825032230
         H           -0.761867116210     3.683089979246    -1.674499610281     1.007825032230
         H            2.085642900690    -1.639070441854     2.850545585019     1.007825032230
         H           -0.764862300810    -3.296454931354     2.347963275519     1.007825032230
         H           -0.767519410810    -0.389456652954     4.019356861919     1.007825032230

  Charge       = 0
  Multiplicity = 2
  Basis Set: ANONYMOUSEB97BB89
    Blend: 6-31G_2DFP_
  Basis Set: (ANONYMOUSEB97BB89 AUX)
    Blend: DEF2-UNIVERSAL-JKFIT

    Orbital Energies [Eh]
    ---------------------

    Alpha Occupied:

       1A    -10.180342     2A    -10.167233     3A    -10.166922
       4A    -10.166890     5A     -0.797767     6A     -0.686331
       7A     -0.686045     8A     -0.530778     9A     -0.441125
      10A     -0.434743    11A     -0.434601    12A     -0.382644
      13A     -0.382554    14A     -0.363609    15A     -0.338147
      16A     -0.337849    17A     -0.168961

    Alpha Virtual:

      18A      0.076072    19A      0.134082    20A      0.134209
      21A      0.142623    22A      0.142645    23A      0.154878
      24A      0.178777    25A      0.178782    26A      0.203545
      27A      0.214804    28A      0.275651    29A      0.276321
      30A      0.399209    31A      0.399237    32A      0.403355
      33A      0.424064    34A      0.424131    35A      0.456592
      36A      0.495340    37A      0.495440    38A      0.512159
      39A      0.513980    40A      0.578623    41A      0.579004
      42A      0.591408    43A      0.591862    44A      0.602572
      45A      0.624718    46A      0.631824    47A      0.636155
      48A      0.636334    49A      0.663208    50A      0.663618
      51A      0.683844    52A      0.683882    53A      0.734995
      54A      0.825378    55A      0.825435    56A      0.853915
      57A      0.914896    58A      0.915159    59A      0.944097
      60A      0.944639    61A      0.961258    62A      0.961324
      63A      1.003458    64A      1.128070    65A      1.128133
      66A      1.142205    67A      1.163166    68A      1.163399
      69A      1.223324    70A      1.274305    71A      1.274674
      72A      1.279357    73A      1.324222    74A      1.324464
      75A      1.355989    76A      1.365762    77A      1.366336
      78A      1.392460    79A      1.403730    80A      1.404373
      81A      1.416853    82A      1.417385    83A      1.427918
      84A      1.491457    85A      1.499106    86A      1.542686
      87A      1.542963    88A      1.574228    89A      1.574673
      90A      1.669840    91A      1.739136    92A      1.739682
      93A      1.768309    94A      1.830991    95A      1.831811
      96A      1.971700    97A      2.018223    98A      2.019066
      99A      2.019134   100A      2.051687   101A      2.053623
     102A      2.738426   103A      2.738535   104A      2.790927
     105A      2.811424   106A      2.889478   107A      2.890380
     108A      2.894990   109A      2.929326   110A      2.929666
     111A      2.958992   112A      2.964129   113A      2.964640
     114A      3.033995   115A      3.071003   116A      3.071577
     117A      3.084366   118A      3.168700   119A      3.168838
     120A      3.180620   121A      3.285263   122A      3.285349
     123A      3.326721   124A      3.327621   125A      3.375616
     126A      3.489942   127A      3.490391   128A      3.513993
     129A      3.525325   130A      3.567576   131A      3.569220
     132A      3.575139   133A      3.666182   134A      3.666546
     135A      3.679693   136A      3.693785   137A      3.694460
     138A      3.775477   139A      3.778091   140A      3.789168
     141A      3.911741   142A      3.912725   143A      4.034442
     144A      4.110281   145A      4.112326   146A      4.147619
     147A      4.148722   148A      4.173119   149A      4.202274
     150A      4.202987   151A      4.203527   152A      4.211035
     153A      4.315438   154A      4.316473   155A      4.358972
     156A      4.423956   157A      4.424962   158A      4.443449
     159A      4.516077   160A      4.517603   161A      4.577582
     162A      4.578941   163A      4.617530   164A      4.709454
     165A      4.773989   166A      4.775259   167A      4.836911
     168A      4.962863   169A      5.002354   170A      5.003575
     171A      5.228013   172A      5.246612   173A      5.246868
     174A      5.354642   175A      5.356549   176A      5.479383

    Beta Occupied:

       1A    -10.167989     2A    -10.167675     3A    -10.167659
       4A    -10.166519     5A     -0.781093     6A     -0.684122
       7A     -0.683859     8A     -0.511749     9A     -0.431121
      10A     -0.430964    11A     -0.421822    12A     -0.376717
      13A     -0.376651    14A     -0.362593    15A     -0.333270
      16A     -0.332972

    Beta Virtual:

      17A     -0.025742    18A      0.077081    19A      0.134968
      20A      0.135103    21A      0.144483    22A      0.144527
      23A      0.163337    24A      0.182446    25A      0.182456
      26A      0.215027    27A      0.218934    28A      0.282009
      29A      0.282658    30A      0.400392    31A      0.400401
      32A      0.419793    33A      0.426863    34A      0.426955
      35A      0.468501    36A      0.497607    37A      0.497693
      38A      0.513896    39A      0.556322    40A      0.584163
      41A      0.584566    42A      0.597607    43A      0.598021
      44A      0.609993    45A      0.628064    46A      0.632013
      47A      0.639420    48A      0.639640    49A      0.666784
      50A      0.667171    51A      0.686490    52A      0.686505
      53A      0.757517    54A      0.830573    55A      0.830577
      56A      0.855269    57A      0.922865    58A      0.923133
      59A      0.945956    60A      0.953545    61A      0.966535
      62A      0.966660    63A      1.008697    64A      1.132045
      65A      1.132217    66A      1.155579    67A      1.168302
      68A      1.168411    69A      1.232297    70A      1.279893
      71A      1.280277    72A      1.285114    73A      1.329223
      74A      1.329441    75A      1.365404    76A      1.371044
      77A      1.371541    78A      1.393519    79A      1.407168
      80A      1.407865    81A      1.421912    82A      1.422425
      83A      1.428190    84A      1.492518    85A      1.509536
      86A      1.547123    87A      1.547342    88A      1.582140
      89A      1.582502    90A      1.674686    91A      1.744884
      92A      1.745457    93A      1.779090    94A      1.834840
      95A      1.835674    96A      1.972573    97A      2.025354
      98A      2.025526    99A      2.039703   100A      2.058440
     101A      2.060305   102A      2.746737   103A      2.746897
     104A      2.811832   105A      2.816066   106A      2.902266
     107A      2.903009   108A      2.924637   109A      2.931809
     110A      2.932163   111A      2.960055   112A      2.968689
     113A      2.969170   114A      3.041926   115A      3.080954
     116A      3.081447   117A      3.086188   118A      3.184325
     119A      3.184662   120A      3.188351   121A      3.290058
     122A      3.290150   123A      3.330533   124A      3.331418
     125A      3.383435   126A      3.492652   127A      3.493142
     128A      3.512365   129A      3.528368   130A      3.574990
     131A      3.580944   132A      3.582535   133A      3.671059
     134A      3.671185   135A      3.692966   136A      3.725570
     137A      3.725937   138A      3.780046   139A      3.782599
     140A      3.817687   141A      3.921602   142A      3.922499
     143A      4.045329   144A      4.117095   145A      4.119131
     146A      4.154902   147A      4.155874   148A      4.187132
     149A      4.208500   150A      4.209462   151A      4.210635
     152A      4.215582   153A      4.322849   154A      4.323947
     155A      4.362335   156A      4.432186   157A      4.433157
     158A      4.446336   159A      4.523878   160A      4.525381
     161A      4.588175   162A      4.589547   163A      4.624726
     164A      4.719798   165A      4.780983   166A      4.782173
     167A      4.839828   168A      4.967657   169A      5.006375
     170A      5.007632   171A      5.233728   172A      5.248389
     173A      5.248669   174A      5.361097   175A      5.363047
     176A      5.481705

    Final Occupation by Irrep:
              A
    DOCC [    16 ]
    SOCC [     1 ]

  @DF-UKS Final Energy:  -157.81305665497595

   => Energetics <=

    Nuclear Repulsion Energy =            125.3946682360167131
    One-Electron Energy =                -458.7489646877423866
    Two-Electron Energy =                 195.8483873928761341
    DFT Exchange-Correlation Energy =     -20.3071475961264483
    Empirical Dispersion Energy =           0.0000000000000000
    VV10 Nonlocal Energy =                  0.0000000000000000
    Total Energy =                       -157.8130566549759521

  UHF NO Occupations:
  HONO-2 :   15  A 1.9996009
  HONO-1 :   16  A 1.9989805
  HONO-0 :   17  A 1.0000000
  LUNO+0 :   18  A 0.0010195
  LUNO+1 :   19  A 0.0003991
  LUNO+2 :   20  A 0.0001981
  LUNO+3 :   21  A 0.0001970

Computation Completed

Properties will be evaluated at   0.000000,   0.000000,   0.000000 [a0]

Properties computed using the SCF density matrix

  Nuclear Dipole Moment: [e a0]
     X:     0.8272      Y:     0.0033      Z:     0.0000

  Electronic Dipole Moment: [e a0]
     X:    -0.7493      Y:    -0.0032      Z:    -0.0000

  Dipole Moment: [e a0]
     X:     0.0779      Y:     0.0000      Z:    -0.0000     Total:     0.0779

  Dipole Moment: [D]
     X:     0.1980      Y:     0.0001      Z:    -0.0000     Total:     0.1980

*** tstop() called on n082 at Fri Nov  5 14:45:00 2021
Module time:
	user time   =     464.23 seconds =       7.74 minutes
	system time =       4.33 seconds =       0.07 minutes
	total time  =        118 seconds =       1.97 minutes
Total time:
	user time   =     464.23 seconds =       7.74 minutes
	system time =       4.33 seconds =       0.07 minutes
	total time  =        118 seconds =       1.97 minutes
Grab this energy -157.81305665497595
    Psi4 stopped on: Friday, 05 November 2021 02:45PM
    Psi4 wall time for execution: 0:01:57.86

*** Psi4 exiting successfully. Buy a developer a beer!
