                               Psi4 1.4a2.dev629

  ==> Input File <==

--------------------------------------------------------------------------
import os
memory 14 GB

molecule {
 C   -0.3233395560   -0.0019985299   -0.0004315190
 C    0.0613306796   -1.4008848004   -2.4257794179
 C    0.0611763994    2.8026069084   -0.0013892525
 C    0.0607949642   -1.4021781510    2.4252485983
 H    2.0862594233   -1.6445147013   -2.8445616549
 H   -0.7620591709   -0.3856438018   -4.0208054334
 H   -0.7678043071   -3.2954414331   -2.3531302663
 H    2.0865706790    3.2926917939   -0.0034957037
 H   -0.7693605722    3.6809294063    1.6796568255
 H   -0.7629471667    3.6791308595   -1.6748749254
 H    2.0878347744   -1.6475356385    2.8428024901
 H   -0.7651987364   -3.2916663784    2.3545455341
 H   -0.7658652875   -0.3855198473    4.0222147250
units bohr
0 2
}

basis {

assign 6-31g_2dfp_

[ 6-31g_2dfp_ ]

spherical

!----------------------------------------------------------------------
! Basis Set Exchange
! Version v0.8.13
! https://www.basissetexchange.org
!----------------------------------------------------------------------
!   Basis set: 6-31G(2df,p)
! Description: 6-31G(2df,p)
!        Role: orbital
!     Version: 0  (Data from the original Basis Set Exchange)
!----------------------------------------------------------------------

****
H     0
S    3   1.00
     18.7311370              0.03349460
      2.8253937              0.23472695
      0.6401217              0.81375733
S    1   1.00
      0.1612778              1.00000000
P    1   1.00
      1.5000000              1.0000000
P    1   1.00
      0.3750000              1.0000000
****
B     0
S    6   1.00
   2068.8823000              0.0018663
    310.6495700              0.0142515
     70.6830330              0.0695516
     19.8610800              0.2325729
      6.2993048              0.4670787
      2.1270270              0.3634314
SP   3   1.00
      4.7279710             -0.1303938              0.0745976
      1.1903377             -0.1307889              0.3078467
      0.3594117              1.1309444              0.7434568
SP   1   1.00
      0.1267512              1.0000000              1.0000000
D    1   1.00
      0.8020000              1.0000000
D    1   1.00
      0.2005000              1.0000000
F    1   1.00
      0.5000000              1.0000000
****
C     0
S    6   1.00
   3047.5249000              0.0018347
    457.3695100              0.0140373
    103.9486900              0.0688426
     29.2101550              0.2321844
      9.2866630              0.4679413
      3.1639270              0.3623120
SP   3   1.00
      7.8682724             -0.1193324              0.0689991
      1.8812885             -0.1608542              0.3164240
      0.5442493              1.1434564              0.7443083
SP   1   1.00
      0.1687144              1.0000000              1.0000000
D    1   1.00
      1.2520000              1.0000000
D    1   1.00
      0.3130000              1.0000000
F    1   1.00
      0.8000000              1.0000000
****
N     0
S    6   1.00
   4173.5110000              0.0018348
    627.4579000              0.0139950
    142.9021000              0.0685870
     40.2343300              0.2322410
     12.8202100              0.4690700
      4.3904370              0.3604550
SP   3   1.00
     11.6263580             -0.1149610              0.0675800
      2.7162800             -0.1691180              0.3239070
      0.7722180              1.1458520              0.7408950
SP   1   1.00
      0.2120313              1.0000000              1.0000000
D    1   1.00
      1.8260000              1.0000000
D    1   1.00
      0.4565000              1.0000000
F    1   1.00
      1.0000000              1.0000000
****
O     0
S    6   1.00
   5484.6717000              0.0018311
    825.2349500              0.0139501
    188.0469600              0.0684451
     52.9645000              0.2327143
     16.8975700              0.4701930
      5.7996353              0.3585209
SP   3   1.00
     15.5396160             -0.1107775              0.0708743
      3.5999336             -0.1480263              0.3397528
      1.0137618              1.1307670              0.7271586
SP   1   1.00
      0.2700058              1.0000000              1.0000000
D    1   1.00
      2.5840000              1.0000000
D    1   1.00
      0.6460000              1.0000000
F    1   1.00
      1.4000000              1.0000000
****
F     0
S    6   1.00
   7001.7130900              0.0018196169
   1051.3660900              0.0139160796
    239.2856900              0.0684053245
     67.3974453              0.233185760
     21.5199573              0.471267439
      7.40310130             0.356618546
SP   3   1.00
     20.8479528             -0.108506975            0.0716287243
      4.80830834            -0.146451658            0.3459121030
      1.34406986             1.128688580            0.7224699570
SP   1   1.00
      0.358151393            1.0000000              1.0000000
D    1   1.00
      3.5000000              1.0000000
D    1   1.00
      0.8750000              1.0000000
F    1   1.00
      1.8500000              1.0000000
****
Al     0
S    6   1.00
  13983.1000000              0.00194267
   2098.7500000              0.0148599
    477.7050000              0.0728494
    134.3600000              0.2468300
     42.8709000              0.4872580
     14.5189000              0.3234960
SP   6   1.00
    239.6680000             -0.00292619             0.00460285
     57.4419000             -0.0374080              0.0331990
     18.2859000             -0.1144870              0.1362820
      6.5991400              0.1156350              0.3304760
      2.4904900              0.6125950              0.4491460
      0.9445400              0.3937990              0.2657040
SP   3   1.00
      1.2779000             -0.2276060             -0.0175130
      0.3975900              0.00144583             0.2445330
      0.1600950              1.0927900              0.8049340
SP   1   1.00
      0.0556577              1.0000000              1.0000000
D    1   1.00
      0.6500000              1.0000000
D    1   1.00
      0.1625000              1.0000000
F    1   1.00
      0.2500000              1.0000000
****
Si     0
S    6   1.00
  16115.9000000              0.00195948
   2425.5800000              0.01492880
    553.8670000              0.07284780
    156.3400000              0.24613000
     50.0683000              0.48591400
     17.0178000              0.32500200
SP   6   1.00
    292.7180000             -0.00278094             0.00443826
     69.8731000             -0.03571460             0.03266790
     22.3363000             -0.11498500             0.13472100
      8.1503900              0.09356340             0.32867800
      3.1345800              0.60301700             0.44964000
      1.2254300              0.41895900             0.26137200
SP   3   1.00
      1.7273800             -0.24463000            -0.01779510
      0.5729220              0.00431572             0.25353900
      0.2221920              1.09818000             0.80066900
SP   1   1.00
      0.0778369              1.00000000             1.00000000
D    1   1.00
      0.9000000              1.0000000
D    1   1.00
      0.2250000              1.0000000
F    1   1.00
      0.3200000              1.0000000
****
P     0
S    6   1.00
  19413.3000000              0.0018516
   2909.4200000              0.0142062
    661.3640000              0.0699995
    185.7590000              0.2400790
     59.1943000              0.4847620
     20.0310000              0.3352000
SP   6   1.00
    339.4780000             -0.00278217             0.00456462
     81.0101000             -0.0360499              0.03369360
     25.8780000             -0.1166310              0.13975500
      9.4522100              0.0968328              0.33936200
      3.6656600              0.6144180              0.45092100
      1.4674600              0.4037980              0.23858600
SP   3   1.00
      2.1562300             -0.2529230             -0.01776530
      0.7489970              0.0328517              0.27405800
      0.2831450              1.0812500              0.78542100
SP   1   1.00
      0.0998317              1.0000000              1.00000000
D    1   1.00
      1.1000000              1.0000000
D    1   1.00
      0.2750000              1.0000000
F    1   1.00
      0.4500000              1.0000000
****
S     0
S    6   1.00
  21917.1000000              0.0018690
   3301.4900000              0.0142300
    754.1460000              0.0696960
    212.7110000              0.2384870
     67.9896000              0.4833070
     23.0515000              0.3380740
SP   6   1.00
    423.7350000             -0.0023767              0.0040610
    100.7100000             -0.0316930              0.0306810
     32.1599000             -0.1133170              0.1304520
     11.8079000              0.0560900              0.3272050
      4.6311000              0.5922550              0.4528510
      1.8702500              0.4550060              0.2560420
SP   3   1.00
      2.6158400             -0.2503740             -0.0145110
      0.9221670              0.0669570              0.3102630
      0.3412870              1.0545100              0.7544830
SP   1   1.00
      0.1171670              1.0000000              1.0000000
D    1   1.00
      1.3000000              1.0000000
D    1   1.00
      0.3250000              1.0000000
F    1   1.00
      0.5500000              1.0000000
****
Cl     0
S    6   1.00
  25180.1000000              0.0018330
   3780.3500000              0.0140340
    860.4740000              0.0690970
    242.1450000              0.2374520
     77.3349000              0.4830340
     26.2470000              0.3398560
SP   6   1.00
    491.7650000             -0.0022974              0.0039894
    116.9840000             -0.0307140              0.0303180
     37.4153000             -0.1125280              0.1298800
     13.7834000              0.0450160              0.3279510
      5.4521500              0.5893530              0.4535270
      2.2258800              0.4652060              0.2521540
SP   3   1.00
      3.1864900             -0.2518300             -0.0142990
      1.1442700              0.0615890              0.3235720
      0.4203770              1.0601800              0.7435070
SP   1   1.00
      0.1426570              1.0000000              1.0000000
D    1   1.00
      1.5000000              1.0000000
D    1   1.00
      0.3750000              1.0000000
F    1   1.00
      0.7000000              1.0000000
****
}

set {
reference uhf
freeze_core true
e_convergence 10
d_convergence 10
dft_spherical_points 1202
dft_radial_points 99
}

e = energy('b3lyp')

print_out('Grab this energy {0}'.format(e))
--------------------------------------------------------------------------

    Molecular point group: c1

    Geometry (in Bohr), charge = 0, multiplicity = 2:

       Center              X                  Y                   Z               Mass
    ------------   -----------------  -----------------  -----------------  -----------------
         C           -0.323340032130    -0.001525332118     0.000021414385    12.000000000000
         C            0.061330203470    -1.400411602618    -2.425326484515    12.000000000000
         C            0.061175923270     2.803080106182    -0.000936319115    12.000000000000
         C            0.060794488070    -1.401704953218     2.425701531685    12.000000000000
         H            2.086258947170    -1.644041503518    -2.844108721515     1.007825032230
         H           -0.762059647030    -0.385170604018    -4.020352500015     1.007825032230
         H           -0.767804783230    -3.294968235318    -2.352677332915     1.007825032230
         H            2.086570202870     3.293164991682    -0.003042770315     1.007825032230
         H           -0.769361048330     3.681402604082     1.680109758885     1.007825032230
         H           -0.762947642830     3.679604057282    -1.674421992015     1.007825032230
         H            2.087834298270    -1.647062440718     2.843255423485     1.007825032230
         H           -0.765199212530    -3.291193180618     2.354998467485     1.007825032230
         H           -0.765865763630    -0.385046649518     4.022667658385     1.007825032230

  Charge       = 0
  Multiplicity = 2
  Basis Set: ANONYMOUS138A5FD3
    Blend: 6-31G_2DFP_
  Basis Set: (ANONYMOUS138A5FD3 AUX)
    Blend: DEF2-UNIVERSAL-JKFIT

    Orbital Energies [Eh]
    ---------------------

    Alpha Occupied:

       1A    -10.180342     2A    -10.167199     3A    -10.166940
       4A    -10.166906     5A     -0.797767     6A     -0.686323
       7A     -0.686053     8A     -0.530778     9A     -0.441131
      10A     -0.434870    11A     -0.434466    12A     -0.382641
      13A     -0.382557    14A     -0.363613    15A     -0.338171
      16A     -0.337824    17A     -0.168961

    Alpha Virtual:

      18A      0.076070    19A      0.134035    20A      0.134272
      21A      0.142413    22A      0.142838    23A      0.154883
      24A      0.178679    25A      0.178877    26A      0.203548
      27A      0.214805    28A      0.275697    29A      0.276274
      30A      0.398971    31A      0.399477    32A      0.403353
      33A      0.423926    34A      0.424270    35A      0.456593
      36A      0.495312    37A      0.495467    38A      0.512160
      39A      0.513979    40A      0.578518    41A      0.579114
      42A      0.591305    43A      0.591956    44A      0.602575
      45A      0.624712    46A      0.631769    47A      0.636009
      48A      0.636547    49A      0.663199    50A      0.663625
      51A      0.683663    52A      0.684060    53A      0.734994
      54A      0.825074    55A      0.825737    56A      0.853915
      57A      0.914759    58A      0.915279    59A      0.944122
      60A      0.944606    61A      0.960600    62A      0.961995
      63A      1.003465    64A      1.127753    65A      1.128457
      66A      1.142221    67A      1.163163    68A      1.163391
      69A      1.223324    70A      1.274193    71A      1.274781
      72A      1.279351    73A      1.324138    74A      1.324566
      75A      1.355991    76A      1.365711    77A      1.366392
      78A      1.392446    79A      1.403730    80A      1.404372
      81A      1.416313    82A      1.417914    83A      1.427902
      84A      1.491498    85A      1.499070    86A      1.542562
      87A      1.543110    88A      1.574245    89A      1.574650
      90A      1.669838    91A      1.738619    92A      1.740213
      93A      1.768319    94A      1.830471    95A      1.832312
      96A      1.971755    97A      2.017370    98A      2.019323
      99A      2.019692   100A      2.051678   101A      2.053621
     102A      2.738155   103A      2.738809   104A      2.790929
     105A      2.811416   106A      2.889601   107A      2.890274
     108A      2.894985   109A      2.929467   110A      2.929531
     111A      2.958962   112A      2.964226   113A      2.964563
     114A      3.034010   115A      3.070709   116A      3.071795
     117A      3.084437   118A      3.168323   119A      3.169245
     120A      3.180587   121A      3.285144   122A      3.285477
     123A      3.326660   124A      3.327659   125A      3.375629
     126A      3.489842   127A      3.490460   128A      3.514026
     129A      3.525306   130A      3.567863   131A      3.568838
     132A      3.575225   133A      3.665873   134A      3.666888
     135A      3.679613   136A      3.693658   137A      3.694663
     138A      3.775552   139A      3.778039   140A      3.789161
     141A      3.911586   142A      3.912876   143A      4.034439
     144A      4.109951   145A      4.112697   146A      4.147143
     147A      4.148990   148A      4.173381   149A      4.202197
     150A      4.202646   151A      4.203879   152A      4.210981
     153A      4.314919   154A      4.316970   155A      4.359030
     156A      4.423856   157A      4.425062   158A      4.443468
     159A      4.515707   160A      4.517954   161A      4.577926
     162A      4.578584   163A      4.617543   164A      4.709432
     165A      4.773155   166A      4.776060   167A      4.836958
     168A      4.962860   169A      5.002463   170A      5.003461
     171A      5.227567   172A      5.246748   173A      5.247298
     174A      5.354055   175A      5.356979   176A      5.479420

    Beta Occupied:

       1A    -10.167957     2A    -10.167693     3A    -10.167673
       4A    -10.166519     5A     -0.781092     6A     -0.684120
       7A     -0.683861     8A     -0.511749     9A     -0.431238
      10A     -0.430851    11A     -0.421817    12A     -0.376720
      13A     -0.376649    14A     -0.362596    15A     -0.333289
      16A     -0.332952

    Beta Virtual:

      17A     -0.025743    18A      0.077079    19A      0.134902
      20A      0.135185    21A      0.144257    22A      0.144736
      23A      0.163341    24A      0.182356    25A      0.182542
      26A      0.215035    27A      0.218930    28A      0.282055
      29A      0.282612    30A      0.400143    31A      0.400651
      32A      0.419789    33A      0.426737    34A      0.427084
      35A      0.468500    36A      0.497571    37A      0.497730
      38A      0.513895    39A      0.556324    40A      0.584068
      41A      0.584665    42A      0.597486    43A      0.598132
      44A      0.609998    45A      0.628093    46A      0.631927
      47A      0.639305    48A      0.639820    49A      0.666777
      50A      0.667175    51A      0.686314    52A      0.686677
      53A      0.757517    54A      0.830237    55A      0.830912
      56A      0.855268    57A      0.922765    58A      0.923214
      59A      0.945960    60A      0.953528    61A      0.965961
      62A      0.967253    63A      1.008706    64A      1.131736
      65A      1.132531    66A      1.155600    67A      1.168293
      68A      1.168406    69A      1.232296    70A      1.279775
      71A      1.280392    72A      1.285106    73A      1.329128
      74A      1.329553    75A      1.365408    76A      1.371023
      77A      1.371564    78A      1.393508    79A      1.407166
      80A      1.407864    81A      1.421408    82A      1.422920
      83A      1.428171    84A      1.492548    85A      1.509514
      86A      1.546967    87A      1.547523    88A      1.582114
      89A      1.582522    90A      1.674685    91A      1.744364
      92A      1.745995    93A      1.779095    94A      1.834324
      95A      1.836169    96A      1.972615    97A      2.024835
      98A      2.026012    99A      2.039704   100A      2.058367
     101A      2.060374   102A      2.746497   103A      2.747141
     104A      2.811829   105A      2.816063   106A      2.902344
     107A      2.902937   108A      2.924662   109A      2.931954
     110A      2.932006   111A      2.960037   112A      2.968784
     113A      2.969082   114A      3.041944   115A      3.080579
     116A      3.081609   117A      3.086390   118A      3.184091
     119A      3.184969   120A      3.188277   121A      3.289925
     122A      3.290295   123A      3.330449   124A      3.331478
     125A      3.383448   126A      3.492591   127A      3.493170
     128A      3.512394   129A      3.528359   130A      3.574895
     131A      3.581145   132A      3.582415   133A      3.670792
     134A      3.671498   135A      3.692922   136A      3.725638
     137A      3.725901   138A      3.780126   139A      3.782523
     140A      3.817703   141A      3.921347   142A      3.922746
     143A      4.045326   144A      4.116772   145A      4.119515
     146A      4.154228   147A      4.156344   148A      4.187409
     149A      4.208153   150A      4.209761   151A      4.210641
     152A      4.215469   153A      4.322370   154A      4.324396
     155A      4.362399   156A      4.432099   157A      4.433243
     158A      4.446357   159A      4.523493   160A      4.525746
     161A      4.588525   162A      4.589185   163A      4.624740
     164A      4.719776   165A      4.780158   166A      4.782963
     167A      4.839877   168A      4.967655   169A      5.006498
     170A      5.007504   171A      5.233171   172A      5.248635
     173A      5.249096   174A      5.360531   175A      5.363459
     176A      5.481742

    Final Occupation by Irrep:
              A
    DOCC [    16 ]
    SOCC [     1 ]

  @DF-UKS Final Energy:  -157.81305643466862

   => Energetics <=

    Nuclear Repulsion Energy =            125.3946654138003680
    One-Electron Energy =                -458.7489561009734871
    Two-Electron Energy =                 195.8483811591769381
    DFT Exchange-Correlation Energy =     -20.3071469066724006
    Empirical Dispersion Energy =           0.0000000000000000
    VV10 Nonlocal Energy =                  0.0000000000000000
    Total Energy =                       -157.8130564346686242

  UHF NO Occupations:
  HONO-2 :   15  A 1.9996009
  HONO-1 :   16  A 1.9989804
  HONO-0 :   17  A 1.0000000
  LUNO+0 :   18  A 0.0010196
  LUNO+1 :   19  A 0.0003991
  LUNO+2 :   20  A 0.0001979
  LUNO+3 :   21  A 0.0001972

Computation Completed

Properties will be evaluated at   0.000000,   0.000000,   0.000000 [a0]

Properties computed using the SCF density matrix

  Nuclear Dipole Moment: [e a0]
     X:     0.8272      Y:     0.0033      Z:     0.0032

  Electronic Dipole Moment: [e a0]
     X:    -0.7493      Y:    -0.0033      Z:    -0.0049

  Dipole Moment: [e a0]
     X:     0.0779      Y:    -0.0000      Z:    -0.0017     Total:     0.0779

  Dipole Moment: [D]
     X:     0.1980      Y:    -0.0001      Z:    -0.0044     Total:     0.1981

*** tstop() called on n073 at Fri Nov  5 14:36:20 2021
Module time:
	user time   =     650.86 seconds =      10.85 minutes
	system time =      16.90 seconds =       0.28 minutes
	total time  =        168 seconds =       2.80 minutes
Total time:
	user time   =     650.86 seconds =      10.85 minutes
	system time =      16.90 seconds =       0.28 minutes
	total time  =        168 seconds =       2.80 minutes
Grab this energy -157.81305643466862
    Psi4 stopped on: Friday, 05 November 2021 02:36PM
    Psi4 wall time for execution: 0:02:47.79

*** Psi4 exiting successfully. Buy a developer a beer!
