                               Psi4 1.4a2.dev629

  ==> Input File <==

--------------------------------------------------------------------------
import os
memory 14 GB

molecule {
 C   -0.3233387169   -0.0000001050    0.0004329752
 C    0.0608721046   -1.4006867578   -2.4265965567
 C    0.0610248066    2.8017605436    0.0023552024
 C    0.0614084049   -1.4010652585    2.4261652366
 H    2.0877273574   -1.6433540956   -2.8478603386
 H   -0.7649472756   -0.3894316172   -4.0248634369
 H   -0.7666326295   -3.2918925861   -2.3492613858
 H    2.0868003303    3.2881029640    0.0060972432
 H   -0.7600817842    3.6788332004    1.6723465757
 H   -0.7712180765    3.6816579486   -1.6806512460
 H    2.0861482262   -1.6448415624    2.8470217765
 H   -0.7645087822   -3.2921024392    2.3487143466
 H   -0.7658618420   -0.3870045484    4.0260996078
units bohr
0 2
}

basis {

assign 6-31g_2dfp_

[ 6-31g_2dfp_ ]

spherical

!----------------------------------------------------------------------
! Basis Set Exchange
! Version v0.8.13
! https://www.basissetexchange.org
!----------------------------------------------------------------------
!   Basis set: 6-31G(2df,p)
! Description: 6-31G(2df,p)
!        Role: orbital
!     Version: 0  (Data from the original Basis Set Exchange)
!----------------------------------------------------------------------

****
H     0
S    3   1.00
     18.7311370              0.03349460
      2.8253937              0.23472695
      0.6401217              0.81375733
S    1   1.00
      0.1612778              1.00000000
P    1   1.00
      1.5000000              1.0000000
P    1   1.00
      0.3750000              1.0000000
****
B     0
S    6   1.00
   2068.8823000              0.0018663
    310.6495700              0.0142515
     70.6830330              0.0695516
     19.8610800              0.2325729
      6.2993048              0.4670787
      2.1270270              0.3634314
SP   3   1.00
      4.7279710             -0.1303938              0.0745976
      1.1903377             -0.1307889              0.3078467
      0.3594117              1.1309444              0.7434568
SP   1   1.00
      0.1267512              1.0000000              1.0000000
D    1   1.00
      0.8020000              1.0000000
D    1   1.00
      0.2005000              1.0000000
F    1   1.00
      0.5000000              1.0000000
****
C     0
S    6   1.00
   3047.5249000              0.0018347
    457.3695100              0.0140373
    103.9486900              0.0688426
     29.2101550              0.2321844
      9.2866630              0.4679413
      3.1639270              0.3623120
SP   3   1.00
      7.8682724             -0.1193324              0.0689991
      1.8812885             -0.1608542              0.3164240
      0.5442493              1.1434564              0.7443083
SP   1   1.00
      0.1687144              1.0000000              1.0000000
D    1   1.00
      1.2520000              1.0000000
D    1   1.00
      0.3130000              1.0000000
F    1   1.00
      0.8000000              1.0000000
****
N     0
S    6   1.00
   4173.5110000              0.0018348
    627.4579000              0.0139950
    142.9021000              0.0685870
     40.2343300              0.2322410
     12.8202100              0.4690700
      4.3904370              0.3604550
SP   3   1.00
     11.6263580             -0.1149610              0.0675800
      2.7162800             -0.1691180              0.3239070
      0.7722180              1.1458520              0.7408950
SP   1   1.00
      0.2120313              1.0000000              1.0000000
D    1   1.00
      1.8260000              1.0000000
D    1   1.00
      0.4565000              1.0000000
F    1   1.00
      1.0000000              1.0000000
****
O     0
S    6   1.00
   5484.6717000              0.0018311
    825.2349500              0.0139501
    188.0469600              0.0684451
     52.9645000              0.2327143
     16.8975700              0.4701930
      5.7996353              0.3585209
SP   3   1.00
     15.5396160             -0.1107775              0.0708743
      3.5999336             -0.1480263              0.3397528
      1.0137618              1.1307670              0.7271586
SP   1   1.00
      0.2700058              1.0000000              1.0000000
D    1   1.00
      2.5840000              1.0000000
D    1   1.00
      0.6460000              1.0000000
F    1   1.00
      1.4000000              1.0000000
****
F     0
S    6   1.00
   7001.7130900              0.0018196169
   1051.3660900              0.0139160796
    239.2856900              0.0684053245
     67.3974453              0.233185760
     21.5199573              0.471267439
      7.40310130             0.356618546
SP   3   1.00
     20.8479528             -0.108506975            0.0716287243
      4.80830834            -0.146451658            0.3459121030
      1.34406986             1.128688580            0.7224699570
SP   1   1.00
      0.358151393            1.0000000              1.0000000
D    1   1.00
      3.5000000              1.0000000
D    1   1.00
      0.8750000              1.0000000
F    1   1.00
      1.8500000              1.0000000
****
Al     0
S    6   1.00
  13983.1000000              0.00194267
   2098.7500000              0.0148599
    477.7050000              0.0728494
    134.3600000              0.2468300
     42.8709000              0.4872580
     14.5189000              0.3234960
SP   6   1.00
    239.6680000             -0.00292619             0.00460285
     57.4419000             -0.0374080              0.0331990
     18.2859000             -0.1144870              0.1362820
      6.5991400              0.1156350              0.3304760
      2.4904900              0.6125950              0.4491460
      0.9445400              0.3937990              0.2657040
SP   3   1.00
      1.2779000             -0.2276060             -0.0175130
      0.3975900              0.00144583             0.2445330
      0.1600950              1.0927900              0.8049340
SP   1   1.00
      0.0556577              1.0000000              1.0000000
D    1   1.00
      0.6500000              1.0000000
D    1   1.00
      0.1625000              1.0000000
F    1   1.00
      0.2500000              1.0000000
****
Si     0
S    6   1.00
  16115.9000000              0.00195948
   2425.5800000              0.01492880
    553.8670000              0.07284780
    156.3400000              0.24613000
     50.0683000              0.48591400
     17.0178000              0.32500200
SP   6   1.00
    292.7180000             -0.00278094             0.00443826
     69.8731000             -0.03571460             0.03266790
     22.3363000             -0.11498500             0.13472100
      8.1503900              0.09356340             0.32867800
      3.1345800              0.60301700             0.44964000
      1.2254300              0.41895900             0.26137200
SP   3   1.00
      1.7273800             -0.24463000            -0.01779510
      0.5729220              0.00431572             0.25353900
      0.2221920              1.09818000             0.80066900
SP   1   1.00
      0.0778369              1.00000000             1.00000000
D    1   1.00
      0.9000000              1.0000000
D    1   1.00
      0.2250000              1.0000000
F    1   1.00
      0.3200000              1.0000000
****
P     0
S    6   1.00
  19413.3000000              0.0018516
   2909.4200000              0.0142062
    661.3640000              0.0699995
    185.7590000              0.2400790
     59.1943000              0.4847620
     20.0310000              0.3352000
SP   6   1.00
    339.4780000             -0.00278217             0.00456462
     81.0101000             -0.0360499              0.03369360
     25.8780000             -0.1166310              0.13975500
      9.4522100              0.0968328              0.33936200
      3.6656600              0.6144180              0.45092100
      1.4674600              0.4037980              0.23858600
SP   3   1.00
      2.1562300             -0.2529230             -0.01776530
      0.7489970              0.0328517              0.27405800
      0.2831450              1.0812500              0.78542100
SP   1   1.00
      0.0998317              1.0000000              1.00000000
D    1   1.00
      1.1000000              1.0000000
D    1   1.00
      0.2750000              1.0000000
F    1   1.00
      0.4500000              1.0000000
****
S     0
S    6   1.00
  21917.1000000              0.0018690
   3301.4900000              0.0142300
    754.1460000              0.0696960
    212.7110000              0.2384870
     67.9896000              0.4833070
     23.0515000              0.3380740
SP   6   1.00
    423.7350000             -0.0023767              0.0040610
    100.7100000             -0.0316930              0.0306810
     32.1599000             -0.1133170              0.1304520
     11.8079000              0.0560900              0.3272050
      4.6311000              0.5922550              0.4528510
      1.8702500              0.4550060              0.2560420
SP   3   1.00
      2.6158400             -0.2503740             -0.0145110
      0.9221670              0.0669570              0.3102630
      0.3412870              1.0545100              0.7544830
SP   1   1.00
      0.1171670              1.0000000              1.0000000
D    1   1.00
      1.3000000              1.0000000
D    1   1.00
      0.3250000              1.0000000
F    1   1.00
      0.5500000              1.0000000
****
Cl     0
S    6   1.00
  25180.1000000              0.0018330
   3780.3500000              0.0140340
    860.4740000              0.0690970
    242.1450000              0.2374520
     77.3349000              0.4830340
     26.2470000              0.3398560
SP   6   1.00
    491.7650000             -0.0022974              0.0039894
    116.9840000             -0.0307140              0.0303180
     37.4153000             -0.1125280              0.1298800
     13.7834000              0.0450160              0.3279510
      5.4521500              0.5893530              0.4535270
      2.2258800              0.4652060              0.2521540
SP   3   1.00
      3.1864900             -0.2518300             -0.0142990
      1.1442700              0.0615890              0.3235720
      0.4203770              1.0601800              0.7435070
SP   1   1.00
      0.1426570              1.0000000              1.0000000
D    1   1.00
      1.5000000              1.0000000
D    1   1.00
      0.3750000              1.0000000
F    1   1.00
      0.7000000              1.0000000
****
}

set {
reference uhf
freeze_core true
e_convergence 10
d_convergence 10
dft_spherical_points 1202
dft_radial_points 99
}

e = energy('b3lyp')

print_out('Grab this energy {0}'.format(e))
--------------------------------------------------------------------------

    Molecular point group: c1

    Geometry (in Bohr), charge = 0, multiplicity = 2:

       Center              X                  Y                   Z               Mass
    ------------   -----------------  -----------------  -----------------  -----------------
         C           -0.323339985031    -0.000001297834    -0.000020972530    12.000000000000
         C            0.060870836469    -1.400687950634    -2.427050504430    12.000000000000
         C            0.061023538469     2.801759350766     0.001901254670    12.000000000000
         C            0.061407136769    -1.401066451334     2.425711288870    12.000000000000
         H            2.087726089269    -1.643355288434    -2.848314286330     1.007825032230
         H           -0.764948543731    -0.389432810034    -4.025317384630     1.007825032230
         H           -0.766633897631    -3.291893778934    -2.349715333530     1.007825032230
         H            2.086799062169     3.288101771166     0.005643295470     1.007825032230
         H           -0.760083052331     3.678832007566     1.671892627970     1.007825032230
         H           -0.771219344631     3.681656755766    -1.681105193730     1.007825032230
         H            2.086146958069    -1.644842755234     2.846567828770     1.007825032230
         H           -0.764510050331    -3.292103632034     2.348260398870     1.007825032230
         H           -0.765863110131    -0.387005741234     4.025645660070     1.007825032230

  Charge       = 0
  Multiplicity = 2
  Basis Set: ANONYMOUS5E6E76BA
    Blend: 6-31G_2DFP_
  Basis Set: (ANONYMOUS5E6E76BA AUX)
    Blend: DEF2-UNIVERSAL-JKFIT

    Orbital Energies [Eh]
    ---------------------

    Alpha Occupied:

       1A    -10.180342     2A    -10.167034     3A    -10.167027
       4A    -10.166984     5A     -0.797767     6A     -0.686249
       7A     -0.686129     8A     -0.530780     9A     -0.441126
      10A     -0.434857    11A     -0.434483    12A     -0.382622
      13A     -0.382576    14A     -0.363611    15A     -0.338160
      16A     -0.337836    17A     -0.168961

    Alpha Virtual:

      18A      0.076069    19A      0.134029    20A      0.134257
      21A      0.142430    22A      0.142839    23A      0.154881
      24A      0.178687    25A      0.178874    26A      0.203545
      27A      0.214806    28A      0.275876    29A      0.276096
      30A      0.398981    31A      0.399474    32A      0.403345
      33A      0.423934    34A      0.424259    35A      0.456591
      36A      0.495340    37A      0.495441    38A      0.512160
      39A      0.513980    40A      0.578759    41A      0.578875
      42A      0.591489    43A      0.591775    44A      0.602569
      45A      0.624673    46A      0.631821    47A      0.635983
      48A      0.636550    49A      0.663202    50A      0.663623
      51A      0.683671    52A      0.684072    53A      0.734994
      54A      0.825155    55A      0.825658    56A      0.853915
      57A      0.914812    58A      0.915241    59A      0.944099
      60A      0.944634    61A      0.961207    62A      0.961376
      63A      1.003458    64A      1.127833    65A      1.128397
      66A      1.142218    67A      1.163208    68A      1.163329
      69A      1.223320    70A      1.274245    71A      1.274734
      72A      1.279353    73A      1.324127    74A      1.324548
      75A      1.355982    76A      1.365752    77A      1.366354
      78A      1.392461    79A      1.404004    80A      1.404094
      81A      1.416418    82A      1.417820    83A      1.427902
      84A      1.491461    85A      1.499095    86A      1.542809
      87A      1.542853    88A      1.574250    89A      1.574658
      90A      1.669842    91A      1.738698    92A      1.740111
      93A      1.768318    94A      1.830621    95A      1.832170
      96A      1.971726    97A      2.017669    98A      2.018842
      99A      2.019916   100A      2.052125   101A      2.053186
     102A      2.738301   103A      2.738664   104A      2.790922
     105A      2.811429   106A      2.889803   107A      2.890103
     108A      2.894937   109A      2.929471   110A      2.929521
     111A      2.958960   112A      2.964345   113A      2.964463
     114A      3.033996   115A      3.070715   116A      3.071804
     117A      3.084454   118A      3.168365   119A      3.169197
     120A      3.180595   121A      3.285142   122A      3.285462
     123A      3.326791   124A      3.327556   125A      3.375625
     126A      3.489892   127A      3.490448   128A      3.514007
     129A      3.525338   130A      3.567955   131A      3.568828
     132A      3.575113   133A      3.665911   134A      3.666885
     135A      3.679660   136A      3.693896   137A      3.694370
     138A      3.776685   139A      3.776906   140A      3.789125
     141A      3.911648   142A      3.912807   143A      4.034435
     144A      4.110735   145A      4.111806   146A      4.147844
     147A      4.148420   148A      4.173213   149A      4.202259
     150A      4.202619   151A      4.203847   152A      4.211137
     153A      4.315304   154A      4.316621   155A      4.358969
     156A      4.423922   157A      4.425006   158A      4.443461
     159A      4.515797   160A      4.517889   161A      4.578258
     162A      4.578283   163A      4.617548   164A      4.709433
     165A      4.773631   166A      4.775603   167A      4.836907
     168A      4.962878   169A      5.002595   170A      5.003335
     171A      5.227566   172A      5.246769   173A      5.247116
     174A      5.354341   175A      5.356869   176A      5.479446

    Beta Occupied:

       1A    -10.167787     2A    -10.167780     3A    -10.167757
       4A    -10.166520     5A     -0.781092     6A     -0.684054
       7A     -0.683930     8A     -0.511752     9A     -0.431230
      10A     -0.430855    11A     -0.421820    12A     -0.376703
      13A     -0.376666    14A     -0.362595    15A     -0.333279
      16A     -0.332963

    Beta Virtual:

      17A     -0.025743    18A      0.077078    19A      0.134894
      20A      0.135172    21A      0.144273    22A      0.144737
      23A      0.163339    24A      0.182359    25A      0.182544
      26A      0.215029    27A      0.218935    28A      0.282225
      29A      0.282443    30A      0.400147    31A      0.400648
      32A      0.419791    33A      0.426745    34A      0.427070
      35A      0.468499    36A      0.497595    37A      0.497707
      38A      0.513896    39A      0.556324    40A      0.584310
      41A      0.584423    42A      0.597644    43A      0.597976
      44A      0.609992    45A      0.628022    46A      0.632009
      47A      0.639289    48A      0.639813    49A      0.666782
      50A      0.667173    51A      0.686328    52A      0.686683
      53A      0.757518    54A      0.830335    55A      0.830814
      56A      0.855268    57A      0.922803    58A      0.923192
      59A      0.945958    60A      0.953537    61A      0.966496
      62A      0.966700    63A      1.008699    64A      1.131866
      65A      1.132421    66A      1.155596    67A      1.168285
      68A      1.168397    69A      1.232293    70A      1.279824
      71A      1.280348    72A      1.285107    73A      1.329116
      74A      1.329535    75A      1.365397    76A      1.371058
      77A      1.371535    78A      1.393522    79A      1.407451
      80A      1.407577    81A      1.421519    82A      1.422820
      83A      1.428171    84A      1.492524    85A      1.509525
      86A      1.547192    87A      1.547291    88A      1.582118
      89A      1.582527    90A      1.674688    91A      1.744446
      92A      1.745888    93A      1.779096    94A      1.834472
      95A      1.836030    96A      1.972600    97A      2.024870
      98A      2.025990    99A      2.039718   100A      2.058834
     101A      2.059920   102A      2.746625   103A      2.747011
     104A      2.811837   105A      2.816063   106A      2.902448
     107A      2.902833   108A      2.924646   109A      2.931953
     110A      2.931999   111A      2.960037   112A      2.968876
     113A      2.969007   114A      3.041927   115A      3.080566
     116A      3.081646   117A      3.086405   118A      3.184146
     119A      3.184909   120A      3.188281   121A      3.289930
     122A      3.290272   123A      3.330562   124A      3.331394
     125A      3.383443   126A      3.492636   127A      3.493166
     128A      3.512375   129A      3.528379   130A      3.574979
     131A      3.581215   132A      3.582246   133A      3.670789
     134A      3.671499   135A      3.692962   136A      3.725711
     137A      3.725811   138A      3.781181   139A      3.781466
     140A      3.817665   141A      3.921397   142A      3.922690
     143A      4.045323   144A      4.117339   145A      4.118827
     146A      4.154837   147A      4.155876   148A      4.187203
     149A      4.208219   150A      4.209722   151A      4.210588
     152A      4.215695   153A      4.322790   154A      4.324023
     155A      4.362331   156A      4.432155   157A      4.433198
     158A      4.446345   159A      4.523579   160A      4.525686
     161A      4.588835   162A      4.588909   163A      4.624740
     164A      4.719776   165A      4.780612   166A      4.782530
     167A      4.839824   168A      4.967673   169A      5.006636
     170A      5.007372   171A      5.233175   172A      5.248566
     173A      5.249009   174A      5.360826   175A      5.363330
     176A      5.481768

    Final Occupation by Irrep:
              A
    DOCC [    16 ]
    SOCC [     1 ]

  @DF-UKS Final Energy:  -157.81304870371591

   => Energetics <=

    Nuclear Repulsion Energy =            125.3946753473620390
    One-Electron Energy =                -458.7489524188282530
    Two-Electron Energy =                 195.8483779291942426
    DFT Exchange-Correlation Energy =     -20.3071495614439641
    Empirical Dispersion Energy =           0.0000000000000000
    VV10 Nonlocal Energy =                  0.0000000000000000
    Total Energy =                       -157.8130487037159071

  UHF NO Occupations:
  HONO-2 :   15  A 1.9996009
  HONO-1 :   16  A 1.9989805
  HONO-0 :   17  A 1.0000000
  LUNO+0 :   18  A 0.0010195
  LUNO+1 :   19  A 0.0003991
  LUNO+2 :   20  A 0.0001976
  LUNO+3 :   21  A 0.0001975

Computation Completed

Properties will be evaluated at   0.000000,   0.000000,   0.000000 [a0]

Properties computed using the SCF density matrix

  Nuclear Dipole Moment: [e a0]
     X:     0.8272      Y:    -0.0000      Z:    -0.0032

  Electronic Dipole Moment: [e a0]
     X:    -0.7493      Y:     0.0000      Z:     0.0049

  Dipole Moment: [e a0]
     X:     0.0779      Y:    -0.0000      Z:     0.0017     Total:     0.0779

  Dipole Moment: [D]
     X:     0.1980      Y:    -0.0000      Z:     0.0044     Total:     0.1981

*** tstop() called on n031 at Fri Nov  5 14:33:08 2021
Module time:
	user time   =     841.06 seconds =      14.02 minutes
	system time =      16.90 seconds =       0.28 minutes
	total time  =        215 seconds =       3.58 minutes
Total time:
	user time   =     841.06 seconds =      14.02 minutes
	system time =      16.90 seconds =       0.28 minutes
	total time  =        215 seconds =       3.58 minutes
Grab this energy -157.8130487037159
    Psi4 stopped on: Friday, 05 November 2021 02:33PM
    Psi4 wall time for execution: 0:03:35.43

*** Psi4 exiting successfully. Buy a developer a beer!
