                               Psi4 1.4a2.dev629

  ==> Input File <==

--------------------------------------------------------------------------
import os
memory 14 GB

molecule {
 C   -0.3215601025   -0.0000011992    0.0004335273
 C    0.0614312865   -1.4013957354   -2.4258892350
 C    0.0615802238    2.8015021184    0.0013898894
 C    0.0619665846   -1.4001005430    2.4264258375
 H    2.0873928935   -1.6486250188   -2.8517847182
 H   -0.7677190859   -0.3860613371   -4.0236651619
 H   -0.7646761154   -3.2889865582   -2.3466282619
 H    2.0864638663    3.2941353452    0.0034963540
 H   -0.7628489344    3.6761289050    1.6746681947
 H   -0.7692629745    3.6779176609   -1.6794506069
 H    2.0858126884   -1.6456032601    2.8535443056
 H   -0.7672799381   -3.2927513486    2.3451928665
 H   -0.7639082687   -0.3861833428    4.0222670090
units bohr
0 2
}

basis {

assign 6-31g_2dfp_

[ 6-31g_2dfp_ ]

spherical

!----------------------------------------------------------------------
! Basis Set Exchange
! Version v0.8.13
! https://www.basissetexchange.org
!----------------------------------------------------------------------
!   Basis set: 6-31G(2df,p)
! Description: 6-31G(2df,p)
!        Role: orbital
!     Version: 0  (Data from the original Basis Set Exchange)
!----------------------------------------------------------------------

****
H     0
S    3   1.00
     18.7311370              0.03349460
      2.8253937              0.23472695
      0.6401217              0.81375733
S    1   1.00
      0.1612778              1.00000000
P    1   1.00
      1.5000000              1.0000000
P    1   1.00
      0.3750000              1.0000000
****
B     0
S    6   1.00
   2068.8823000              0.0018663
    310.6495700              0.0142515
     70.6830330              0.0695516
     19.8610800              0.2325729
      6.2993048              0.4670787
      2.1270270              0.3634314
SP   3   1.00
      4.7279710             -0.1303938              0.0745976
      1.1903377             -0.1307889              0.3078467
      0.3594117              1.1309444              0.7434568
SP   1   1.00
      0.1267512              1.0000000              1.0000000
D    1   1.00
      0.8020000              1.0000000
D    1   1.00
      0.2005000              1.0000000
F    1   1.00
      0.5000000              1.0000000
****
C     0
S    6   1.00
   3047.5249000              0.0018347
    457.3695100              0.0140373
    103.9486900              0.0688426
     29.2101550              0.2321844
      9.2866630              0.4679413
      3.1639270              0.3623120
SP   3   1.00
      7.8682724             -0.1193324              0.0689991
      1.8812885             -0.1608542              0.3164240
      0.5442493              1.1434564              0.7443083
SP   1   1.00
      0.1687144              1.0000000              1.0000000
D    1   1.00
      1.2520000              1.0000000
D    1   1.00
      0.3130000              1.0000000
F    1   1.00
      0.8000000              1.0000000
****
N     0
S    6   1.00
   4173.5110000              0.0018348
    627.4579000              0.0139950
    142.9021000              0.0685870
     40.2343300              0.2322410
     12.8202100              0.4690700
      4.3904370              0.3604550
SP   3   1.00
     11.6263580             -0.1149610              0.0675800
      2.7162800             -0.1691180              0.3239070
      0.7722180              1.1458520              0.7408950
SP   1   1.00
      0.2120313              1.0000000              1.0000000
D    1   1.00
      1.8260000              1.0000000
D    1   1.00
      0.4565000              1.0000000
F    1   1.00
      1.0000000              1.0000000
****
O     0
S    6   1.00
   5484.6717000              0.0018311
    825.2349500              0.0139501
    188.0469600              0.0684451
     52.9645000              0.2327143
     16.8975700              0.4701930
      5.7996353              0.3585209
SP   3   1.00
     15.5396160             -0.1107775              0.0708743
      3.5999336             -0.1480263              0.3397528
      1.0137618              1.1307670              0.7271586
SP   1   1.00
      0.2700058              1.0000000              1.0000000
D    1   1.00
      2.5840000              1.0000000
D    1   1.00
      0.6460000              1.0000000
F    1   1.00
      1.4000000              1.0000000
****
F     0
S    6   1.00
   7001.7130900              0.0018196169
   1051.3660900              0.0139160796
    239.2856900              0.0684053245
     67.3974453              0.233185760
     21.5199573              0.471267439
      7.40310130             0.356618546
SP   3   1.00
     20.8479528             -0.108506975            0.0716287243
      4.80830834            -0.146451658            0.3459121030
      1.34406986             1.128688580            0.7224699570
SP   1   1.00
      0.358151393            1.0000000              1.0000000
D    1   1.00
      3.5000000              1.0000000
D    1   1.00
      0.8750000              1.0000000
F    1   1.00
      1.8500000              1.0000000
****
Al     0
S    6   1.00
  13983.1000000              0.00194267
   2098.7500000              0.0148599
    477.7050000              0.0728494
    134.3600000              0.2468300
     42.8709000              0.4872580
     14.5189000              0.3234960
SP   6   1.00
    239.6680000             -0.00292619             0.00460285
     57.4419000             -0.0374080              0.0331990
     18.2859000             -0.1144870              0.1362820
      6.5991400              0.1156350              0.3304760
      2.4904900              0.6125950              0.4491460
      0.9445400              0.3937990              0.2657040
SP   3   1.00
      1.2779000             -0.2276060             -0.0175130
      0.3975900              0.00144583             0.2445330
      0.1600950              1.0927900              0.8049340
SP   1   1.00
      0.0556577              1.0000000              1.0000000
D    1   1.00
      0.6500000              1.0000000
D    1   1.00
      0.1625000              1.0000000
F    1   1.00
      0.2500000              1.0000000
****
Si     0
S    6   1.00
  16115.9000000              0.00195948
   2425.5800000              0.01492880
    553.8670000              0.07284780
    156.3400000              0.24613000
     50.0683000              0.48591400
     17.0178000              0.32500200
SP   6   1.00
    292.7180000             -0.00278094             0.00443826
     69.8731000             -0.03571460             0.03266790
     22.3363000             -0.11498500             0.13472100
      8.1503900              0.09356340             0.32867800
      3.1345800              0.60301700             0.44964000
      1.2254300              0.41895900             0.26137200
SP   3   1.00
      1.7273800             -0.24463000            -0.01779510
      0.5729220              0.00431572             0.25353900
      0.2221920              1.09818000             0.80066900
SP   1   1.00
      0.0778369              1.00000000             1.00000000
D    1   1.00
      0.9000000              1.0000000
D    1   1.00
      0.2250000              1.0000000
F    1   1.00
      0.3200000              1.0000000
****
P     0
S    6   1.00
  19413.3000000              0.0018516
   2909.4200000              0.0142062
    661.3640000              0.0699995
    185.7590000              0.2400790
     59.1943000              0.4847620
     20.0310000              0.3352000
SP   6   1.00
    339.4780000             -0.00278217             0.00456462
     81.0101000             -0.0360499              0.03369360
     25.8780000             -0.1166310              0.13975500
      9.4522100              0.0968328              0.33936200
      3.6656600              0.6144180              0.45092100
      1.4674600              0.4037980              0.23858600
SP   3   1.00
      2.1562300             -0.2529230             -0.01776530
      0.7489970              0.0328517              0.27405800
      0.2831450              1.0812500              0.78542100
SP   1   1.00
      0.0998317              1.0000000              1.00000000
D    1   1.00
      1.1000000              1.0000000
D    1   1.00
      0.2750000              1.0000000
F    1   1.00
      0.4500000              1.0000000
****
S     0
S    6   1.00
  21917.1000000              0.0018690
   3301.4900000              0.0142300
    754.1460000              0.0696960
    212.7110000              0.2384870
     67.9896000              0.4833070
     23.0515000              0.3380740
SP   6   1.00
    423.7350000             -0.0023767              0.0040610
    100.7100000             -0.0316930              0.0306810
     32.1599000             -0.1133170              0.1304520
     11.8079000              0.0560900              0.3272050
      4.6311000              0.5922550              0.4528510
      1.8702500              0.4550060              0.2560420
SP   3   1.00
      2.6158400             -0.2503740             -0.0145110
      0.9221670              0.0669570              0.3102630
      0.3412870              1.0545100              0.7544830
SP   1   1.00
      0.1171670              1.0000000              1.0000000
D    1   1.00
      1.3000000              1.0000000
D    1   1.00
      0.3250000              1.0000000
F    1   1.00
      0.5500000              1.0000000
****
Cl     0
S    6   1.00
  25180.1000000              0.0018330
   3780.3500000              0.0140340
    860.4740000              0.0690970
    242.1450000              0.2374520
     77.3349000              0.4830340
     26.2470000              0.3398560
SP   6   1.00
    491.7650000             -0.0022974              0.0039894
    116.9840000             -0.0307140              0.0303180
     37.4153000             -0.1125280              0.1298800
     13.7834000              0.0450160              0.3279510
      5.4521500              0.5893530              0.4535270
      2.2258800              0.4652060              0.2521540
SP   3   1.00
      3.1864900             -0.2518300             -0.0142990
      1.1442700              0.0615890              0.3235720
      0.4203770              1.0601800              0.7435070
SP   1   1.00
      0.1426570              1.0000000              1.0000000
D    1   1.00
      1.5000000              1.0000000
D    1   1.00
      0.3750000              1.0000000
F    1   1.00
      0.7000000              1.0000000
****
}

set {
reference uhf
freeze_core true
e_convergence 10
d_convergence 10
dft_spherical_points 1202
dft_radial_points 99
}

e = energy('b3lyp')

print_out('Grab this energy {0}'.format(e))
--------------------------------------------------------------------------

    Molecular point group: c1

    Geometry (in Bohr), charge = 0, multiplicity = 2:

       Center              X                  Y                   Z               Mass
    ------------   -----------------  -----------------  -----------------  -----------------
         C           -0.322226133829    -0.000001663688    -0.000021029398    12.000000000000
         C            0.060765255171    -1.401396199888    -2.426343791698    12.000000000000
         C            0.060914192471     2.801501653912     0.000935332702    12.000000000000
         C            0.061300553271    -1.400101007488     2.425971280802    12.000000000000
         H            2.086726862171    -1.648625483288    -2.852239274898     1.007825032230
         H           -0.768385117229    -0.386061801588    -4.024119718598     1.007825032230
         H           -0.765342146729    -3.288987022688    -2.347082818598     1.007825032230
         H            2.085797834971     3.294134880712     0.003041797302     1.007825032230
         H           -0.763514965729     3.676128440512     1.674213638002     1.007825032230
         H           -0.769929005829     3.677917196412    -1.679905163598     1.007825032230
         H            2.085146657071    -1.645603724588     2.853089748902     1.007825032230
         H           -0.767945969429    -3.292751813088     2.344738309802     1.007825032230
         H           -0.764574300029    -0.386183807288     4.021812452302     1.007825032230

  Charge       = 0
  Multiplicity = 2
  Basis Set: ANONYMOUS38013286
    Blend: 6-31G_2DFP_
  Basis Set: (ANONYMOUS38013286 AUX)
    Blend: DEF2-UNIVERSAL-JKFIT

    Orbital Energies [Eh]
    ---------------------

    Alpha Occupied:

       1A    -10.180330     2A    -10.166988     3A    -10.166980
       4A    -10.166937     5A     -0.797831     6A     -0.686286
       7A     -0.686165     8A     -0.530790     9A     -0.440956
      10A     -0.435069    11A     -0.434694    12A     -0.382471
      13A     -0.382424    14A     -0.363750    15A     -0.338183
      16A     -0.337857    17A     -0.169050

    Alpha Virtual:

      18A      0.076106    19A      0.133992    20A      0.134217
      21A      0.142493    22A      0.142896    23A      0.155087
      24A      0.178648    25A      0.178837    26A      0.203679
      27A      0.215025    28A      0.275915    29A      0.276135
      30A      0.399208    31A      0.399700    32A      0.403270
      33A      0.423782    34A      0.424107    35A      0.456829
      36A      0.495315    37A      0.495416    38A      0.511973
      39A      0.514037    40A      0.578901    41A      0.579026
      42A      0.591309    43A      0.591591    44A      0.602339
      45A      0.624780    46A      0.632021    47A      0.636083
      48A      0.636646    49A      0.663479    50A      0.663899
      51A      0.683574    52A      0.683978    53A      0.735077
      54A      0.825055    55A      0.825556    56A      0.854261
      57A      0.914959    58A      0.915388    59A      0.943809
      60A      0.944349    61A      0.960924    62A      0.961098
      63A      1.004180    64A      1.128291    65A      1.128849
      66A      1.141616    67A      1.163756    68A      1.163877
      69A      1.223253    70A      1.274218    71A      1.274707
      72A      1.279585    73A      1.324403    74A      1.324839
      75A      1.355574    76A      1.366087    77A      1.366679
      78A      1.392254    79A      1.403710    80A      1.403816
      81A      1.416258    82A      1.417682    83A      1.428516
      84A      1.492097    85A      1.498754    86A      1.542873
      87A      1.542927    88A      1.573628    89A      1.574043
      90A      1.669900    91A      1.738569    92A      1.739991
      93A      1.768178    94A      1.830892    95A      1.832440
      96A      1.971859    97A      2.017701    98A      2.019525
      99A      2.020648   100A      2.052591   101A      2.053649
     102A      2.737888   103A      2.738254   104A      2.791152
     105A      2.811942   106A      2.889962   107A      2.890263
     108A      2.895189   109A      2.929931   110A      2.929973
     111A      2.959023   112A      2.964393   113A      2.964510
     114A      3.034477   115A      3.070231   116A      3.071318
     117A      3.084084   118A      3.168300   119A      3.169129
     120A      3.180751   121A      3.284750   122A      3.285071
     123A      3.327884   124A      3.328647   125A      3.375334
     126A      3.489395   127A      3.489957   128A      3.514233
     129A      3.525493   130A      3.568495   131A      3.569358
     132A      3.575990   133A      3.665879   134A      3.666830
     135A      3.680724   136A      3.693390   137A      3.693839
     138A      3.777841   139A      3.778059   140A      3.787817
     141A      3.911759   142A      3.912913   143A      4.033338
     144A      4.110950   145A      4.111945   146A      4.147590
     147A      4.148131   148A      4.173273   149A      4.202288
     150A      4.203013   151A      4.204610   152A      4.211473
     153A      4.315649   154A      4.316942   155A      4.360118
     156A      4.423414   157A      4.424489   158A      4.444462
     159A      4.516624   160A      4.518690   161A      4.579242
     162A      4.579269   163A      4.618021   164A      4.709751
     165A      4.773977   166A      4.775955   167A      4.835902
     168A      4.963383   169A      5.002478   170A      5.003217
     171A      5.227938   172A      5.246700   173A      5.247215
     174A      5.354844   175A      5.357345   176A      5.479672

    Beta Occupied:

       1A    -10.167742     2A    -10.167734     3A    -10.167712
       4A    -10.166512     5A     -0.781160     6A     -0.684088
       7A     -0.683964     8A     -0.511758     9A     -0.431433
      10A     -0.431057    11A     -0.421656    12A     -0.376541
      13A     -0.376503    14A     -0.362728    15A     -0.333305
      16A     -0.332988

    Beta Virtual:

      17A     -0.025909    18A      0.077111    19A      0.134872
      20A      0.135148    21A      0.144346    22A      0.144806
      23A      0.163595    24A      0.182313    25A      0.182500
      26A      0.215257    27A      0.219023    28A      0.282253
      29A      0.282471    30A      0.400379    31A      0.400880
      32A      0.419737    33A      0.426588    34A      0.426912
      35A      0.468816    36A      0.497585    37A      0.497697
      38A      0.513713    39A      0.556297    40A      0.584476
      41A      0.584595    42A      0.597434    43A      0.597766
      44A      0.609783    45A      0.628162    46A      0.632183
      47A      0.639381    48A      0.639903    49A      0.667081
      50A      0.667471    51A      0.686213    52A      0.686571
      53A      0.757564    54A      0.830251    55A      0.830728
      56A      0.855616    57A      0.922996    58A      0.923386
      59A      0.946185    60A      0.952817    61A      0.966186
      62A      0.966396    63A      1.009450    64A      1.132326
      65A      1.132875    66A      1.154780    67A      1.168826
      68A      1.168938    69A      1.232324    70A      1.279816
      71A      1.280340    72A      1.285408    73A      1.329433
      74A      1.329866    75A      1.364931    76A      1.371385
      77A      1.371852    78A      1.393328    79A      1.407170
      80A      1.407316    81A      1.421305    82A      1.422631
      83A      1.428788    84A      1.493136    85A      1.509176
      86A      1.547248    87A      1.547359    88A      1.581507
      89A      1.581924    90A      1.674750    91A      1.744320
      92A      1.745770    93A      1.778971    94A      1.834740
      95A      1.836297    96A      1.972727    97A      2.025749
      98A      2.026869    99A      2.039500   100A      2.059284
     101A      2.060367   102A      2.746223   103A      2.746612
     104A      2.812359   105A      2.816292   106A      2.902540
     107A      2.902925   108A      2.924887   109A      2.932422
     110A      2.932471   111A      2.960102   112A      2.968961
     113A      2.969092   114A      3.042403   115A      3.080071
     116A      3.081151   117A      3.086025   118A      3.184073
     119A      3.184833   120A      3.188457   121A      3.289517
     122A      3.289855   123A      3.331632   124A      3.332458
     125A      3.383126   126A      3.492206   127A      3.492741
     128A      3.512605   129A      3.528501   130A      3.575838
     131A      3.581693   132A      3.582719   133A      3.670661
     134A      3.671363   135A      3.693974   136A      3.725357
     137A      3.725442   138A      3.782405   139A      3.782686
     140A      3.816379   141A      3.921460   142A      3.922748
     143A      4.044279   144A      4.117645   145A      4.119069
     146A      4.154496   147A      4.155497   148A      4.187276
     149A      4.208932   150A      4.210291   151A      4.210492
     152A      4.215993   153A      4.323149   154A      4.324360
     155A      4.363502   156A      4.431653   157A      4.432688
     158A      4.447323   159A      4.524395   160A      4.526473
     161A      4.589838   162A      4.589920   163A      4.625138
     164A      4.720200   165A      4.780945   166A      4.782868
     167A      4.838821   168A      4.968174   169A      5.006536
     170A      5.007271   171A      5.233528   172A      5.248495
     173A      5.249111   174A      5.361334   175A      5.363814
     176A      5.482000

    Final Occupation by Irrep:
              A
    DOCC [    16 ]
    SOCC [     1 ]

  @DF-UKS Final Energy:  -157.81306604871972

   => Energetics <=

    Nuclear Repulsion Energy =            125.4062553458039844
    One-Electron Energy =                -458.7715948518396090
    Two-Electron Energy =                 195.8597632376664137
    DFT Exchange-Correlation Energy =     -20.3074897803504868
    Empirical Dispersion Energy =           0.0000000000000000
    VV10 Nonlocal Energy =                  0.0000000000000000
    Total Energy =                       -157.8130660487197190

  UHF NO Occupations:
  HONO-2 :   15  A 1.9995995
  HONO-1 :   16  A 1.9989824
  HONO-0 :   17  A 1.0000000
  LUNO+0 :   18  A 0.0010176
  LUNO+1 :   19  A 0.0004005
  LUNO+2 :   20  A 0.0001973
  LUNO+3 :   21  A 0.0001972

Computation Completed

Properties will be evaluated at   0.000000,   0.000000,   0.000000 [a0]

Properties computed using the SCF density matrix

  Nuclear Dipole Moment: [e a0]
     X:     0.8225      Y:    -0.0000      Z:    -0.0032

  Electronic Dipole Moment: [e a0]
     X:    -0.7450      Y:     0.0000      Z:     0.0049

  Dipole Moment: [e a0]
     X:     0.0775      Y:    -0.0000      Z:     0.0017     Total:     0.0775

  Dipole Moment: [D]
     X:     0.1970      Y:    -0.0000      Z:     0.0044     Total:     0.1970

*** tstop() called on n061 at Fri Nov  5 14:36:15 2021
Module time:
	user time   =     517.06 seconds =       8.62 minutes
	system time =      11.36 seconds =       0.19 minutes
	total time  =        133 seconds =       2.22 minutes
Total time:
	user time   =     517.06 seconds =       8.62 minutes
	system time =      11.36 seconds =       0.19 minutes
	total time  =        133 seconds =       2.22 minutes
Grab this energy -157.81306604871972
    Psi4 stopped on: Friday, 05 November 2021 02:36PM
    Psi4 wall time for execution: 0:02:12.94

*** Psi4 exiting successfully. Buy a developer a beer!
