                               Psi4 1.4a2.dev629

  ==> Input File <==

--------------------------------------------------------------------------
import os
memory 14 GB

molecule {
 C   -0.3218896686   -0.0002505311    0.0000000000
 C    0.0597289803   -1.4008455133   -2.4265800914
 C    0.0612763339    2.8017283259   -0.0000000000
 C    0.0597289803   -1.4008455133    2.4265800914
 H    2.0853631198   -1.6411626694   -2.8455678301
 H   -0.7668975045   -0.3900021846   -4.0277950379
 H   -0.7653926997   -3.2927474182   -2.3490650479
 H    2.0900851876    3.2941595735   -0.0000000000
 H   -0.7638417606    3.6769269445    1.6764401018
 H   -0.7638417606    3.6769269445   -1.6764401018
 H    2.0853631198   -1.6411626694    2.8455678301
 H   -0.7653926997   -3.2927474182    2.3490650479
 H   -0.7668975045   -0.3900021846    4.0277950379
units bohr
0 2
}

basis {

assign 6-31g_2dfp_

[ 6-31g_2dfp_ ]

spherical

!----------------------------------------------------------------------
! Basis Set Exchange
! Version v0.8.13
! https://www.basissetexchange.org
!----------------------------------------------------------------------
!   Basis set: 6-31G(2df,p)
! Description: 6-31G(2df,p)
!        Role: orbital
!     Version: 0  (Data from the original Basis Set Exchange)
!----------------------------------------------------------------------

****
H     0
S    3   1.00
     18.7311370              0.03349460
      2.8253937              0.23472695
      0.6401217              0.81375733
S    1   1.00
      0.1612778              1.00000000
P    1   1.00
      1.5000000              1.0000000
P    1   1.00
      0.3750000              1.0000000
****
B     0
S    6   1.00
   2068.8823000              0.0018663
    310.6495700              0.0142515
     70.6830330              0.0695516
     19.8610800              0.2325729
      6.2993048              0.4670787
      2.1270270              0.3634314
SP   3   1.00
      4.7279710             -0.1303938              0.0745976
      1.1903377             -0.1307889              0.3078467
      0.3594117              1.1309444              0.7434568
SP   1   1.00
      0.1267512              1.0000000              1.0000000
D    1   1.00
      0.8020000              1.0000000
D    1   1.00
      0.2005000              1.0000000
F    1   1.00
      0.5000000              1.0000000
****
C     0
S    6   1.00
   3047.5249000              0.0018347
    457.3695100              0.0140373
    103.9486900              0.0688426
     29.2101550              0.2321844
      9.2866630              0.4679413
      3.1639270              0.3623120
SP   3   1.00
      7.8682724             -0.1193324              0.0689991
      1.8812885             -0.1608542              0.3164240
      0.5442493              1.1434564              0.7443083
SP   1   1.00
      0.1687144              1.0000000              1.0000000
D    1   1.00
      1.2520000              1.0000000
D    1   1.00
      0.3130000              1.0000000
F    1   1.00
      0.8000000              1.0000000
****
N     0
S    6   1.00
   4173.5110000              0.0018348
    627.4579000              0.0139950
    142.9021000              0.0685870
     40.2343300              0.2322410
     12.8202100              0.4690700
      4.3904370              0.3604550
SP   3   1.00
     11.6263580             -0.1149610              0.0675800
      2.7162800             -0.1691180              0.3239070
      0.7722180              1.1458520              0.7408950
SP   1   1.00
      0.2120313              1.0000000              1.0000000
D    1   1.00
      1.8260000              1.0000000
D    1   1.00
      0.4565000              1.0000000
F    1   1.00
      1.0000000              1.0000000
****
O     0
S    6   1.00
   5484.6717000              0.0018311
    825.2349500              0.0139501
    188.0469600              0.0684451
     52.9645000              0.2327143
     16.8975700              0.4701930
      5.7996353              0.3585209
SP   3   1.00
     15.5396160             -0.1107775              0.0708743
      3.5999336             -0.1480263              0.3397528
      1.0137618              1.1307670              0.7271586
SP   1   1.00
      0.2700058              1.0000000              1.0000000
D    1   1.00
      2.5840000              1.0000000
D    1   1.00
      0.6460000              1.0000000
F    1   1.00
      1.4000000              1.0000000
****
F     0
S    6   1.00
   7001.7130900              0.0018196169
   1051.3660900              0.0139160796
    239.2856900              0.0684053245
     67.3974453              0.233185760
     21.5199573              0.471267439
      7.40310130             0.356618546
SP   3   1.00
     20.8479528             -0.108506975            0.0716287243
      4.80830834            -0.146451658            0.3459121030
      1.34406986             1.128688580            0.7224699570
SP   1   1.00
      0.358151393            1.0000000              1.0000000
D    1   1.00
      3.5000000              1.0000000
D    1   1.00
      0.8750000              1.0000000
F    1   1.00
      1.8500000              1.0000000
****
Al     0
S    6   1.00
  13983.1000000              0.00194267
   2098.7500000              0.0148599
    477.7050000              0.0728494
    134.3600000              0.2468300
     42.8709000              0.4872580
     14.5189000              0.3234960
SP   6   1.00
    239.6680000             -0.00292619             0.00460285
     57.4419000             -0.0374080              0.0331990
     18.2859000             -0.1144870              0.1362820
      6.5991400              0.1156350              0.3304760
      2.4904900              0.6125950              0.4491460
      0.9445400              0.3937990              0.2657040
SP   3   1.00
      1.2779000             -0.2276060             -0.0175130
      0.3975900              0.00144583             0.2445330
      0.1600950              1.0927900              0.8049340
SP   1   1.00
      0.0556577              1.0000000              1.0000000
D    1   1.00
      0.6500000              1.0000000
D    1   1.00
      0.1625000              1.0000000
F    1   1.00
      0.2500000              1.0000000
****
Si     0
S    6   1.00
  16115.9000000              0.00195948
   2425.5800000              0.01492880
    553.8670000              0.07284780
    156.3400000              0.24613000
     50.0683000              0.48591400
     17.0178000              0.32500200
SP   6   1.00
    292.7180000             -0.00278094             0.00443826
     69.8731000             -0.03571460             0.03266790
     22.3363000             -0.11498500             0.13472100
      8.1503900              0.09356340             0.32867800
      3.1345800              0.60301700             0.44964000
      1.2254300              0.41895900             0.26137200
SP   3   1.00
      1.7273800             -0.24463000            -0.01779510
      0.5729220              0.00431572             0.25353900
      0.2221920              1.09818000             0.80066900
SP   1   1.00
      0.0778369              1.00000000             1.00000000
D    1   1.00
      0.9000000              1.0000000
D    1   1.00
      0.2250000              1.0000000
F    1   1.00
      0.3200000              1.0000000
****
P     0
S    6   1.00
  19413.3000000              0.0018516
   2909.4200000              0.0142062
    661.3640000              0.0699995
    185.7590000              0.2400790
     59.1943000              0.4847620
     20.0310000              0.3352000
SP   6   1.00
    339.4780000             -0.00278217             0.00456462
     81.0101000             -0.0360499              0.03369360
     25.8780000             -0.1166310              0.13975500
      9.4522100              0.0968328              0.33936200
      3.6656600              0.6144180              0.45092100
      1.4674600              0.4037980              0.23858600
SP   3   1.00
      2.1562300             -0.2529230             -0.01776530
      0.7489970              0.0328517              0.27405800
      0.2831450              1.0812500              0.78542100
SP   1   1.00
      0.0998317              1.0000000              1.00000000
D    1   1.00
      1.1000000              1.0000000
D    1   1.00
      0.2750000              1.0000000
F    1   1.00
      0.4500000              1.0000000
****
S     0
S    6   1.00
  21917.1000000              0.0018690
   3301.4900000              0.0142300
    754.1460000              0.0696960
    212.7110000              0.2384870
     67.9896000              0.4833070
     23.0515000              0.3380740
SP   6   1.00
    423.7350000             -0.0023767              0.0040610
    100.7100000             -0.0316930              0.0306810
     32.1599000             -0.1133170              0.1304520
     11.8079000              0.0560900              0.3272050
      4.6311000              0.5922550              0.4528510
      1.8702500              0.4550060              0.2560420
SP   3   1.00
      2.6158400             -0.2503740             -0.0145110
      0.9221670              0.0669570              0.3102630
      0.3412870              1.0545100              0.7544830
SP   1   1.00
      0.1171670              1.0000000              1.0000000
D    1   1.00
      1.3000000              1.0000000
D    1   1.00
      0.3250000              1.0000000
F    1   1.00
      0.5500000              1.0000000
****
Cl     0
S    6   1.00
  25180.1000000              0.0018330
   3780.3500000              0.0140340
    860.4740000              0.0690970
    242.1450000              0.2374520
     77.3349000              0.4830340
     26.2470000              0.3398560
SP   6   1.00
    491.7650000             -0.0022974              0.0039894
    116.9840000             -0.0307140              0.0303180
     37.4153000             -0.1125280              0.1298800
     13.7834000              0.0450160              0.3279510
      5.4521500              0.5893530              0.4535270
      2.2258800              0.4652060              0.2521540
SP   3   1.00
      3.1864900             -0.2518300             -0.0142990
      1.1442700              0.0615890              0.3235720
      0.4203770              1.0601800              0.7435070
SP   1   1.00
      0.1426570              1.0000000              1.0000000
D    1   1.00
      1.5000000              1.0000000
D    1   1.00
      0.3750000              1.0000000
F    1   1.00
      0.7000000              1.0000000
****
}

set {
reference uhf
freeze_core true
e_convergence 10
d_convergence 10
dft_spherical_points 1202
dft_radial_points 99
}

e = energy('b3lyp')

print_out('Grab this energy {0}'.format(e))
--------------------------------------------------------------------------

    Molecular point group: cs

    Geometry (in Bohr), charge = 0, multiplicity = 2:

       Center              X                  Y                   Z               Mass
    ------------   -----------------  -----------------  -----------------  -----------------
         C           -0.321674836599    -0.000209031756     0.000000000000    12.000000000000
         C            0.059943812301    -1.400804013956    -2.426580091400    12.000000000000
         C            0.061491165901     2.801769825244     0.000000000000    12.000000000000
         C            0.059943812301    -1.400804013956     2.426580091400    12.000000000000
         H            2.085577951801    -1.641121170056    -2.845567830100     1.007825032230
         H           -0.766682672499    -0.389960685256    -4.027795037900     1.007825032230
         H           -0.765177867699    -3.292705918856    -2.349065047900     1.007825032230
         H            2.090300019601     3.294201072844     0.000000000000     1.007825032230
         H           -0.763626928599     3.676968443844     1.676440101800     1.007825032230
         H           -0.763626928599     3.676968443844    -1.676440101800     1.007825032230
         H            2.085577951801    -1.641121170056     2.845567830100     1.007825032230
         H           -0.765177867699    -3.292705918856     2.349065047900     1.007825032230
         H           -0.766682672499    -0.389960685256     4.027795037900     1.007825032230

  Charge       = 0
  Multiplicity = 2
  Basis Set: ANONYMOUS1443954F
    Blend: 6-31G_2DFP_
  Basis Set: (ANONYMOUS1443954F AUX)
    Blend: DEF2-UNIVERSAL-JKFIT

    Orbital Energies [Eh]
    ---------------------

    Alpha Occupied:

       1Ap   -10.180277     1App  -10.167055     2Ap   -10.167035
       3Ap   -10.166980     4Ap    -0.797782     2App   -0.686233
       5Ap    -0.686176     6Ap    -0.530770     7Ap    -0.441068
       3App   -0.434822     8Ap    -0.434647     4App   -0.382716
       9Ap    -0.382266     5App   -0.363737     6App   -0.338243
      10Ap    -0.337938    11Ap    -0.168778

    Alpha Virtual:

      12Ap     0.076069    13Ap     0.134109     7App    0.134208
      14Ap     0.142445     8App    0.142857    15Ap     0.154800
      16Ap     0.178571     9App    0.178845    17Ap     0.203524
      10App    0.214850    18Ap     0.276138    11App    0.276179
      12App    0.399126    19Ap     0.399371    20Ap     0.403424
      13App    0.424023    21Ap     0.424228    22Ap     0.456501
      14App    0.495403    23Ap     0.495425    15App    0.512116
      24Ap     0.514080    16App    0.578565    25Ap     0.578801
      26Ap     0.591332    17App    0.591865    27Ap     0.602382
      28Ap     0.624844    18App    0.631811    29Ap     0.636186
      19App    0.636648    20App    0.663213    30Ap     0.663295
      21App    0.683849    31Ap     0.684074    32Ap     0.735189
      33Ap     0.825404    22App    0.825520    23App    0.853914
      34Ap     0.914771    24App    0.915405    25App    0.944062
      35Ap     0.944565    36Ap     0.961208    26App    0.961365
      37Ap     1.003451    27App    1.127616    38Ap     1.128414
      39Ap     1.142188    28App    1.162686    40Ap     1.163003
      41Ap     1.223488    29App    1.274452    42Ap     1.274642
      43Ap     1.279130    44Ap     1.324540    30App    1.324671
      45Ap     1.355739    31App    1.366427    46Ap     1.366446
      32App    1.392446    47Ap     1.403516    33App    1.404483
      48Ap     1.416528    34App    1.417201    35App    1.427874
      36App    1.491684    49Ap     1.498669    37App    1.542767
      50Ap     1.542810    51Ap     1.574245    38App    1.575228
      52Ap     1.670097    53Ap     1.739545    39App    1.739758
      54Ap     1.768273    40App    1.831353    55Ap     1.832221
      41App    1.971984    56Ap     2.018669    42App    2.018835
      57Ap     2.019307    58Ap     2.051791    43App    2.052706
      59Ap     2.738673    44App    2.738691    60Ap     2.790727
      45App    2.811460    46App    2.890045    61Ap     2.890327
      62Ap     2.894669    63Ap     2.929164    47App    2.929784
      48App    2.959057    49App    2.964321    64Ap     2.964658
      65Ap     3.033649    66Ap     3.071492    50App    3.072764
      51App    3.084424    52App    3.168439    67Ap     3.168891
      68Ap     3.180614    53App    3.284399    69Ap     3.284632
      54App    3.325939    70Ap     3.327684    71Ap     3.375449
      72Ap     3.489335    55App    3.491443    56App    3.514189
      73Ap     3.524872    57App    3.568428    74Ap     3.568768
      58App    3.574691    75Ap     3.666476    59App    3.667416
      76Ap     3.679885    77Ap     3.693397    60App    3.694699
      61App    3.777030    78Ap     3.777132    79Ap     3.790435
      62App    3.912126    80Ap     3.912378    81Ap     4.034760
      82Ap     4.111479    63App    4.111733    83Ap     4.148115
      64App    4.148176    84Ap     4.173284    65App    4.202443
      85Ap     4.202509    86Ap     4.203677    66App    4.210781
      87Ap     4.315563    67App    4.315962    68App    4.358494
      88Ap     4.424525    69App    4.424723    70App    4.443667
      89Ap     4.515874    71App    4.517179    72App    4.578156
      90Ap     4.578175    91Ap     4.618076    92Ap     4.709074
      93Ap     4.774178    73App    4.775328    74App    4.838105
      94Ap     4.962766    95Ap     5.002260    75App    5.003349
      96Ap     5.228174    97Ap     5.246370    76App    5.247466
      77App    5.355730    98Ap     5.355841    78App    5.479711

    Beta Occupied:

       1App  -10.167809     1Ap   -10.167795     2Ap   -10.167751
       3Ap   -10.166459     4Ap    -0.781103     2App   -0.684033
       5Ap    -0.683985     6Ap    -0.511750     3App   -0.431215
       7Ap    -0.431017     8Ap    -0.421735     4App   -0.376797
       9Ap    -0.376334     5App   -0.362722     6App   -0.333351
      10Ap    -0.333069

    Beta Virtual:

      11Ap    -0.025642    12Ap     0.077083    13Ap     0.135017
       7App    0.135101    14Ap     0.144335     8App    0.144703
      15Ap     0.163270    16Ap     0.182237     9App    0.182520
      10App    0.215079    17Ap     0.218928    18Ap     0.282469
      11App    0.282519    12App    0.400299    19Ap     0.400537
      20Ap     0.419898    13App    0.426830    21Ap     0.427039
      22Ap     0.468395    14App    0.497658    23Ap     0.497683
      15App    0.513856    24Ap     0.556425    16App    0.584123
      25Ap     0.584372    26Ap     0.597503    17App    0.598043
      27Ap     0.609826    28Ap     0.628198    18App    0.631975
      29Ap     0.639471    19App    0.639916    20App    0.666765
      30Ap     0.666865    21App    0.686506    31Ap     0.686699
      32Ap     0.757692    33Ap     0.830571    22App    0.830682
      23App    0.855271    34Ap     0.922760    24App    0.923340
      25App    0.945904    35Ap     0.953497    36Ap     0.966562
      26App    0.966689    37Ap     1.008672    27App    1.131681
      38Ap     1.132389    39Ap     1.155591    28App    1.167728
      40Ap     1.168120    41Ap     1.232463    29App    1.280047
      42Ap     1.280212    43Ap     1.284875    44Ap     1.329514
      30App    1.329658    45Ap     1.365168    31App    1.371656
      46Ap     1.371724    32App    1.393510    47Ap     1.406975
      33App    1.407956    48Ap     1.421605    34App    1.422253
      35App    1.428151    36App    1.492734    49Ap     1.509103
      37App    1.547079    50Ap     1.547323    51Ap     1.582026
      38App    1.583185    52Ap     1.674928    53Ap     1.745314
      39App    1.745518    54Ap     1.779072    40App    1.835221
      55Ap     1.836080    41App    1.972845    56Ap     2.025099
      42App    2.025223    57Ap     2.040668    58Ap     2.058476
      43App    2.059412    59Ap     2.746997    44App    2.747038
      45App    2.811864    60Ap     2.815882    46App    2.902665
      61Ap     2.903026    62Ap     2.924359    63Ap     2.931674
      47App    2.932264    48App    2.960125    49App    2.968851
      64Ap     2.969192    65Ap     3.041625    66Ap     3.081319
      50App    3.082676    51App    3.086246    52App    3.184291
      67Ap     3.184748    68Ap     3.188238    53App    3.289201
      69Ap     3.289506    54App    3.329744    70Ap     3.331471
      71Ap     3.383257    72Ap     3.492070    55App    3.494133
      56App    3.512549    73Ap     3.527909    57App    3.574280
      74Ap     3.581850    58App    3.582206    75Ap     3.671265
      59App    3.672165    76Ap     3.693175    77Ap     3.725276
      60App    3.726083    61App    3.781543    78Ap     3.781601
      79Ap     3.818974    62App    3.921975    80Ap     3.922237
      81Ap     4.045619    82Ap     4.118340    63App    4.118536
      83Ap     4.155227    64App    4.155453    84Ap     4.187383
      65App    4.208381    85Ap     4.208938    86Ap     4.211144
      66App    4.215275    87Ap     4.323011    67App    4.323354
      68App    4.361855    88Ap     4.432771    69App    4.432991
      70App    4.446546    89Ap     4.523690    71App    4.524980
      72App    4.588706    90Ap     4.588759    91Ap     4.625276
      92Ap     4.719393    93Ap     4.781089    73App    4.782296
      74App    4.841011    94Ap     4.967564    95Ap     5.006329
      75App    5.007387    96Ap     5.233889    97Ap     5.248155
      76App    5.249248    77App    5.362210    98Ap     5.362306
      78App    5.482026

    Final Occupation by Irrep:
             Ap   App
    DOCC [    10,    6 ]
    SOCC [     1,    0 ]

  @DF-UKS Final Energy:  -157.81307512244237

   => Energetics <=

    Nuclear Repulsion Energy =            125.3970310700313320
    One-Electron Energy =                -458.7535515018711862
    Two-Electron Energy =                 195.8506568233354983
    DFT Exchange-Correlation Energy =     -20.3072115139380323
    Empirical Dispersion Energy =           0.0000000000000000
    VV10 Nonlocal Energy =                  0.0000000000000000
    Total Energy =                       -157.8130751224423705

  UHF NO Occupations:
  HONO-2 :    9 Ap 1.9995994
  HONO-1 :   10 Ap 1.9989790
  HONO-0 :   11 Ap 1.0000000
  LUNO+0 :   12 Ap 0.0010210
  LUNO+1 :   13 Ap 0.0004006
  LUNO+2 :   14 Ap 0.0001976
  LUNO+3 :    7App 0.0001973

Computation Completed

Properties will be evaluated at   0.000000,   0.000000,   0.000000 [a0]

Properties computed using the SCF density matrix

  Nuclear Dipole Moment: [e a0]
     X:     0.8287      Y:     0.0003      Z:     0.0000

  Electronic Dipole Moment: [e a0]
     X:    -0.7516      Y:    -0.0011      Z:     0.0000

  Dipole Moment: [e a0]
     X:     0.0771      Y:    -0.0008      Z:     0.0000     Total:     0.0771

  Dipole Moment: [D]
     X:     0.1961      Y:    -0.0020      Z:     0.0000     Total:     0.1961

*** tstop() called on n089 at Fri Nov  5 11:38:16 2021
Module time:
	user time   =     584.44 seconds =       9.74 minutes
	system time =       5.59 seconds =       0.09 minutes
	total time  =        149 seconds =       2.48 minutes
Total time:
	user time   =     584.44 seconds =       9.74 minutes
	system time =       5.59 seconds =       0.09 minutes
	total time  =        149 seconds =       2.48 minutes
Grab this energy -157.81307512244237
    Psi4 stopped on: Friday, 05 November 2021 11:38AM
    Psi4 wall time for execution: 0:02:28.25

*** Psi4 exiting successfully. Buy a developer a beer!
