                               Psi4 1.4a2.dev629

  ==> Input File <==

--------------------------------------------------------------------------
import os
memory 14 GB

molecule {
 C   -0.3215615094   -0.0000023033    0.0004960803
 C    0.0628884988   -1.4008734127   -2.4259905143
 C    0.0615788447    2.8015011715    0.0003819635
 C    0.0605071064   -1.4006249722    2.4263241390
 H    2.0830281790   -1.6473957479   -2.8529722438
 H   -0.7647602640   -0.3837404466   -4.0245592166
 H   -0.7637247952   -3.2929469259   -2.3443973267
 H    2.0864636577    3.2941340487    0.0001792018
 H   -0.7648547839    3.6765638536    1.6767554724
 H   -0.7672548172    3.6774873419   -1.6773638286
 H    2.0901764898   -1.6468300204    2.8523494170
 H   -0.7682289620   -3.2887931261    2.3474248013
 H   -0.7668655214   -0.3885037741    4.0213720547
units bohr
0 2
}

basis {

assign 6-31g_2dfp_

[ 6-31g_2dfp_ ]

spherical

!----------------------------------------------------------------------
! Basis Set Exchange
! Version v0.8.13
! https://www.basissetexchange.org
!----------------------------------------------------------------------
!   Basis set: 6-31G(2df,p)
! Description: 6-31G(2df,p)
!        Role: orbital
!     Version: 0  (Data from the original Basis Set Exchange)
!----------------------------------------------------------------------

****
H     0
S    3   1.00
     18.7311370              0.03349460
      2.8253937              0.23472695
      0.6401217              0.81375733
S    1   1.00
      0.1612778              1.00000000
P    1   1.00
      1.5000000              1.0000000
P    1   1.00
      0.3750000              1.0000000
****
B     0
S    6   1.00
   2068.8823000              0.0018663
    310.6495700              0.0142515
     70.6830330              0.0695516
     19.8610800              0.2325729
      6.2993048              0.4670787
      2.1270270              0.3634314
SP   3   1.00
      4.7279710             -0.1303938              0.0745976
      1.1903377             -0.1307889              0.3078467
      0.3594117              1.1309444              0.7434568
SP   1   1.00
      0.1267512              1.0000000              1.0000000
D    1   1.00
      0.8020000              1.0000000
D    1   1.00
      0.2005000              1.0000000
F    1   1.00
      0.5000000              1.0000000
****
C     0
S    6   1.00
   3047.5249000              0.0018347
    457.3695100              0.0140373
    103.9486900              0.0688426
     29.2101550              0.2321844
      9.2866630              0.4679413
      3.1639270              0.3623120
SP   3   1.00
      7.8682724             -0.1193324              0.0689991
      1.8812885             -0.1608542              0.3164240
      0.5442493              1.1434564              0.7443083
SP   1   1.00
      0.1687144              1.0000000              1.0000000
D    1   1.00
      1.2520000              1.0000000
D    1   1.00
      0.3130000              1.0000000
F    1   1.00
      0.8000000              1.0000000
****
N     0
S    6   1.00
   4173.5110000              0.0018348
    627.4579000              0.0139950
    142.9021000              0.0685870
     40.2343300              0.2322410
     12.8202100              0.4690700
      4.3904370              0.3604550
SP   3   1.00
     11.6263580             -0.1149610              0.0675800
      2.7162800             -0.1691180              0.3239070
      0.7722180              1.1458520              0.7408950
SP   1   1.00
      0.2120313              1.0000000              1.0000000
D    1   1.00
      1.8260000              1.0000000
D    1   1.00
      0.4565000              1.0000000
F    1   1.00
      1.0000000              1.0000000
****
O     0
S    6   1.00
   5484.6717000              0.0018311
    825.2349500              0.0139501
    188.0469600              0.0684451
     52.9645000              0.2327143
     16.8975700              0.4701930
      5.7996353              0.3585209
SP   3   1.00
     15.5396160             -0.1107775              0.0708743
      3.5999336             -0.1480263              0.3397528
      1.0137618              1.1307670              0.7271586
SP   1   1.00
      0.2700058              1.0000000              1.0000000
D    1   1.00
      2.5840000              1.0000000
D    1   1.00
      0.6460000              1.0000000
F    1   1.00
      1.4000000              1.0000000
****
F     0
S    6   1.00
   7001.7130900              0.0018196169
   1051.3660900              0.0139160796
    239.2856900              0.0684053245
     67.3974453              0.233185760
     21.5199573              0.471267439
      7.40310130             0.356618546
SP   3   1.00
     20.8479528             -0.108506975            0.0716287243
      4.80830834            -0.146451658            0.3459121030
      1.34406986             1.128688580            0.7224699570
SP   1   1.00
      0.358151393            1.0000000              1.0000000
D    1   1.00
      3.5000000              1.0000000
D    1   1.00
      0.8750000              1.0000000
F    1   1.00
      1.8500000              1.0000000
****
Al     0
S    6   1.00
  13983.1000000              0.00194267
   2098.7500000              0.0148599
    477.7050000              0.0728494
    134.3600000              0.2468300
     42.8709000              0.4872580
     14.5189000              0.3234960
SP   6   1.00
    239.6680000             -0.00292619             0.00460285
     57.4419000             -0.0374080              0.0331990
     18.2859000             -0.1144870              0.1362820
      6.5991400              0.1156350              0.3304760
      2.4904900              0.6125950              0.4491460
      0.9445400              0.3937990              0.2657040
SP   3   1.00
      1.2779000             -0.2276060             -0.0175130
      0.3975900              0.00144583             0.2445330
      0.1600950              1.0927900              0.8049340
SP   1   1.00
      0.0556577              1.0000000              1.0000000
D    1   1.00
      0.6500000              1.0000000
D    1   1.00
      0.1625000              1.0000000
F    1   1.00
      0.2500000              1.0000000
****
Si     0
S    6   1.00
  16115.9000000              0.00195948
   2425.5800000              0.01492880
    553.8670000              0.07284780
    156.3400000              0.24613000
     50.0683000              0.48591400
     17.0178000              0.32500200
SP   6   1.00
    292.7180000             -0.00278094             0.00443826
     69.8731000             -0.03571460             0.03266790
     22.3363000             -0.11498500             0.13472100
      8.1503900              0.09356340             0.32867800
      3.1345800              0.60301700             0.44964000
      1.2254300              0.41895900             0.26137200
SP   3   1.00
      1.7273800             -0.24463000            -0.01779510
      0.5729220              0.00431572             0.25353900
      0.2221920              1.09818000             0.80066900
SP   1   1.00
      0.0778369              1.00000000             1.00000000
D    1   1.00
      0.9000000              1.0000000
D    1   1.00
      0.2250000              1.0000000
F    1   1.00
      0.3200000              1.0000000
****
P     0
S    6   1.00
  19413.3000000              0.0018516
   2909.4200000              0.0142062
    661.3640000              0.0699995
    185.7590000              0.2400790
     59.1943000              0.4847620
     20.0310000              0.3352000
SP   6   1.00
    339.4780000             -0.00278217             0.00456462
     81.0101000             -0.0360499              0.03369360
     25.8780000             -0.1166310              0.13975500
      9.4522100              0.0968328              0.33936200
      3.6656600              0.6144180              0.45092100
      1.4674600              0.4037980              0.23858600
SP   3   1.00
      2.1562300             -0.2529230             -0.01776530
      0.7489970              0.0328517              0.27405800
      0.2831450              1.0812500              0.78542100
SP   1   1.00
      0.0998317              1.0000000              1.00000000
D    1   1.00
      1.1000000              1.0000000
D    1   1.00
      0.2750000              1.0000000
F    1   1.00
      0.4500000              1.0000000
****
S     0
S    6   1.00
  21917.1000000              0.0018690
   3301.4900000              0.0142300
    754.1460000              0.0696960
    212.7110000              0.2384870
     67.9896000              0.4833070
     23.0515000              0.3380740
SP   6   1.00
    423.7350000             -0.0023767              0.0040610
    100.7100000             -0.0316930              0.0306810
     32.1599000             -0.1133170              0.1304520
     11.8079000              0.0560900              0.3272050
      4.6311000              0.5922550              0.4528510
      1.8702500              0.4550060              0.2560420
SP   3   1.00
      2.6158400             -0.2503740             -0.0145110
      0.9221670              0.0669570              0.3102630
      0.3412870              1.0545100              0.7544830
SP   1   1.00
      0.1171670              1.0000000              1.0000000
D    1   1.00
      1.3000000              1.0000000
D    1   1.00
      0.3250000              1.0000000
F    1   1.00
      0.5500000              1.0000000
****
Cl     0
S    6   1.00
  25180.1000000              0.0018330
   3780.3500000              0.0140340
    860.4740000              0.0690970
    242.1450000              0.2374520
     77.3349000              0.4830340
     26.2470000              0.3398560
SP   6   1.00
    491.7650000             -0.0022974              0.0039894
    116.9840000             -0.0307140              0.0303180
     37.4153000             -0.1125280              0.1298800
     13.7834000              0.0450160              0.3279510
      5.4521500              0.5893530              0.4535270
      2.2258800              0.4652060              0.2521540
SP   3   1.00
      3.1864900             -0.2518300             -0.0142990
      1.1442700              0.0615890              0.3235720
      0.4203770              1.0601800              0.7435070
SP   1   1.00
      0.1426570              1.0000000              1.0000000
D    1   1.00
      1.5000000              1.0000000
D    1   1.00
      0.3750000              1.0000000
F    1   1.00
      0.7000000              1.0000000
****
}

set {
reference uhf
freeze_core true
e_convergence 10
d_convergence 10
dft_spherical_points 1202
dft_radial_points 99
}

e = energy('b3lyp')

print_out('Grab this energy {0}'.format(e))
--------------------------------------------------------------------------

    Molecular point group: c1

    Geometry (in Bohr), charge = 0, multiplicity = 2:

       Center              X                  Y                   Z               Mass
    ------------   -----------------  -----------------  -----------------  -----------------
         C           -0.322226567691    -0.000001967027     0.000262704220    12.000000000000
         C            0.062223440509    -1.400873076427    -2.426223890380    12.000000000000
         C            0.060913786409     2.801501507773     0.000148587420    12.000000000000
         C            0.059842048109    -1.400624635927     2.426090762920    12.000000000000
         H            2.082363120709    -1.647395411627    -2.853205619880     1.007825032230
         H           -0.765425322291    -0.383740110327    -4.024792592680     1.007825032230
         H           -0.764389853491    -3.292946589627    -2.344630702780     1.007825032230
         H            2.085798599409     3.294134384973    -0.000054174280     1.007825032230
         H           -0.765519842191     3.676564189873     1.676522096320     1.007825032230
         H           -0.767919875491     3.677487678173    -1.677597204680     1.007825032230
         H            2.089511431509    -1.646829684127     2.852116040920     1.007825032230
         H           -0.768894020291    -3.288792789827     2.347191425220     1.007825032230
         H           -0.767530579691    -0.388503437827     4.021138678620     1.007825032230

  Charge       = 0
  Multiplicity = 2
  Basis Set: ANONYMOUS246CD4F2
    Blend: 6-31G_2DFP_
  Basis Set: (ANONYMOUS246CD4F2 AUX)
    Blend: DEF2-UNIVERSAL-JKFIT

    Orbital Energies [Eh]
    ---------------------

    Alpha Occupied:

       1A    -10.180330     2A    -10.166999     3A    -10.166975
       4A    -10.166931     5A     -0.797831     6A     -0.686226
       7A     -0.686225     8A     -0.530790     9A     -0.440956
      10A     -0.434905    11A     -0.434859    12A     -0.382470
      13A     -0.382423    14A     -0.363749    15A     -0.338054
      16A     -0.337988    17A     -0.169051

    Alpha Virtual:

      18A      0.076107    19A      0.133938    20A      0.134272
      21A      0.142630    22A      0.142758    23A      0.155085
      24A      0.178662    25A      0.178825    26A      0.203680
      27A      0.215024    28A      0.275950    29A      0.276100
      30A      0.399422    31A      0.399489    32A      0.403268
      33A      0.423860    34A      0.424030    35A      0.456828
      36A      0.495219    37A      0.495509    38A      0.511973
      39A      0.514039    40A      0.578778    41A      0.579146
      42A      0.591309    43A      0.591586    44A      0.602349
      45A      0.624825    46A      0.632007    47A      0.636241
      48A      0.636454    49A      0.663325    50A      0.664066
      51A      0.683595    52A      0.683944    53A      0.735078
      54A      0.825283    55A      0.825320    56A      0.854266
      57A      0.914959    58A      0.915388    59A      0.943812
      60A      0.944349    61A      0.960884    62A      0.961141
      63A      1.004177    64A      1.128519    65A      1.128614
      66A      1.141608    67A      1.163698    68A      1.163943
      69A      1.223256    70A      1.274311    71A      1.274602
      72A      1.279599    73A      1.324583    74A      1.324670
      75A      1.355545    76A      1.366350    77A      1.366410
      78A      1.392259    79A      1.403302    80A      1.404243
      81A      1.416434    82A      1.417516    83A      1.428525
      84A      1.492089    85A      1.498760    86A      1.542437
      87A      1.543367    88A      1.573679    89A      1.573984
      90A      1.669888    91A      1.739111    92A      1.739417
      93A      1.768209    94A      1.830869    95A      1.832481
      96A      1.971818    97A      2.017994    98A      2.019512
      99A      2.020382   100A      2.052182   101A      2.054068
     102A      2.737664   103A      2.738481   104A      2.791153
     105A      2.811941   106A      2.890084   107A      2.890115
     108A      2.895217   109A      2.929937   110A      2.929965
     111A      2.959060   112A      2.964104   113A      2.964758
     114A      3.034484   115A      3.070782   116A      3.070816
     117A      3.084015   118A      3.168493   119A      3.168934
     120A      3.180763   121A      3.284590   122A      3.285240
     123A      3.328055   124A      3.328470   125A      3.375333
     126A      3.489504   127A      3.489834   128A      3.514230
     129A      3.525490   130A      3.568821   131A      3.569033
     132A      3.576024   133A      3.665616   134A      3.667063
     135A      3.680729   136A      3.693450   137A      3.693768
     138A      3.777944   139A      3.777975   140A      3.787817
     141A      3.912239   142A      3.912441   143A      4.033332
     144A      4.111016   145A      4.111926   146A      4.147298
     147A      4.148445   148A      4.173164   149A      4.201931
     150A      4.203263   151A      4.204757   152A      4.211416
     153A      4.315438   154A      4.317198   155A      4.360122
     156A      4.423640   157A      4.424280   158A      4.444440
     159A      4.516961   160A      4.518370   161A      4.579129
     162A      4.579371   163A      4.618033   164A      4.709774
     165A      4.774504   166A      4.775403   167A      4.835890
     168A      4.963386   169A      5.002089   170A      5.003580
     171A      5.228373   172A      5.244671   173A      5.248812
     174A      5.354902   175A      5.357321   176A      5.479635

    Beta Occupied:

       1A    -10.167756     2A    -10.167731     3A    -10.167701
       4A    -10.166512     5A     -0.781160     6A     -0.684031
       7A     -0.684022     8A     -0.511758     9A     -0.431263
      10A     -0.431230    11A     -0.421655    12A     -0.376566
      13A     -0.376475    14A     -0.362727    15A     -0.333174
      16A     -0.333121

    Beta Virtual:

      17A     -0.025909    18A      0.077112    19A      0.134855
      20A      0.135167    21A      0.144537    22A      0.144613
      23A      0.163592    24A      0.182307    25A      0.182509
      26A      0.215256    27A      0.219023    28A      0.282284
      29A      0.282440    30A      0.400597    31A      0.400662
      32A      0.419736    33A      0.426666    34A      0.426836
      35A      0.468815    36A      0.497488    37A      0.497792
      38A      0.513713    39A      0.556297    40A      0.584367
      41A      0.584702    42A      0.597438    43A      0.597763
      44A      0.609789    45A      0.628205    46A      0.632177
      47A      0.639515    48A      0.639729    49A      0.666944
      50A      0.667622    51A      0.686230    52A      0.686542
      53A      0.757565    54A      0.830465    55A      0.830506
      56A      0.855623    57A      0.922990    58A      0.923391
      59A      0.946186    60A      0.952822    61A      0.966135
      62A      0.966449    63A      1.009447    64A      1.132583
      65A      1.132609    66A      1.154770    67A      1.168729
      68A      1.169046    69A      1.232327    70A      1.279914
      71A      1.280228    72A      1.285423    73A      1.329614
      74A      1.329697    75A      1.364896    76A      1.371597
      77A      1.371636    78A      1.393332    79A      1.406738
      80A      1.407769    81A      1.421413    82A      1.422533
      83A      1.428797    84A      1.493126    85A      1.509180
      86A      1.546853    87A      1.547752    88A      1.581577
      89A      1.581852    90A      1.674738    91A      1.744879
      92A      1.745183    93A      1.778997    94A      1.834715
      95A      1.836342    96A      1.972687    97A      2.025851
      98A      2.026806    99A      2.039478   100A      2.058928
     101A      2.060727   102A      2.746019   103A      2.746818
     104A      2.812357   105A      2.816292   106A      2.902671
     107A      2.902792   108A      2.924889   109A      2.932402
     110A      2.932490   111A      2.960125   112A      2.968675
     113A      2.969357   114A      3.042409   115A      3.080577
     116A      3.080796   117A      3.085853   118A      3.184124
     119A      3.184778   120A      3.188471   121A      3.289354
     122A      3.290026   123A      3.331813   124A      3.332274
     125A      3.383124   126A      3.492341   127A      3.492593
     128A      3.512604   129A      3.528499   130A      3.575847
     131A      3.582066   132A      3.582368   133A      3.670231
     134A      3.671769   135A      3.693970   136A      3.725229
     137A      3.725563   138A      3.782500   139A      3.782608
     140A      3.816380   141A      3.921985   142A      3.922232
     143A      4.044272   144A      4.117941   145A      4.118814
     146A      4.154480   147A      4.155527   148A      4.187181
     149A      4.208711   150A      4.210001   151A      4.211064
     152A      4.215921   153A      4.322893   154A      4.324654
     155A      4.363506   156A      4.431859   157A      4.432501
     158A      4.447298   159A      4.524737   160A      4.526150
     161A      4.589740   162A      4.590005   163A      4.625151
     164A      4.720224   165A      4.781443   166A      4.782344
     167A      4.838810   168A      4.968179   169A      5.006163
     170A      5.007617   171A      5.234073   172A      5.246471
     173A      5.250589   174A      5.361374   175A      5.363813
     176A      5.481962

    Final Occupation by Irrep:
              A
    DOCC [    16 ]
    SOCC [     1 ]

  @DF-UKS Final Energy:  -157.81306813193027

   => Energetics <=

    Nuclear Repulsion Energy =            125.4062477588740592
    One-Electron Energy =                -458.7715856370890606
    Two-Electron Energy =                 195.8597589894770010
    DFT Exchange-Correlation Energy =     -20.3074892431922898
    Empirical Dispersion Energy =           0.0000000000000000
    VV10 Nonlocal Energy =                  0.0000000000000000
    Total Energy =                       -157.8130681319302653

  UHF NO Occupations:
  HONO-2 :   15  A 1.9995995
  HONO-1 :   16  A 1.9989824
  HONO-0 :   17  A 1.0000000
  LUNO+0 :   18  A 0.0010176
  LUNO+1 :   19  A 0.0004005
  LUNO+2 :   20  A 0.0001972
  LUNO+3 :   21  A 0.0001972

Computation Completed

Properties will be evaluated at   0.000000,   0.000000,   0.000000 [a0]

Properties computed using the SCF density matrix

  Nuclear Dipole Moment: [e a0]
     X:     0.8225      Y:    -0.0000      Z:    -0.0016

  Electronic Dipole Moment: [e a0]
     X:    -0.7450      Y:     0.0000      Z:     0.0023

  Dipole Moment: [e a0]
     X:     0.0775      Y:     0.0000      Z:     0.0006     Total:     0.0775

  Dipole Moment: [D]
     X:     0.1970      Y:     0.0000      Z:     0.0016     Total:     0.1970

*** tstop() called on n091 at Fri Nov  5 14:09:00 2021
Module time:
	user time   =     463.84 seconds =       7.73 minutes
	system time =       4.39 seconds =       0.07 minutes
	total time  =        118 seconds =       1.97 minutes
Total time:
	user time   =     463.84 seconds =       7.73 minutes
	system time =       4.39 seconds =       0.07 minutes
	total time  =        118 seconds =       1.97 minutes
Grab this energy -157.81306813193027
    Psi4 stopped on: Friday, 05 November 2021 02:09PM
    Psi4 wall time for execution: 0:01:57.78

*** Psi4 exiting successfully. Buy a developer a beer!
