                               Psi4 1.4a2.dev629

  ==> Input File <==

--------------------------------------------------------------------------
import os
memory 14 GB

molecule {
 C   -0.3233410069    0.0004951001    0.0002566889
 C    0.0636043556   -1.4002288626   -2.4266897693
 C    0.0596426377    2.8018561257   -0.0007687037
 C    0.0600533645   -1.4009012463    2.4263191487
 H    2.0847015788   -1.6441839666   -2.8476760582
 H   -0.7640384945   -0.3871134607   -4.0256368283
 H   -0.7661421642   -3.2936641596   -2.3484190996
 H    2.0909217586    3.2876075961    0.0002379677
 H   -0.7674204587    3.6802585069    1.6735381749
 H   -0.7676891261    3.6803445986   -1.6732099411
 H    2.0850519800   -1.6439763596    2.8477849875
 H   -0.7651632779   -3.2938708944    2.3483812086
 H   -0.7627890237   -0.3866472913    4.0258822238
units bohr
0 2
}

basis {

assign 6-31g_2dfp_

[ 6-31g_2dfp_ ]

spherical

!----------------------------------------------------------------------
! Basis Set Exchange
! Version v0.8.13
! https://www.basissetexchange.org
!----------------------------------------------------------------------
!   Basis set: 6-31G(2df,p)
! Description: 6-31G(2df,p)
!        Role: orbital
!     Version: 0  (Data from the original Basis Set Exchange)
!----------------------------------------------------------------------

****
H     0
S    3   1.00
     18.7311370              0.03349460
      2.8253937              0.23472695
      0.6401217              0.81375733
S    1   1.00
      0.1612778              1.00000000
P    1   1.00
      1.5000000              1.0000000
P    1   1.00
      0.3750000              1.0000000
****
B     0
S    6   1.00
   2068.8823000              0.0018663
    310.6495700              0.0142515
     70.6830330              0.0695516
     19.8610800              0.2325729
      6.2993048              0.4670787
      2.1270270              0.3634314
SP   3   1.00
      4.7279710             -0.1303938              0.0745976
      1.1903377             -0.1307889              0.3078467
      0.3594117              1.1309444              0.7434568
SP   1   1.00
      0.1267512              1.0000000              1.0000000
D    1   1.00
      0.8020000              1.0000000
D    1   1.00
      0.2005000              1.0000000
F    1   1.00
      0.5000000              1.0000000
****
C     0
S    6   1.00
   3047.5249000              0.0018347
    457.3695100              0.0140373
    103.9486900              0.0688426
     29.2101550              0.2321844
      9.2866630              0.4679413
      3.1639270              0.3623120
SP   3   1.00
      7.8682724             -0.1193324              0.0689991
      1.8812885             -0.1608542              0.3164240
      0.5442493              1.1434564              0.7443083
SP   1   1.00
      0.1687144              1.0000000              1.0000000
D    1   1.00
      1.2520000              1.0000000
D    1   1.00
      0.3130000              1.0000000
F    1   1.00
      0.8000000              1.0000000
****
N     0
S    6   1.00
   4173.5110000              0.0018348
    627.4579000              0.0139950
    142.9021000              0.0685870
     40.2343300              0.2322410
     12.8202100              0.4690700
      4.3904370              0.3604550
SP   3   1.00
     11.6263580             -0.1149610              0.0675800
      2.7162800             -0.1691180              0.3239070
      0.7722180              1.1458520              0.7408950
SP   1   1.00
      0.2120313              1.0000000              1.0000000
D    1   1.00
      1.8260000              1.0000000
D    1   1.00
      0.4565000              1.0000000
F    1   1.00
      1.0000000              1.0000000
****
O     0
S    6   1.00
   5484.6717000              0.0018311
    825.2349500              0.0139501
    188.0469600              0.0684451
     52.9645000              0.2327143
     16.8975700              0.4701930
      5.7996353              0.3585209
SP   3   1.00
     15.5396160             -0.1107775              0.0708743
      3.5999336             -0.1480263              0.3397528
      1.0137618              1.1307670              0.7271586
SP   1   1.00
      0.2700058              1.0000000              1.0000000
D    1   1.00
      2.5840000              1.0000000
D    1   1.00
      0.6460000              1.0000000
F    1   1.00
      1.4000000              1.0000000
****
F     0
S    6   1.00
   7001.7130900              0.0018196169
   1051.3660900              0.0139160796
    239.2856900              0.0684053245
     67.3974453              0.233185760
     21.5199573              0.471267439
      7.40310130             0.356618546
SP   3   1.00
     20.8479528             -0.108506975            0.0716287243
      4.80830834            -0.146451658            0.3459121030
      1.34406986             1.128688580            0.7224699570
SP   1   1.00
      0.358151393            1.0000000              1.0000000
D    1   1.00
      3.5000000              1.0000000
D    1   1.00
      0.8750000              1.0000000
F    1   1.00
      1.8500000              1.0000000
****
Al     0
S    6   1.00
  13983.1000000              0.00194267
   2098.7500000              0.0148599
    477.7050000              0.0728494
    134.3600000              0.2468300
     42.8709000              0.4872580
     14.5189000              0.3234960
SP   6   1.00
    239.6680000             -0.00292619             0.00460285
     57.4419000             -0.0374080              0.0331990
     18.2859000             -0.1144870              0.1362820
      6.5991400              0.1156350              0.3304760
      2.4904900              0.6125950              0.4491460
      0.9445400              0.3937990              0.2657040
SP   3   1.00
      1.2779000             -0.2276060             -0.0175130
      0.3975900              0.00144583             0.2445330
      0.1600950              1.0927900              0.8049340
SP   1   1.00
      0.0556577              1.0000000              1.0000000
D    1   1.00
      0.6500000              1.0000000
D    1   1.00
      0.1625000              1.0000000
F    1   1.00
      0.2500000              1.0000000
****
Si     0
S    6   1.00
  16115.9000000              0.00195948
   2425.5800000              0.01492880
    553.8670000              0.07284780
    156.3400000              0.24613000
     50.0683000              0.48591400
     17.0178000              0.32500200
SP   6   1.00
    292.7180000             -0.00278094             0.00443826
     69.8731000             -0.03571460             0.03266790
     22.3363000             -0.11498500             0.13472100
      8.1503900              0.09356340             0.32867800
      3.1345800              0.60301700             0.44964000
      1.2254300              0.41895900             0.26137200
SP   3   1.00
      1.7273800             -0.24463000            -0.01779510
      0.5729220              0.00431572             0.25353900
      0.2221920              1.09818000             0.80066900
SP   1   1.00
      0.0778369              1.00000000             1.00000000
D    1   1.00
      0.9000000              1.0000000
D    1   1.00
      0.2250000              1.0000000
F    1   1.00
      0.3200000              1.0000000
****
P     0
S    6   1.00
  19413.3000000              0.0018516
   2909.4200000              0.0142062
    661.3640000              0.0699995
    185.7590000              0.2400790
     59.1943000              0.4847620
     20.0310000              0.3352000
SP   6   1.00
    339.4780000             -0.00278217             0.00456462
     81.0101000             -0.0360499              0.03369360
     25.8780000             -0.1166310              0.13975500
      9.4522100              0.0968328              0.33936200
      3.6656600              0.6144180              0.45092100
      1.4674600              0.4037980              0.23858600
SP   3   1.00
      2.1562300             -0.2529230             -0.01776530
      0.7489970              0.0328517              0.27405800
      0.2831450              1.0812500              0.78542100
SP   1   1.00
      0.0998317              1.0000000              1.00000000
D    1   1.00
      1.1000000              1.0000000
D    1   1.00
      0.2750000              1.0000000
F    1   1.00
      0.4500000              1.0000000
****
S     0
S    6   1.00
  21917.1000000              0.0018690
   3301.4900000              0.0142300
    754.1460000              0.0696960
    212.7110000              0.2384870
     67.9896000              0.4833070
     23.0515000              0.3380740
SP   6   1.00
    423.7350000             -0.0023767              0.0040610
    100.7100000             -0.0316930              0.0306810
     32.1599000             -0.1133170              0.1304520
     11.8079000              0.0560900              0.3272050
      4.6311000              0.5922550              0.4528510
      1.8702500              0.4550060              0.2560420
SP   3   1.00
      2.6158400             -0.2503740             -0.0145110
      0.9221670              0.0669570              0.3102630
      0.3412870              1.0545100              0.7544830
SP   1   1.00
      0.1171670              1.0000000              1.0000000
D    1   1.00
      1.3000000              1.0000000
D    1   1.00
      0.3250000              1.0000000
F    1   1.00
      0.5500000              1.0000000
****
Cl     0
S    6   1.00
  25180.1000000              0.0018330
   3780.3500000              0.0140340
    860.4740000              0.0690970
    242.1450000              0.2374520
     77.3349000              0.4830340
     26.2470000              0.3398560
SP   6   1.00
    491.7650000             -0.0022974              0.0039894
    116.9840000             -0.0307140              0.0303180
     37.4153000             -0.1125280              0.1298800
     13.7834000              0.0450160              0.3279510
      5.4521500              0.5893530              0.4535270
      2.2258800              0.4652060              0.2521540
SP   3   1.00
      3.1864900             -0.2518300             -0.0142990
      1.1442700              0.0615890              0.3235720
      0.4203770              1.0601800              0.7435070
SP   1   1.00
      0.1426570              1.0000000              1.0000000
D    1   1.00
      1.5000000              1.0000000
D    1   1.00
      0.3750000              1.0000000
F    1   1.00
      0.7000000              1.0000000
****
}

set {
reference uhf
freeze_core true
e_convergence 10
d_convergence 10
dft_spherical_points 1202
dft_radial_points 99
}

e = energy('b3lyp')

print_out('Grab this energy {0}'.format(e))
--------------------------------------------------------------------------

    Molecular point group: c1

    Geometry (in Bohr), charge = 0, multiplicity = 2:

       Center              X                  Y                   Z               Mass
    ------------   -----------------  -----------------  -----------------  -----------------
         C           -0.323340878958     0.000260333553     0.000426690837    12.000000000000
         C            0.063604483542    -1.400463629147    -2.426519767363    12.000000000000
         C            0.059642765642     2.801621359153    -0.000598701763    12.000000000000
         C            0.060053492442    -1.401136012847     2.426489150637    12.000000000000
         H            2.084701706742    -1.644418733147    -2.847506056263     1.007825032230
         H           -0.764038366558    -0.387348227247    -4.025466826363     1.007825032230
         H           -0.766142036258    -3.293898926147    -2.348249097663     1.007825032230
         H            2.090921886542     3.287372829553     0.000407969637     1.007825032230
         H           -0.767420330758     3.680023740353     1.673708176837     1.007825032230
         H           -0.767688998158     3.680109832053    -1.673039939163     1.007825032230
         H            2.085052107942    -1.644211126147     2.847954989437     1.007825032230
         H           -0.765163149958    -3.294105660947     2.348551210537     1.007825032230
         H           -0.762788895758    -0.386882057847     4.026052225737     1.007825032230

  Charge       = 0
  Multiplicity = 2
  Basis Set: ANONYMOUS1A8FEAEF
    Blend: 6-31G_2DFP_
  Basis Set: (ANONYMOUS1A8FEAEF AUX)
    Blend: DEF2-UNIVERSAL-JKFIT

    Orbital Energies [Eh]
    ---------------------

    Alpha Occupied:

       1A    -10.180342     2A    -10.167052     3A    -10.167028
       4A    -10.166965     5A     -0.797766     6A     -0.686220
       7A     -0.686155     8A     -0.530778     9A     -0.441128
      10A     -0.434770    11A     -0.434568    12A     -0.382750
      13A     -0.382446    14A     -0.363612    15A     -0.338089
      16A     -0.337908    17A     -0.168961

    Alpha Virtual:

      18A      0.076071    19A      0.133983    20A      0.134326
      21A      0.142539    22A      0.142713    23A      0.154881
      24A      0.178637    25A      0.178922    26A      0.203548
      27A      0.214803    28A      0.275891    29A      0.276080
      30A      0.399065    31A      0.399389    32A      0.403347
      33A      0.424000    34A      0.424194    35A      0.456592
      36A      0.495242    37A      0.495534    38A      0.512161
      39A      0.513981    40A      0.578618    41A      0.579014
      42A      0.591438    43A      0.591819    44A      0.602582
      45A      0.624761    46A      0.631755    47A      0.636107
      48A      0.636407    49A      0.663011    50A      0.663828
      51A      0.683624    52A      0.684084    53A      0.734996
      54A      0.825376    55A      0.825430    56A      0.853922
      57A      0.914813    58A      0.915238    59A      0.944126
      60A      0.944610    61A      0.961152    62A      0.961438
      63A      1.003452    64A      1.127991    65A      1.128227
      66A      1.142212    67A      1.163112    68A      1.163434
      69A      1.223325    70A      1.274276    71A      1.274686
      72A      1.279375    73A      1.324098    74A      1.324614
      75A      1.355952    76A      1.365745    77A      1.366357
      78A      1.392450    79A      1.403597    80A      1.404524
      81A      1.416515    82A      1.417722    83A      1.427912
      84A      1.491489    85A      1.499078    86A      1.542379
      87A      1.543293    88A      1.574227    89A      1.574667
      90A      1.669821    91A      1.738970    92A      1.739823
      93A      1.768361    94A      1.830567    95A      1.832225
      96A      1.971716    97A      2.017995    98A      2.018490
      99A      2.019913   100A      2.051645   101A      2.053663
     102A      2.738074   103A      2.738895   104A      2.790926
     105A      2.811425   106A      2.889659   107A      2.890221
     108A      2.894969   109A      2.929463   110A      2.929533
     111A      2.958999   112A      2.964024   113A      2.964725
     114A      3.034017   115A      3.071164   116A      3.071387
     117A      3.084372   118A      3.168539   119A      3.169021
     120A      3.180602   121A      3.284989   122A      3.285643
     123A      3.326905   124A      3.327414   125A      3.375627
     126A      3.489805   127A      3.490511   128A      3.514018
     129A      3.525323   130A      3.568215   131A      3.568564
     132A      3.575153   133A      3.665605   134A      3.667178
     135A      3.679644   136A      3.693965   137A      3.694295
     138A      3.776763   139A      3.776843   140A      3.789127
     141A      3.912095   142A      3.912357   143A      4.034438
     144A      4.110893   145A      4.111826   146A      4.147523
     147A      4.148674   148A      4.173229   149A      4.201906
     150A      4.202623   151A      4.204227   152A      4.210914
     153A      4.315029   154A      4.316940   155A      4.358991
     156A      4.424122   157A      4.424807   158A      4.443416
     159A      4.515592   160A      4.518111   161A      4.578023
     162A      4.578514   163A      4.617558   164A      4.709448
     165A      4.773899   166A      4.775288   167A      4.836906
     168A      4.962867   169A      5.002077   170A      5.003801
     171A      5.228016   172A      5.244746   173A      5.248863
     174A      5.354315   175A      5.356763   176A      5.479377

    Beta Occupied:

       1A    -10.167807     2A    -10.167788     3A    -10.167728
       4A    -10.166520     5A     -0.781091     6A     -0.684024
       7A     -0.683957     8A     -0.511749     9A     -0.431153
      10A     -0.430936    11A     -0.421819    12A     -0.376848
      13A     -0.376518    14A     -0.362595    15A     -0.333211
      16A     -0.333032

    Beta Virtual:

      17A     -0.025743    18A      0.077080    19A      0.134886
      20A      0.135204    21A      0.144429    22A      0.144565
      23A      0.163337    24A      0.182295    25A      0.182607
      26A      0.215032    27A      0.218930    28A      0.282238
      29A      0.282429    30A      0.400236    31A      0.400559
      32A      0.419790    33A      0.426811    34A      0.427006
      35A      0.468500    36A      0.497496    37A      0.497802
      38A      0.513896    39A      0.556325    40A      0.584184
      41A      0.584548    42A      0.597598    43A      0.598022
      44A      0.610003    45A      0.628137    46A      0.631920
      47A      0.639387    48A      0.639687    49A      0.666611
      50A      0.667357    51A      0.686271    52A      0.686707
      53A      0.757519    54A      0.830543    55A      0.830599
      56A      0.855276    57A      0.922798    58A      0.923195
      59A      0.945963    60A      0.953540    61A      0.966430
      62A      0.966771    63A      1.008692    64A      1.131995
      65A      1.132278    66A      1.155588    67A      1.168181
      68A      1.168516    69A      1.232297    70A      1.279859
      71A      1.280296    72A      1.285129    73A      1.329077
      74A      1.329614    75A      1.365362    76A      1.370988
      77A      1.371602    78A      1.393509    79A      1.407020
      80A      1.408033    81A      1.421558    82A      1.422781
      83A      1.428181    84A      1.492537    85A      1.509520
      86A      1.546801    87A      1.547685    88A      1.582144
      89A      1.582495    90A      1.674668    91A      1.744740
      92A      1.745584    93A      1.779133    94A      1.834415
      95A      1.836089    96A      1.972577    97A      2.024650
      98A      2.026236    99A      2.039680   100A      2.058417
     101A      2.060327   102A      2.746419   103A      2.747222
     104A      2.811836   105A      2.816061   106A      2.902369
     107A      2.902913   108A      2.924652   109A      2.931925
     110A      2.932030   111A      2.960061   112A      2.968562
     113A      2.969282   114A      3.041950   115A      3.081035
     116A      3.081303   117A      3.086222   118A      3.184192
     119A      3.184846   120A      3.188305   121A      3.289778
     122A      3.290449   123A      3.330683   124A      3.331247
     125A      3.383444   126A      3.492553   127A      3.493224
     128A      3.512383   129A      3.528369   130A      3.574990
     131A      3.581567   132A      3.581914   133A      3.670327
     134A      3.671953   135A      3.692942   136A      3.725530
     137A      3.725988   138A      3.781259   139A      3.781404
     140A      3.817667   141A      3.921885   142A      3.922200
     143A      4.045325   144A      4.117737   145A      4.118611
     146A      4.154778   147A      4.155843   148A      4.187281
     149A      4.208040   150A      4.209484   151A      4.211088
     152A      4.215385   153A      4.322454   154A      4.324391
     155A      4.362356   156A      4.432340   157A      4.433018
     158A      4.446299   159A      4.523385   160A      4.525898
     161A      4.588631   162A      4.589108   163A      4.624752
     164A      4.719793   165A      4.780866   166A      4.782228
     167A      4.839823   168A      4.967662   169A      5.006142
     170A      5.007815   171A      5.233729   172A      5.246542
     173A      5.250636   174A      5.360785   175A      5.363253
     176A      5.481698

    Final Occupation by Irrep:
              A
    DOCC [    16 ]
    SOCC [     1 ]

  @DF-UKS Final Energy:  -157.81306106056778

   => Energetics <=

    Nuclear Repulsion Energy =            125.3946338574185830
    One-Electron Energy =                -458.7489064242287782
    Two-Electron Energy =                 195.8483569865061042
    DFT Exchange-Correlation Energy =     -20.3071454802636744
    Empirical Dispersion Energy =           0.0000000000000000
    VV10 Nonlocal Energy =                  0.0000000000000000
    Total Energy =                       -157.8130610605677759

  UHF NO Occupations:
  HONO-2 :   15  A 1.9996008
  HONO-1 :   16  A 1.9989804
  HONO-0 :   17  A 1.0000000
  LUNO+0 :   18  A 0.0010196
  LUNO+1 :   19  A 0.0003992
  LUNO+2 :   20  A 0.0001977
  LUNO+3 :   21  A 0.0001974

Computation Completed

Properties will be evaluated at   0.000000,   0.000000,   0.000000 [a0]

Properties computed using the SCF density matrix

  Nuclear Dipole Moment: [e a0]
     X:     0.8272      Y:    -0.0017      Z:     0.0012

  Electronic Dipole Moment: [e a0]
     X:    -0.7493      Y:     0.0023      Z:    -0.0011

  Dipole Moment: [e a0]
     X:     0.0779      Y:     0.0006      Z:     0.0001     Total:     0.0779

  Dipole Moment: [D]
     X:     0.1980      Y:     0.0016      Z:     0.0003     Total:     0.1980

*** tstop() called on n082 at Fri Nov  5 12:17:37 2021
Module time:
	user time   =     491.77 seconds =       8.20 minutes
	system time =       4.47 seconds =       0.07 minutes
	total time  =        125 seconds =       2.08 minutes
Total time:
	user time   =     491.77 seconds =       8.20 minutes
	system time =       4.47 seconds =       0.07 minutes
	total time  =        125 seconds =       2.08 minutes
Grab this energy -157.81306106056778
    Psi4 stopped on: Friday, 05 November 2021 12:17PM
    Psi4 wall time for execution: 0:02:04.78

*** Psi4 exiting successfully. Buy a developer a beer!
