                               Psi4 1.4a2.dev629

  ==> Input File <==

--------------------------------------------------------------------------
import os
memory 14 GB

molecule {
 C   -0.3230380652    0.0010161583    0.0000000000
 C    0.0606272025   -1.3996043153   -2.4210570584
 C    0.0616293231    2.7959177439   -0.0000000000
 C    0.0606272025   -1.3996043153    2.4210570584
 H    2.0866851728   -1.6402506742   -2.8419928538
 H   -0.7650048470   -0.3852394814   -4.0201359319
 H   -0.7654250446   -3.2885136988   -2.3441154660
 H    2.0864249357    3.2816022147    0.0000000000
 H   -0.7656945189    3.6743279545    1.6760214219
 H   -0.7656945189    3.6743279545   -1.6760214219
 H    2.0866851728   -1.6402506742    2.8419928538
 H   -0.7654250446   -3.2885136988    2.3441154660
 H   -0.7650048470   -0.3852394814    4.0201359319
units bohr
0 2
}

basis {

assign 6-31g_2dfp_

[ 6-31g_2dfp_ ]

spherical

!----------------------------------------------------------------------
! Basis Set Exchange
! Version v0.8.13
! https://www.basissetexchange.org
!----------------------------------------------------------------------
!   Basis set: 6-31G(2df,p)
! Description: 6-31G(2df,p)
!        Role: orbital
!     Version: 0  (Data from the original Basis Set Exchange)
!----------------------------------------------------------------------

****
H     0
S    3   1.00
     18.7311370              0.03349460
      2.8253937              0.23472695
      0.6401217              0.81375733
S    1   1.00
      0.1612778              1.00000000
P    1   1.00
      1.5000000              1.0000000
P    1   1.00
      0.3750000              1.0000000
****
B     0
S    6   1.00
   2068.8823000              0.0018663
    310.6495700              0.0142515
     70.6830330              0.0695516
     19.8610800              0.2325729
      6.2993048              0.4670787
      2.1270270              0.3634314
SP   3   1.00
      4.7279710             -0.1303938              0.0745976
      1.1903377             -0.1307889              0.3078467
      0.3594117              1.1309444              0.7434568
SP   1   1.00
      0.1267512              1.0000000              1.0000000
D    1   1.00
      0.8020000              1.0000000
D    1   1.00
      0.2005000              1.0000000
F    1   1.00
      0.5000000              1.0000000
****
C     0
S    6   1.00
   3047.5249000              0.0018347
    457.3695100              0.0140373
    103.9486900              0.0688426
     29.2101550              0.2321844
      9.2866630              0.4679413
      3.1639270              0.3623120
SP   3   1.00
      7.8682724             -0.1193324              0.0689991
      1.8812885             -0.1608542              0.3164240
      0.5442493              1.1434564              0.7443083
SP   1   1.00
      0.1687144              1.0000000              1.0000000
D    1   1.00
      1.2520000              1.0000000
D    1   1.00
      0.3130000              1.0000000
F    1   1.00
      0.8000000              1.0000000
****
N     0
S    6   1.00
   4173.5110000              0.0018348
    627.4579000              0.0139950
    142.9021000              0.0685870
     40.2343300              0.2322410
     12.8202100              0.4690700
      4.3904370              0.3604550
SP   3   1.00
     11.6263580             -0.1149610              0.0675800
      2.7162800             -0.1691180              0.3239070
      0.7722180              1.1458520              0.7408950
SP   1   1.00
      0.2120313              1.0000000              1.0000000
D    1   1.00
      1.8260000              1.0000000
D    1   1.00
      0.4565000              1.0000000
F    1   1.00
      1.0000000              1.0000000
****
O     0
S    6   1.00
   5484.6717000              0.0018311
    825.2349500              0.0139501
    188.0469600              0.0684451
     52.9645000              0.2327143
     16.8975700              0.4701930
      5.7996353              0.3585209
SP   3   1.00
     15.5396160             -0.1107775              0.0708743
      3.5999336             -0.1480263              0.3397528
      1.0137618              1.1307670              0.7271586
SP   1   1.00
      0.2700058              1.0000000              1.0000000
D    1   1.00
      2.5840000              1.0000000
D    1   1.00
      0.6460000              1.0000000
F    1   1.00
      1.4000000              1.0000000
****
F     0
S    6   1.00
   7001.7130900              0.0018196169
   1051.3660900              0.0139160796
    239.2856900              0.0684053245
     67.3974453              0.233185760
     21.5199573              0.471267439
      7.40310130             0.356618546
SP   3   1.00
     20.8479528             -0.108506975            0.0716287243
      4.80830834            -0.146451658            0.3459121030
      1.34406986             1.128688580            0.7224699570
SP   1   1.00
      0.358151393            1.0000000              1.0000000
D    1   1.00
      3.5000000              1.0000000
D    1   1.00
      0.8750000              1.0000000
F    1   1.00
      1.8500000              1.0000000
****
Al     0
S    6   1.00
  13983.1000000              0.00194267
   2098.7500000              0.0148599
    477.7050000              0.0728494
    134.3600000              0.2468300
     42.8709000              0.4872580
     14.5189000              0.3234960
SP   6   1.00
    239.6680000             -0.00292619             0.00460285
     57.4419000             -0.0374080              0.0331990
     18.2859000             -0.1144870              0.1362820
      6.5991400              0.1156350              0.3304760
      2.4904900              0.6125950              0.4491460
      0.9445400              0.3937990              0.2657040
SP   3   1.00
      1.2779000             -0.2276060             -0.0175130
      0.3975900              0.00144583             0.2445330
      0.1600950              1.0927900              0.8049340
SP   1   1.00
      0.0556577              1.0000000              1.0000000
D    1   1.00
      0.6500000              1.0000000
D    1   1.00
      0.1625000              1.0000000
F    1   1.00
      0.2500000              1.0000000
****
Si     0
S    6   1.00
  16115.9000000              0.00195948
   2425.5800000              0.01492880
    553.8670000              0.07284780
    156.3400000              0.24613000
     50.0683000              0.48591400
     17.0178000              0.32500200
SP   6   1.00
    292.7180000             -0.00278094             0.00443826
     69.8731000             -0.03571460             0.03266790
     22.3363000             -0.11498500             0.13472100
      8.1503900              0.09356340             0.32867800
      3.1345800              0.60301700             0.44964000
      1.2254300              0.41895900             0.26137200
SP   3   1.00
      1.7273800             -0.24463000            -0.01779510
      0.5729220              0.00431572             0.25353900
      0.2221920              1.09818000             0.80066900
SP   1   1.00
      0.0778369              1.00000000             1.00000000
D    1   1.00
      0.9000000              1.0000000
D    1   1.00
      0.2250000              1.0000000
F    1   1.00
      0.3200000              1.0000000
****
P     0
S    6   1.00
  19413.3000000              0.0018516
   2909.4200000              0.0142062
    661.3640000              0.0699995
    185.7590000              0.2400790
     59.1943000              0.4847620
     20.0310000              0.3352000
SP   6   1.00
    339.4780000             -0.00278217             0.00456462
     81.0101000             -0.0360499              0.03369360
     25.8780000             -0.1166310              0.13975500
      9.4522100              0.0968328              0.33936200
      3.6656600              0.6144180              0.45092100
      1.4674600              0.4037980              0.23858600
SP   3   1.00
      2.1562300             -0.2529230             -0.01776530
      0.7489970              0.0328517              0.27405800
      0.2831450              1.0812500              0.78542100
SP   1   1.00
      0.0998317              1.0000000              1.00000000
D    1   1.00
      1.1000000              1.0000000
D    1   1.00
      0.2750000              1.0000000
F    1   1.00
      0.4500000              1.0000000
****
S     0
S    6   1.00
  21917.1000000              0.0018690
   3301.4900000              0.0142300
    754.1460000              0.0696960
    212.7110000              0.2384870
     67.9896000              0.4833070
     23.0515000              0.3380740
SP   6   1.00
    423.7350000             -0.0023767              0.0040610
    100.7100000             -0.0316930              0.0306810
     32.1599000             -0.1133170              0.1304520
     11.8079000              0.0560900              0.3272050
      4.6311000              0.5922550              0.4528510
      1.8702500              0.4550060              0.2560420
SP   3   1.00
      2.6158400             -0.2503740             -0.0145110
      0.9221670              0.0669570              0.3102630
      0.3412870              1.0545100              0.7544830
SP   1   1.00
      0.1171670              1.0000000              1.0000000
D    1   1.00
      1.3000000              1.0000000
D    1   1.00
      0.3250000              1.0000000
F    1   1.00
      0.5500000              1.0000000
****
Cl     0
S    6   1.00
  25180.1000000              0.0018330
   3780.3500000              0.0140340
    860.4740000              0.0690970
    242.1450000              0.2374520
     77.3349000              0.4830340
     26.2470000              0.3398560
SP   6   1.00
    491.7650000             -0.0022974              0.0039894
    116.9840000             -0.0307140              0.0303180
     37.4153000             -0.1125280              0.1298800
     13.7834000              0.0450160              0.3279510
      5.4521500              0.5893530              0.4535270
      2.2258800              0.4652060              0.2521540
SP   3   1.00
      3.1864900             -0.2518300             -0.0142990
      1.1442700              0.0615890              0.3235720
      0.4203770              1.0601800              0.7435070
SP   1   1.00
      0.1426570              1.0000000              1.0000000
D    1   1.00
      1.5000000              1.0000000
D    1   1.00
      0.3750000              1.0000000
F    1   1.00
      0.7000000              1.0000000
****
}

set {
reference uhf
freeze_core true
e_convergence 10
d_convergence 10
dft_spherical_points 1202
dft_radial_points 99
}

e = energy('b3lyp')

print_out('Grab this energy {0}'.format(e))
--------------------------------------------------------------------------

    Molecular point group: cs

    Geometry (in Bohr), charge = 0, multiplicity = 2:

       Center              X                  Y                   Z               Mass
    ------------   -----------------  -----------------  -----------------  -----------------
         C           -0.323016040130     0.001454716734     0.000000000000    12.000000000000
         C            0.060649227570    -1.399165756866    -2.421057058400    12.000000000000
         C            0.061651348170     2.796356302334     0.000000000000    12.000000000000
         C            0.060649227570    -1.399165756866     2.421057058400    12.000000000000
         H            2.086707197870    -1.639812115766    -2.841992853800     1.007825032230
         H           -0.764982821930    -0.384800922966    -4.020135931900     1.007825032230
         H           -0.765403019530    -3.288075140366    -2.344115466000     1.007825032230
         H            2.086446960770     3.282040773134     0.000000000000     1.007825032230
         H           -0.765672493830     3.674766512934     1.676021421900     1.007825032230
         H           -0.765672493830     3.674766512934    -1.676021421900     1.007825032230
         H            2.086707197870    -1.639812115766     2.841992853800     1.007825032230
         H           -0.765403019530    -3.288075140366     2.344115466000     1.007825032230
         H           -0.764982821930    -0.384800922966     4.020135931900     1.007825032230

  Charge       = 0
  Multiplicity = 2
  Basis Set: ANONYMOUSB73CB7B5
    Blend: 6-31G_2DFP_
  Basis Set: (ANONYMOUSB73CB7B5 AUX)
    Blend: DEF2-UNIVERSAL-JKFIT

    Orbital Energies [Eh]
    ---------------------

    Alpha Occupied:

       1Ap   -10.179568     2Ap   -10.166690     1App  -10.166654
       3Ap   -10.166616     4Ap    -0.798816     5Ap    -0.686569
       2App   -0.686408     6Ap    -0.530774     7Ap    -0.441722
       3App   -0.435162     8Ap    -0.435142     9Ap    -0.382712
       4App   -0.382636     5App   -0.363490    10Ap    -0.338481
       6App   -0.337892    11Ap    -0.168636

    Alpha Virtual:

      12Ap     0.076043     7App    0.134156    13Ap     0.134233
       8App    0.142770    14Ap     0.142894    15Ap     0.154942
      16Ap     0.178903     9App    0.179004    17Ap     0.204640
      10App    0.215149    11App    0.276380    18Ap     0.276631
      12App    0.399098    19Ap     0.399308    20Ap     0.403134
      21Ap     0.423824    13App    0.423827    22Ap     0.457176
      23Ap     0.495583    14App    0.495653    15App    0.512497
      24Ap     0.514381    16App    0.579460    25Ap     0.579534
      17App    0.592160    26Ap     0.592198    27Ap     0.603034
      28Ap     0.625166    18App    0.632124    19App    0.637066
      29Ap     0.637074    20App    0.663794    30Ap     0.663977
      31Ap     0.684296    21App    0.684321    32Ap     0.734788
      33Ap     0.825251    22App    0.825253    23App    0.854917
      34Ap     0.915653    24App    0.915858    35Ap     0.944023
      25App    0.945467    26App    0.962183    36Ap     0.962326
      37Ap     1.004583    38Ap     1.128984    27App    1.129027
      39Ap     1.142562    40Ap     1.164016    28App    1.164060
      41Ap     1.224231    29App    1.275222    42Ap     1.275569
      43Ap     1.279870    30App    1.324631    44Ap     1.324754
      45Ap     1.356164    46Ap     1.367654    31App    1.368118
      32App    1.393941    33App    1.403522    47Ap     1.404015
      34App    1.417237    48Ap     1.417741    35App    1.429325
      36App    1.492716    49Ap     1.499661    37App    1.543390
      50Ap     1.543735    51Ap     1.575282    38App    1.575927
      52Ap     1.669755    39App    1.739941    53Ap     1.740138
      54Ap     1.769855    55Ap     1.832526    40App    1.832655
      41App    1.973112    56Ap     2.019641    42App    2.020596
      57Ap     2.020715    58Ap     2.056535    43App    2.057755
      44App    2.739035    59Ap     2.739125    60Ap     2.792077
      45App    2.814157    46App    2.890422    61Ap     2.891750
      62Ap     2.896452    47App    2.929513    63Ap     2.929854
      48App    2.959232    64Ap     2.963771    49App    2.964373
      65Ap     3.033968    50App    3.072115    66Ap     3.072383
      51App    3.085937    67Ap     3.169490    52App    3.169755
      68Ap     3.182503    53App    3.285590    69Ap     3.286031
      70Ap     3.327544    54App    3.327646    71Ap     3.374230
      55App    3.491883    72Ap     3.491989    56App    3.514789
      73Ap     3.527650    74Ap     3.568244    57App    3.568431
      58App    3.577284    59App    3.666136    75Ap     3.666528
      76Ap     3.681657    60App    3.695575    77Ap     3.695598
      78Ap     3.781275    61App    3.781306    79Ap     3.789794
      62App    3.913954    80Ap     3.914659    81Ap     4.036307
      82Ap     4.113980    63App    4.114415    64App    4.148726
      83Ap     4.149072    84Ap     4.174463    85Ap     4.204060
      65App    4.205399    86Ap     4.205483    66App    4.212420
      67App    4.316718    87Ap     4.318292    68App    4.361488
      88Ap     4.425960    69App    4.427058    70App    4.445898
      71App    4.519658    89Ap     4.520028    72App    4.581553
      90Ap     4.582131    91Ap     4.624886    92Ap     4.714245
      93Ap     4.780867    73App    4.781190    74App    4.840852
      94Ap     4.965929    95Ap     5.004291    75App    5.004839
      96Ap     5.229053    76App    5.247990    97Ap     5.248479
      77App    5.358106    98Ap     5.358147    78App    5.485117

    Beta Occupied:

       1Ap   -10.167448     1App  -10.167408     2Ap   -10.167385
       3Ap   -10.165773     4Ap    -0.782119     5Ap    -0.684349
       2App   -0.684193     6Ap    -0.511846     3App   -0.431520
       7Ap    -0.431489     8Ap    -0.422322     9Ap    -0.376767
       4App   -0.376678     5App   -0.362463    10Ap    -0.333608
       6App   -0.333020

    Beta Virtual:

      11Ap    -0.025711    12Ap     0.077063     7App    0.135028
      13Ap     0.135129     8App    0.144686    14Ap     0.144775
      15Ap     0.163446    16Ap     0.182613     9App    0.182690
      10App    0.215385    17Ap     0.219842    11App    0.282672
      18Ap     0.282896    12App    0.400299    19Ap     0.400510
      20Ap     0.419483    21Ap     0.426626    13App    0.426629
      22Ap     0.469439    23Ap     0.497860    14App    0.497924
      15App    0.514248    24Ap     0.556648    16App    0.585018
      25Ap     0.585092    17App    0.598269    26Ap     0.598325
      27Ap     0.610500    28Ap     0.628603    18App    0.632292
      19App    0.640427    29Ap     0.640430    20App    0.667312
      30Ap     0.667502    31Ap     0.687010    21App    0.687038
      32Ap     0.757132    22App    0.830436    33Ap     0.830440
      23App    0.856307    34Ap     0.923639    24App    0.923842
      25App    0.947306    35Ap     0.952859    26App    0.967525
      36Ap     0.967646    37Ap     1.009749    38Ap     1.133024
      27App    1.133044    39Ap     1.155947    40Ap     1.169087
      28App    1.169145    41Ap     1.233342    29App    1.280831
      42Ap     1.281227    43Ap     1.285559    30App    1.329609
      44Ap     1.329752    45Ap     1.365611    46Ap     1.372861
      31App    1.373376    32App    1.395009    33App    1.406953
      47Ap     1.407464    34App    1.422355    48Ap     1.422824
      35App    1.429629    36App    1.493762    49Ap     1.510169
      37App    1.547731    50Ap     1.548097    51Ap     1.583231
      38App    1.583855    52Ap     1.674610    39App    1.745708
      53Ap     1.745903    54Ap     1.780657    55Ap     1.836401
      40App    1.836526    41App    1.973976    56Ap     2.026170
      42App    2.026996    57Ap     2.042056    58Ap     2.063255
      43App    2.064514    44App    2.747281    59Ap     2.747359
      45App    2.814573    60Ap     2.817193    46App    2.902896
      61Ap     2.904183    62Ap     2.926221    47App    2.932128
      63Ap     2.932554    48App    2.960307    64Ap     2.968386
      49App    2.968964    65Ap     3.041990    50App    3.082104
      66Ap     3.082388    51App    3.087771    67Ap     3.185093
      52App    3.185419    68Ap     3.190147    53App    3.290596
      69Ap     3.290974    70Ap     3.331262    54App    3.331388
      71Ap     3.382033    55App    3.494592    72Ap     3.494727
      56App    3.513144    73Ap     3.530646    57App    3.577150
      74Ap     3.581633    58App    3.581740    59App    3.670700
      75Ap     3.671270    76Ap     3.694924    77Ap     3.726870
      60App    3.727208    61App    3.785811    78Ap     3.785898
      79Ap     3.818206    62App    3.923755    80Ap     3.924504
      81Ap     4.047129    82Ap     4.120516    63App    4.120944
      64App    4.156168    83Ap     4.156437    84Ap     4.188639
      65App    4.211325    85Ap     4.211364    86Ap     4.212155
      66App    4.216965    67App    4.324158    87Ap     4.325796
      68App    4.364829    88Ap     4.434285    69App    4.435364
      70App    4.448806    71App    4.527591    89Ap     4.527932
      72App    4.592195    90Ap     4.592728    91Ap     4.632059
      92Ap     4.724674    93Ap     4.787842    73App    4.788126
      74App    4.843766    94Ap     4.970746    95Ap     5.008369
      75App    5.008918    96Ap     5.234806    76App    5.249794
      97Ap     5.250268    77App    5.364621    98Ap     5.364701
      78App    5.487460

    Final Occupation by Irrep:
             Ap   App
    DOCC [    10,    6 ]
    SOCC [     1,    0 ]

  @DF-UKS Final Energy:  -157.81304092314105

   => Energetics <=

    Nuclear Repulsion Energy =            125.5761460088149875
    One-Electron Energy =                -459.1062593897959232
    Two-Electron Energy =                 196.0280233223225537
    DFT Exchange-Correlation Energy =     -20.3109508644826526
    Empirical Dispersion Energy =           0.0000000000000000
    VV10 Nonlocal Energy =                  0.0000000000000000
    Total Energy =                       -157.8130409231410454

  UHF NO Occupations:
  HONO-2 :    9 Ap 1.9995992
  HONO-1 :   10 Ap 1.9989874
  HONO-0 :   11 Ap 1.0000000
  LUNO+0 :   12 Ap 0.0010126
  LUNO+1 :   13 Ap 0.0004008
  LUNO+2 :    7App 0.0001958
  LUNO+3 :   14 Ap 0.0001950

Computation Completed

Properties will be evaluated at   0.000000,   0.000000,   0.000000 [a0]

Properties computed using the SCF density matrix

  Nuclear Dipole Moment: [e a0]
     X:     0.8273      Y:     0.0031      Z:     0.0000

  Electronic Dipole Moment: [e a0]
     X:    -0.7503      Y:    -0.0030      Z:     0.0000

  Dipole Moment: [e a0]
     X:     0.0770      Y:     0.0000      Z:     0.0000     Total:     0.0770

  Dipole Moment: [D]
     X:     0.1958      Y:     0.0001      Z:     0.0000     Total:     0.1958

*** tstop() called on n032 at Fri Nov  5 11:57:15 2021
Module time:
	user time   =     634.27 seconds =      10.57 minutes
	system time =      12.14 seconds =       0.20 minutes
	total time  =        162 seconds =       2.70 minutes
Total time:
	user time   =     634.27 seconds =      10.57 minutes
	system time =      12.14 seconds =       0.20 minutes
	total time  =        162 seconds =       2.70 minutes
Grab this energy -157.81304092314105
    Psi4 stopped on: Friday, 05 November 2021 11:57AM
    Psi4 wall time for execution: 0:02:42.63

*** Psi4 exiting successfully. Buy a developer a beer!
