                               Psi4 1.4a2.dev629

  ==> Input File <==

--------------------------------------------------------------------------
import os
memory 14 GB

molecule {
 C   -0.3236409323   -0.0024306589   -0.0000000000
 C    0.0608804538   -1.4042246084   -2.4300121223
 C    0.0619548348    2.8084577308   -0.0000000000
 C    0.0608804538   -1.4042246084    2.4300121223
 H    2.0859396129   -1.6450865512   -2.8549572841
 H   -0.7700495350   -0.3913198576   -4.0260639717
 H   -0.7626669257   -3.2984713756   -2.3534143321
 H    2.0896609709    3.2938756329    0.0000000000
 H   -0.7643949812    3.6891388836    1.6766439342
 H   -0.7643949812    3.6891388836   -1.6766439342
 H    2.0859396129   -1.6450865512    2.8549572841
 H   -0.7626669257   -3.2984713756    2.3534143321
 H   -0.7700495350   -0.3913198576    4.0260639717
units bohr
0 2
}

basis {

assign 6-31g_2dfp_

[ 6-31g_2dfp_ ]

spherical

!----------------------------------------------------------------------
! Basis Set Exchange
! Version v0.8.13
! https://www.basissetexchange.org
!----------------------------------------------------------------------
!   Basis set: 6-31G(2df,p)
! Description: 6-31G(2df,p)
!        Role: orbital
!     Version: 0  (Data from the original Basis Set Exchange)
!----------------------------------------------------------------------

****
H     0
S    3   1.00
     18.7311370              0.03349460
      2.8253937              0.23472695
      0.6401217              0.81375733
S    1   1.00
      0.1612778              1.00000000
P    1   1.00
      1.5000000              1.0000000
P    1   1.00
      0.3750000              1.0000000
****
B     0
S    6   1.00
   2068.8823000              0.0018663
    310.6495700              0.0142515
     70.6830330              0.0695516
     19.8610800              0.2325729
      6.2993048              0.4670787
      2.1270270              0.3634314
SP   3   1.00
      4.7279710             -0.1303938              0.0745976
      1.1903377             -0.1307889              0.3078467
      0.3594117              1.1309444              0.7434568
SP   1   1.00
      0.1267512              1.0000000              1.0000000
D    1   1.00
      0.8020000              1.0000000
D    1   1.00
      0.2005000              1.0000000
F    1   1.00
      0.5000000              1.0000000
****
C     0
S    6   1.00
   3047.5249000              0.0018347
    457.3695100              0.0140373
    103.9486900              0.0688426
     29.2101550              0.2321844
      9.2866630              0.4679413
      3.1639270              0.3623120
SP   3   1.00
      7.8682724             -0.1193324              0.0689991
      1.8812885             -0.1608542              0.3164240
      0.5442493              1.1434564              0.7443083
SP   1   1.00
      0.1687144              1.0000000              1.0000000
D    1   1.00
      1.2520000              1.0000000
D    1   1.00
      0.3130000              1.0000000
F    1   1.00
      0.8000000              1.0000000
****
N     0
S    6   1.00
   4173.5110000              0.0018348
    627.4579000              0.0139950
    142.9021000              0.0685870
     40.2343300              0.2322410
     12.8202100              0.4690700
      4.3904370              0.3604550
SP   3   1.00
     11.6263580             -0.1149610              0.0675800
      2.7162800             -0.1691180              0.3239070
      0.7722180              1.1458520              0.7408950
SP   1   1.00
      0.2120313              1.0000000              1.0000000
D    1   1.00
      1.8260000              1.0000000
D    1   1.00
      0.4565000              1.0000000
F    1   1.00
      1.0000000              1.0000000
****
O     0
S    6   1.00
   5484.6717000              0.0018311
    825.2349500              0.0139501
    188.0469600              0.0684451
     52.9645000              0.2327143
     16.8975700              0.4701930
      5.7996353              0.3585209
SP   3   1.00
     15.5396160             -0.1107775              0.0708743
      3.5999336             -0.1480263              0.3397528
      1.0137618              1.1307670              0.7271586
SP   1   1.00
      0.2700058              1.0000000              1.0000000
D    1   1.00
      2.5840000              1.0000000
D    1   1.00
      0.6460000              1.0000000
F    1   1.00
      1.4000000              1.0000000
****
F     0
S    6   1.00
   7001.7130900              0.0018196169
   1051.3660900              0.0139160796
    239.2856900              0.0684053245
     67.3974453              0.233185760
     21.5199573              0.471267439
      7.40310130             0.356618546
SP   3   1.00
     20.8479528             -0.108506975            0.0716287243
      4.80830834            -0.146451658            0.3459121030
      1.34406986             1.128688580            0.7224699570
SP   1   1.00
      0.358151393            1.0000000              1.0000000
D    1   1.00
      3.5000000              1.0000000
D    1   1.00
      0.8750000              1.0000000
F    1   1.00
      1.8500000              1.0000000
****
Al     0
S    6   1.00
  13983.1000000              0.00194267
   2098.7500000              0.0148599
    477.7050000              0.0728494
    134.3600000              0.2468300
     42.8709000              0.4872580
     14.5189000              0.3234960
SP   6   1.00
    239.6680000             -0.00292619             0.00460285
     57.4419000             -0.0374080              0.0331990
     18.2859000             -0.1144870              0.1362820
      6.5991400              0.1156350              0.3304760
      2.4904900              0.6125950              0.4491460
      0.9445400              0.3937990              0.2657040
SP   3   1.00
      1.2779000             -0.2276060             -0.0175130
      0.3975900              0.00144583             0.2445330
      0.1600950              1.0927900              0.8049340
SP   1   1.00
      0.0556577              1.0000000              1.0000000
D    1   1.00
      0.6500000              1.0000000
D    1   1.00
      0.1625000              1.0000000
F    1   1.00
      0.2500000              1.0000000
****
Si     0
S    6   1.00
  16115.9000000              0.00195948
   2425.5800000              0.01492880
    553.8670000              0.07284780
    156.3400000              0.24613000
     50.0683000              0.48591400
     17.0178000              0.32500200
SP   6   1.00
    292.7180000             -0.00278094             0.00443826
     69.8731000             -0.03571460             0.03266790
     22.3363000             -0.11498500             0.13472100
      8.1503900              0.09356340             0.32867800
      3.1345800              0.60301700             0.44964000
      1.2254300              0.41895900             0.26137200
SP   3   1.00
      1.7273800             -0.24463000            -0.01779510
      0.5729220              0.00431572             0.25353900
      0.2221920              1.09818000             0.80066900
SP   1   1.00
      0.0778369              1.00000000             1.00000000
D    1   1.00
      0.9000000              1.0000000
D    1   1.00
      0.2250000              1.0000000
F    1   1.00
      0.3200000              1.0000000
****
P     0
S    6   1.00
  19413.3000000              0.0018516
   2909.4200000              0.0142062
    661.3640000              0.0699995
    185.7590000              0.2400790
     59.1943000              0.4847620
     20.0310000              0.3352000
SP   6   1.00
    339.4780000             -0.00278217             0.00456462
     81.0101000             -0.0360499              0.03369360
     25.8780000             -0.1166310              0.13975500
      9.4522100              0.0968328              0.33936200
      3.6656600              0.6144180              0.45092100
      1.4674600              0.4037980              0.23858600
SP   3   1.00
      2.1562300             -0.2529230             -0.01776530
      0.7489970              0.0328517              0.27405800
      0.2831450              1.0812500              0.78542100
SP   1   1.00
      0.0998317              1.0000000              1.00000000
D    1   1.00
      1.1000000              1.0000000
D    1   1.00
      0.2750000              1.0000000
F    1   1.00
      0.4500000              1.0000000
****
S     0
S    6   1.00
  21917.1000000              0.0018690
   3301.4900000              0.0142300
    754.1460000              0.0696960
    212.7110000              0.2384870
     67.9896000              0.4833070
     23.0515000              0.3380740
SP   6   1.00
    423.7350000             -0.0023767              0.0040610
    100.7100000             -0.0316930              0.0306810
     32.1599000             -0.1133170              0.1304520
     11.8079000              0.0560900              0.3272050
      4.6311000              0.5922550              0.4528510
      1.8702500              0.4550060              0.2560420
SP   3   1.00
      2.6158400             -0.2503740             -0.0145110
      0.9221670              0.0669570              0.3102630
      0.3412870              1.0545100              0.7544830
SP   1   1.00
      0.1171670              1.0000000              1.0000000
D    1   1.00
      1.3000000              1.0000000
D    1   1.00
      0.3250000              1.0000000
F    1   1.00
      0.5500000              1.0000000
****
Cl     0
S    6   1.00
  25180.1000000              0.0018330
   3780.3500000              0.0140340
    860.4740000              0.0690970
    242.1450000              0.2374520
     77.3349000              0.4830340
     26.2470000              0.3398560
SP   6   1.00
    491.7650000             -0.0022974              0.0039894
    116.9840000             -0.0307140              0.0303180
     37.4153000             -0.1125280              0.1298800
     13.7834000              0.0450160              0.3279510
      5.4521500              0.5893530              0.4535270
      2.2258800              0.4652060              0.2521540
SP   3   1.00
      3.1864900             -0.2518300             -0.0142990
      1.1442700              0.0615890              0.3235720
      0.4203770              1.0601800              0.7435070
SP   1   1.00
      0.1426570              1.0000000              1.0000000
D    1   1.00
      1.5000000              1.0000000
D    1   1.00
      0.3750000              1.0000000
F    1   1.00
      0.7000000              1.0000000
****
}

set {
reference uhf
freeze_core true
e_convergence 10
d_convergence 10
dft_spherical_points 1202
dft_radial_points 99
}

e = energy('b3lyp')

print_out('Grab this energy {0}'.format(e))
--------------------------------------------------------------------------

    Molecular point group: cs

    Geometry (in Bohr), charge = 0, multiplicity = 2:

       Center              X                  Y                   Z               Mass
    ------------   -----------------  -----------------  -----------------  -----------------
         C           -0.323663042628    -0.001963706985     0.000000000000    12.000000000000
         C            0.060858343472    -1.403757656485    -2.430012122300    12.000000000000
         C            0.061932724472     2.808924682715     0.000000000000    12.000000000000
         C            0.060858343472    -1.403757656485     2.430012122300    12.000000000000
         H            2.085917502572    -1.644619599285    -2.854957284100     1.007825032230
         H           -0.770071645328    -0.390852905685    -4.026063971700     1.007825032230
         H           -0.762689036028    -3.298004423685    -2.353414332100     1.007825032230
         H            2.089638860572     3.294342584815     0.000000000000     1.007825032230
         H           -0.764417091528     3.689605835515     1.676643934200     1.007825032230
         H           -0.764417091528     3.689605835515    -1.676643934200     1.007825032230
         H            2.085917502572    -1.644619599285     2.854957284100     1.007825032230
         H           -0.762689036028    -3.298004423685     2.353414332100     1.007825032230
         H           -0.770071645328    -0.390852905685     4.026063971700     1.007825032230

  Charge       = 0
  Multiplicity = 2
  Basis Set: ANONYMOUS2408FE4F
    Blend: 6-31G_2DFP_
  Basis Set: (ANONYMOUS2408FE4F AUX)
    Blend: DEF2-UNIVERSAL-JKFIT

    Orbital Energies [Eh]
    ---------------------

    Alpha Occupied:

       1Ap   -10.181113     2Ap   -10.167593     1App  -10.167283
       3Ap   -10.167252     4Ap    -0.796722     2App   -0.686029
       5Ap    -0.685745     6Ap    -0.530778     7Ap    -0.440532
       8Ap    -0.434263     3App   -0.434122     4App   -0.382569
       9Ap    -0.382480     5App   -0.363728     6App   -0.337959
      10Ap    -0.337662    11Ap    -0.169285

    Alpha Virtual:

      12Ap     0.076102    13Ap     0.134052     7App    0.134179
       8App    0.142414    14Ap     0.142436    15Ap     0.154818
       9App    0.178599    16Ap     0.178605    17Ap     0.202437
      10App    0.214457    18Ap     0.275118    11App    0.275789
      19Ap     0.399230    12App    0.399256    20Ap     0.403559
      21Ap     0.424348    13App    0.424420    22Ap     0.456032
      14App    0.495113    23Ap     0.495214    15App    0.511826
      24Ap     0.513569    25Ap     0.577918    16App    0.578317
      26Ap     0.590873    17App    0.591311    27Ap     0.602125
      28Ap     0.624355    18App    0.631417    29Ap     0.635372
      19App    0.635537    30Ap     0.662725    20App    0.663140
      21App    0.683390    31Ap     0.683433    32Ap     0.735195
      33Ap     0.825531    22App    0.825591    23App    0.852911
      34Ap     0.914170    24App    0.914432    25App    0.942799
      35Ap     0.945183    36Ap     0.960304    26App    0.960369
      37Ap     1.002336    27App    1.127173    38Ap     1.127243
      39Ap     1.141868    28App    1.162385    40Ap     1.162624
      41Ap     1.222437    42Ap     1.273394    29App    1.273771
      43Ap     1.278842    44Ap     1.323896    30App    1.324144
      45Ap     1.355826    46Ap     1.363938    31App    1.364516
      32App    1.390932    47Ap     1.404013    33App    1.404627
      48Ap     1.416484    34App    1.417029    35App    1.426489
      36App    1.490298    49Ap     1.498511    50Ap     1.541950
      37App    1.542231    38App    1.573056    51Ap     1.573503
      52Ap     1.669903    53Ap     1.738511    39App    1.739057
      54Ap     1.766803    55Ap     1.829784    40App    1.830604
      41App    1.970359    56Ap     2.015963    57Ap     2.017944
      42App    2.017956    58Ap     2.047225    43App    2.049165
      59Ap     2.737828    44App    2.737931    60Ap     2.789766
      45App    2.808699    61Ap     2.888305    46App    2.889215
      62Ap     2.893474    47App    2.929163    63Ap     2.929495
      48App    2.958756    49App    2.964424    64Ap     2.964932
      65Ap     3.034037    66Ap     3.070065    50App    3.070629
      51App    3.082779    67Ap     3.167844    52App    3.167996
      68Ap     3.178762    69Ap     3.284745    53App    3.284832
      70Ap     3.326290    54App    3.327193    71Ap     3.376975
      72Ap     3.488150    55App    3.488566    56App    3.513221
      73Ap     3.522966    74Ap     3.567640    57App    3.569303
      58App    3.573035    59App    3.666218    75Ap     3.666602
      76Ap     3.677756    77Ap     3.692353    60App    3.693042
      61App    3.771002    78Ap     3.773640    79Ap     3.788456
      80Ap     3.909648    62App    3.910634    81Ap     4.032616
      82Ap     4.107443    63App    4.109507    83Ap     4.146853
      64App    4.147996    84Ap     4.172032    85Ap     4.200175
      65App    4.201184    86Ap     4.201349    66App    4.209260
      87Ap     4.313911    67App    4.314939    68App    4.356488
      69App    4.421892    88Ap     4.422907    70App    4.441024
      89Ap     4.513106    71App    4.514615    90Ap     4.574018
      72App    4.575397    91Ap     4.610243    92Ap     4.704685
      73App    4.767551    93Ap     4.768822    74App    4.832957
      94Ap     4.959833    95Ap     5.000738    75App    5.001953
      96Ap     5.227014    76App    5.245283    97Ap     5.245523
      98Ap     5.351968    77App    5.353857    78App    5.473651

    Beta Occupied:

       1Ap   -10.168349     1App  -10.168035     2Ap   -10.168025
       3Ap   -10.167259     4Ap    -0.780070     2App   -0.683841
       5Ap    -0.683579     6Ap    -0.511648     7Ap    -0.430660
       3App   -0.430504     8Ap    -0.421326     4App   -0.376680
       9Ap    -0.376614     5App   -0.362723     6App   -0.333078
      10Ap    -0.332780

    Beta Virtual:

      11Ap    -0.025774    12Ap     0.077100    13Ap     0.134944
       7App    0.135079     8App    0.144245    14Ap     0.144289
      15Ap     0.163232    16Ap     0.182242     9App    0.182252
      10App    0.214679    17Ap     0.217999    18Ap     0.281546
      11App    0.282196    19Ap     0.400380    12App    0.400388
      20Ap     0.420093    21Ap     0.427155    13App    0.427253
      22Ap     0.467586    14App    0.497366    23Ap     0.497454
      15App    0.513546    24Ap     0.555985    25Ap     0.583453
      16App    0.583871    26Ap     0.597129    17App    0.597531
      27Ap     0.609512    28Ap     0.627671    18App    0.631566
      29Ap     0.638566    19App    0.638769    30Ap     0.666339
      20App    0.666733    21App    0.685958    31Ap     0.685979
      32Ap     0.757895    33Ap     0.830711    22App    0.830715
      23App    0.854227    34Ap     0.922126    24App    0.922394
      25App    0.944633    35Ap     0.954202    36Ap     0.965556
      26App    0.965680    37Ap     1.007654    27App    1.131149
      38Ap     1.131326    39Ap     1.155229    28App    1.167518
      40Ap     1.167634    41Ap     1.231269    42Ap     1.278944
      29App    1.279335    43Ap     1.284665    44Ap     1.328902
      30App    1.329124    45Ap     1.365213    46Ap     1.369226
      31App    1.369729    32App    1.391980    47Ap     1.407486
      33App    1.408152    48Ap     1.421487    34App    1.422011
      35App    1.426727    36App    1.491347    49Ap     1.508892
      50Ap     1.546443    37App    1.546666    38App    1.580902
      51Ap     1.581264    52Ap     1.674742    53Ap     1.744256
      39App    1.744829    54Ap     1.777560    55Ap     1.833615
      40App    1.834448    41App    1.971215    56Ap     2.024235
      42App    2.024397    57Ap     2.037320    58Ap     2.053953
      43App    2.055814    59Ap     2.746233    44App    2.746388
      45App    2.809107    60Ap     2.814920    61Ap     2.901312
      46App    2.902064    62Ap     2.923058    47App    2.931485
      63Ap     2.931831    48App    2.959806    49App    2.968926
      64Ap     2.969405    65Ap     3.041884    66Ap     3.079929
      50App    3.080412    51App    3.084578    67Ap     3.183549
      52App    3.183927    68Ap     3.186577    69Ap     3.289365
      53App    3.289458    70Ap     3.330178    54App    3.331065
      71Ap     3.384812    72Ap     3.490873    55App    3.491337
      56App    3.511598    73Ap     3.526065    57App    3.572858
      74Ap     3.580996    58App    3.582598    59App    3.671210
      75Ap     3.671338    76Ap     3.691044    77Ap     3.724325
      60App    3.724692    61App    3.775531    78Ap     3.778100
      79Ap     3.817116    80Ap     3.919502    62App    3.920401
      81Ap     4.043572    82Ap     4.114533    63App    4.116594
      83Ap     4.153949    64App    4.154951    84Ap     4.185978
      85Ap     4.206181    65App    4.207126    86Ap     4.209180
      66App    4.213663    87Ap     4.321288    67App    4.322380
      68App    4.359871    69App    4.430018    88Ap     4.430997
      70App    4.443897    89Ap     4.520781    71App    4.522266
      90Ap     4.584591    72App    4.585983    91Ap     4.617456
      92Ap     4.714948    73App    4.774542    93Ap     4.775732
      74App    4.835876    94Ap     4.964605    95Ap     5.004720
      75App    5.005971    96Ap     5.232690    76App    5.247043
      97Ap     5.247307    98Ap     5.358373    77App    5.360305
      78App    5.475951

    Final Occupation by Irrep:
             Ap   App
    DOCC [    10,    6 ]
    SOCC [     1,    0 ]

  @DF-UKS Final Energy:  -157.81306919743605

   => Energetics <=

    Nuclear Repulsion Energy =            125.2136785051154533
    One-Electron Energy =                -458.3926257645522355
    Two-Electron Energy =                 195.6692301124790561
    DFT Exchange-Correlation Energy =     -20.3033520504783418
    Empirical Dispersion Energy =           0.0000000000000000
    VV10 Nonlocal Energy =                  0.0000000000000000
    Total Energy =                       -157.8130691974360502

  UHF NO Occupations:
  HONO-2 :    9 Ap 1.9996026
  HONO-1 :   10 Ap 1.9989734
  HONO-0 :   11 Ap 1.0000000
  LUNO+0 :   12 Ap 0.0010266
  LUNO+1 :   13 Ap 0.0003974
  LUNO+2 :   14 Ap 0.0002003
  LUNO+3 :    7App 0.0001992

Computation Completed

Properties will be evaluated at   0.000000,   0.000000,   0.000000 [a0]

Properties computed using the SCF density matrix

  Nuclear Dipole Moment: [e a0]
     X:     0.8270      Y:     0.0033      Z:     0.0000

  Electronic Dipole Moment: [e a0]
     X:    -0.7483      Y:    -0.0032      Z:     0.0000

  Dipole Moment: [e a0]
     X:     0.0788      Y:     0.0000      Z:     0.0000     Total:     0.0788

  Dipole Moment: [D]
     X:     0.2002      Y:     0.0001      Z:     0.0000     Total:     0.2002

*** tstop() called on n021 at Fri Nov  5 15:46:01 2021
Module time:
	user time   =     634.60 seconds =      10.58 minutes
	system time =      12.16 seconds =       0.20 minutes
	total time  =        163 seconds =       2.72 minutes
Total time:
	user time   =     634.60 seconds =      10.58 minutes
	system time =      12.16 seconds =       0.20 minutes
	total time  =        163 seconds =       2.72 minutes
Grab this energy -157.81306919743605
    Psi4 stopped on: Friday, 05 November 2021 03:46PM
    Psi4 wall time for execution: 0:02:42.64

*** Psi4 exiting successfully. Buy a developer a beer!
