                               Psi4 1.4a2.dev629

  ==> Input File <==

--------------------------------------------------------------------------
import os
memory 14 GB

molecule {
 C   -0.3233515631   -0.0000021275    0.0000000138
 C    0.0609577469   -1.3992211360   -2.4254428416
 C    0.0608381273    2.8001204084    0.0009658389
 C    0.0609577590   -1.4008939206    2.4244770500
 H    2.0868846909   -1.6420953609   -2.8491745633
 H   -0.7629238415   -0.3898251717   -4.0245232707
 H   -0.7678115469   -3.2939310663   -2.3490205263
 H    2.0867454823    3.2886027354    0.0026009564
 H   -0.7631646162    3.6802256052    1.6746322652
 H   -0.7678893819    3.6812475597   -1.6781568908
 H    2.0868840490   -1.6466001530    2.8465737619
 H   -0.7630868085   -3.2903681787    2.3498973380
 H   -0.7676479740   -0.3872835075    4.0271708684
units bohr
0 2
}

basis {

assign 6-31g_2dfp_

[ 6-31g_2dfp_ ]

spherical

!----------------------------------------------------------------------
! Basis Set Exchange
! Version v0.8.13
! https://www.basissetexchange.org
!----------------------------------------------------------------------
!   Basis set: 6-31G(2df,p)
! Description: 6-31G(2df,p)
!        Role: orbital
!     Version: 0  (Data from the original Basis Set Exchange)
!----------------------------------------------------------------------

****
H     0
S    3   1.00
     18.7311370              0.03349460
      2.8253937              0.23472695
      0.6401217              0.81375733
S    1   1.00
      0.1612778              1.00000000
P    1   1.00
      1.5000000              1.0000000
P    1   1.00
      0.3750000              1.0000000
****
B     0
S    6   1.00
   2068.8823000              0.0018663
    310.6495700              0.0142515
     70.6830330              0.0695516
     19.8610800              0.2325729
      6.2993048              0.4670787
      2.1270270              0.3634314
SP   3   1.00
      4.7279710             -0.1303938              0.0745976
      1.1903377             -0.1307889              0.3078467
      0.3594117              1.1309444              0.7434568
SP   1   1.00
      0.1267512              1.0000000              1.0000000
D    1   1.00
      0.8020000              1.0000000
D    1   1.00
      0.2005000              1.0000000
F    1   1.00
      0.5000000              1.0000000
****
C     0
S    6   1.00
   3047.5249000              0.0018347
    457.3695100              0.0140373
    103.9486900              0.0688426
     29.2101550              0.2321844
      9.2866630              0.4679413
      3.1639270              0.3623120
SP   3   1.00
      7.8682724             -0.1193324              0.0689991
      1.8812885             -0.1608542              0.3164240
      0.5442493              1.1434564              0.7443083
SP   1   1.00
      0.1687144              1.0000000              1.0000000
D    1   1.00
      1.2520000              1.0000000
D    1   1.00
      0.3130000              1.0000000
F    1   1.00
      0.8000000              1.0000000
****
N     0
S    6   1.00
   4173.5110000              0.0018348
    627.4579000              0.0139950
    142.9021000              0.0685870
     40.2343300              0.2322410
     12.8202100              0.4690700
      4.3904370              0.3604550
SP   3   1.00
     11.6263580             -0.1149610              0.0675800
      2.7162800             -0.1691180              0.3239070
      0.7722180              1.1458520              0.7408950
SP   1   1.00
      0.2120313              1.0000000              1.0000000
D    1   1.00
      1.8260000              1.0000000
D    1   1.00
      0.4565000              1.0000000
F    1   1.00
      1.0000000              1.0000000
****
O     0
S    6   1.00
   5484.6717000              0.0018311
    825.2349500              0.0139501
    188.0469600              0.0684451
     52.9645000              0.2327143
     16.8975700              0.4701930
      5.7996353              0.3585209
SP   3   1.00
     15.5396160             -0.1107775              0.0708743
      3.5999336             -0.1480263              0.3397528
      1.0137618              1.1307670              0.7271586
SP   1   1.00
      0.2700058              1.0000000              1.0000000
D    1   1.00
      2.5840000              1.0000000
D    1   1.00
      0.6460000              1.0000000
F    1   1.00
      1.4000000              1.0000000
****
F     0
S    6   1.00
   7001.7130900              0.0018196169
   1051.3660900              0.0139160796
    239.2856900              0.0684053245
     67.3974453              0.233185760
     21.5199573              0.471267439
      7.40310130             0.356618546
SP   3   1.00
     20.8479528             -0.108506975            0.0716287243
      4.80830834            -0.146451658            0.3459121030
      1.34406986             1.128688580            0.7224699570
SP   1   1.00
      0.358151393            1.0000000              1.0000000
D    1   1.00
      3.5000000              1.0000000
D    1   1.00
      0.8750000              1.0000000
F    1   1.00
      1.8500000              1.0000000
****
Al     0
S    6   1.00
  13983.1000000              0.00194267
   2098.7500000              0.0148599
    477.7050000              0.0728494
    134.3600000              0.2468300
     42.8709000              0.4872580
     14.5189000              0.3234960
SP   6   1.00
    239.6680000             -0.00292619             0.00460285
     57.4419000             -0.0374080              0.0331990
     18.2859000             -0.1144870              0.1362820
      6.5991400              0.1156350              0.3304760
      2.4904900              0.6125950              0.4491460
      0.9445400              0.3937990              0.2657040
SP   3   1.00
      1.2779000             -0.2276060             -0.0175130
      0.3975900              0.00144583             0.2445330
      0.1600950              1.0927900              0.8049340
SP   1   1.00
      0.0556577              1.0000000              1.0000000
D    1   1.00
      0.6500000              1.0000000
D    1   1.00
      0.1625000              1.0000000
F    1   1.00
      0.2500000              1.0000000
****
Si     0
S    6   1.00
  16115.9000000              0.00195948
   2425.5800000              0.01492880
    553.8670000              0.07284780
    156.3400000              0.24613000
     50.0683000              0.48591400
     17.0178000              0.32500200
SP   6   1.00
    292.7180000             -0.00278094             0.00443826
     69.8731000             -0.03571460             0.03266790
     22.3363000             -0.11498500             0.13472100
      8.1503900              0.09356340             0.32867800
      3.1345800              0.60301700             0.44964000
      1.2254300              0.41895900             0.26137200
SP   3   1.00
      1.7273800             -0.24463000            -0.01779510
      0.5729220              0.00431572             0.25353900
      0.2221920              1.09818000             0.80066900
SP   1   1.00
      0.0778369              1.00000000             1.00000000
D    1   1.00
      0.9000000              1.0000000
D    1   1.00
      0.2250000              1.0000000
F    1   1.00
      0.3200000              1.0000000
****
P     0
S    6   1.00
  19413.3000000              0.0018516
   2909.4200000              0.0142062
    661.3640000              0.0699995
    185.7590000              0.2400790
     59.1943000              0.4847620
     20.0310000              0.3352000
SP   6   1.00
    339.4780000             -0.00278217             0.00456462
     81.0101000             -0.0360499              0.03369360
     25.8780000             -0.1166310              0.13975500
      9.4522100              0.0968328              0.33936200
      3.6656600              0.6144180              0.45092100
      1.4674600              0.4037980              0.23858600
SP   3   1.00
      2.1562300             -0.2529230             -0.01776530
      0.7489970              0.0328517              0.27405800
      0.2831450              1.0812500              0.78542100
SP   1   1.00
      0.0998317              1.0000000              1.00000000
D    1   1.00
      1.1000000              1.0000000
D    1   1.00
      0.2750000              1.0000000
F    1   1.00
      0.4500000              1.0000000
****
S     0
S    6   1.00
  21917.1000000              0.0018690
   3301.4900000              0.0142300
    754.1460000              0.0696960
    212.7110000              0.2384870
     67.9896000              0.4833070
     23.0515000              0.3380740
SP   6   1.00
    423.7350000             -0.0023767              0.0040610
    100.7100000             -0.0316930              0.0306810
     32.1599000             -0.1133170              0.1304520
     11.8079000              0.0560900              0.3272050
      4.6311000              0.5922550              0.4528510
      1.8702500              0.4550060              0.2560420
SP   3   1.00
      2.6158400             -0.2503740             -0.0145110
      0.9221670              0.0669570              0.3102630
      0.3412870              1.0545100              0.7544830
SP   1   1.00
      0.1171670              1.0000000              1.0000000
D    1   1.00
      1.3000000              1.0000000
D    1   1.00
      0.3250000              1.0000000
F    1   1.00
      0.5500000              1.0000000
****
Cl     0
S    6   1.00
  25180.1000000              0.0018330
   3780.3500000              0.0140340
    860.4740000              0.0690970
    242.1450000              0.2374520
     77.3349000              0.4830340
     26.2470000              0.3398560
SP   6   1.00
    491.7650000             -0.0022974              0.0039894
    116.9840000             -0.0307140              0.0303180
     37.4153000             -0.1125280              0.1298800
     13.7834000              0.0450160              0.3279510
      5.4521500              0.5893530              0.4535270
      2.2258800              0.4652060              0.2521540
SP   3   1.00
      3.1864900             -0.2518300             -0.0142990
      1.1442700              0.0615890              0.3235720
      0.4203770              1.0601800              0.7435070
SP   1   1.00
      0.1426570              1.0000000              1.0000000
D    1   1.00
      1.5000000              1.0000000
D    1   1.00
      0.3750000              1.0000000
F    1   1.00
      0.7000000              1.0000000
****
}

set {
reference uhf
freeze_core true
e_convergence 10
d_convergence 10
dft_spherical_points 1202
dft_radial_points 99
}

e = energy('b3lyp')

print_out('Grab this energy {0}'.format(e))
--------------------------------------------------------------------------

    Molecular point group: c1

    Geometry (in Bohr), charge = 0, multiplicity = 2:

       Center              X                  Y                   Z               Mass
    ------------   -----------------  -----------------  -----------------  -----------------
         C           -0.323244098864    -0.000002319163     0.000000002033    12.000000000000
         C            0.061065211136    -1.399221327663    -2.425442853367    12.000000000000
         C            0.060945591536     2.800120216737     0.000965827133    12.000000000000
         C            0.061065223236    -1.400894112263     2.424477038233    12.000000000000
         H            2.086992155136    -1.642095552563    -2.849174575067     1.007825032230
         H           -0.762816377264    -0.389825363363    -4.024523282467     1.007825032230
         H           -0.767704082664    -3.293931257963    -2.349020538067     1.007825032230
         H            2.086852946536     3.288602543737     0.002600944633     1.007825032230
         H           -0.763057151964     3.680225413537     1.674632253433     1.007825032230
         H           -0.767781917664     3.681247368037    -1.678156902567     1.007825032230
         H            2.086991513236    -1.646600344663     2.846573750133     1.007825032230
         H           -0.762979344264    -3.290368370363     2.349897326233     1.007825032230
         H           -0.767540509764    -0.387283699163     4.027170856633     1.007825032230

  Charge       = 0
  Multiplicity = 2
  Basis Set: ANONYMOUS58B1275E
    Blend: 6-31G_2DFP_
  Basis Set: (ANONYMOUS58B1275E AUX)
    Blend: DEF2-UNIVERSAL-JKFIT

    Orbital Energies [Eh]
    ---------------------

    Alpha Occupied:

       1A    -10.180290     2A    -10.167083     3A    -10.167083
       4A    -10.167037     5A     -0.798023     6A     -0.686197
       7A     -0.686197     8A     -0.530944     9A     -0.441134
      10A     -0.434740    11A     -0.434740    12A     -0.382462
      13A     -0.382460    14A     -0.363409    15A     -0.338158
      16A     -0.338158    17A     -0.168982

    Alpha Virtual:

      18A      0.076064    19A      0.134087    20A      0.134088
      21A      0.142502    22A      0.142502    23A      0.154984
      24A      0.178615    25A      0.178615    26A      0.203835
      27A      0.214681    28A      0.276226    29A      0.276227
      30A      0.399221    31A      0.399225    32A      0.403252
      33A      0.424043    34A      0.424043    35A      0.456772
      36A      0.495380    37A      0.495381    38A      0.512104
      39A      0.513922    40A      0.578770    41A      0.578778
      42A      0.591532    43A      0.591534    44A      0.602526
      45A      0.624598    46A      0.631599    47A      0.636296
      48A      0.636299    49A      0.663527    50A      0.663528
      51A      0.683848    52A      0.683849    53A      0.734862
      54A      0.825426    55A      0.825429    56A      0.854051
      57A      0.914983    58A      0.914988    59A      0.944154
      60A      0.944943    61A      0.961215    62A      0.961231
      63A      1.003287    64A      1.128184    65A      1.128196
      66A      1.142635    67A      1.162652    68A      1.162665
      69A      1.223750    70A      1.274618    71A      1.274622
      72A      1.279514    73A      1.324542    74A      1.324545
      75A      1.356323    76A      1.366192    77A      1.366197
      78A      1.391976    79A      1.403331    80A      1.403333
      81A      1.417099    82A      1.417105    83A      1.427658
      84A      1.491975    85A      1.498524    86A      1.542981
      87A      1.542983    88A      1.574552    89A      1.574554
      90A      1.669051    91A      1.739904    92A      1.739915
      93A      1.768287    94A      1.830977    95A      1.830978
      96A      1.972297    97A      2.018124    98A      2.019790
      99A      2.019794   100A      2.053080   101A      2.053081
     102A      2.738658   103A      2.738659   104A      2.791145
     105A      2.811517   106A      2.890057   107A      2.890064
     108A      2.895345   109A      2.929332   110A      2.929340
     111A      2.958944   112A      2.964348   113A      2.964362
     114A      3.034169   115A      3.071231   116A      3.071245
     117A      3.084774   118A      3.168879   119A      3.168887
     120A      3.181186   121A      3.284974   122A      3.284974
     123A      3.327413   124A      3.327418   125A      3.375517
     126A      3.490244   127A      3.490264   128A      3.514151
     129A      3.525684   130A      3.568625   131A      3.568645
     132A      3.574998   133A      3.665586   134A      3.665595
     135A      3.679103   136A      3.694019   137A      3.694035
     138A      3.776849   139A      3.776875   140A      3.788821
     141A      3.913326   142A      3.913333   143A      4.035007
     144A      4.111028   145A      4.111033   146A      4.148167
     147A      4.148175   148A      4.173797   149A      4.203489
     150A      4.203757   151A      4.203761   152A      4.211369
     153A      4.315820   154A      4.315840   155A      4.358332
     156A      4.423291   157A      4.423294   158A      4.441478
     159A      4.517182   160A      4.517182   161A      4.578988
     162A      4.579000   163A      4.617909   164A      4.710739
     165A      4.775389   166A      4.775397   167A      4.838221
     168A      4.961567   169A      5.002075   170A      5.002088
     171A      5.227500   172A      5.246455   173A      5.246455
     174A      5.355743   175A      5.355756   176A      5.480600

    Beta Occupied:

       1A    -10.167838     2A    -10.167837     3A    -10.167811
       4A    -10.166479     5A     -0.781333     6A     -0.683994
       7A     -0.683994     8A     -0.511962     9A     -0.431092
      10A     -0.431091    11A     -0.421789    12A     -0.376531
      13A     -0.376529    14A     -0.362389    15A     -0.333296
      16A     -0.333296

    Beta Virtual:

      17A     -0.025912    18A      0.077076    19A      0.134985
      20A      0.134986    21A      0.144374    22A      0.144375
      23A      0.163486    24A      0.182301    25A      0.182301
      26A      0.214906    27A      0.219175    28A      0.282554
      29A      0.282556    30A      0.400396    31A      0.400401
      32A      0.419708    33A      0.426855    34A      0.426856
      35A      0.468757    36A      0.497648    37A      0.497649
      38A      0.513850    39A      0.556235    40A      0.584319
      41A      0.584327    42A      0.597703    43A      0.597704
      44A      0.609943    45A      0.627979    46A      0.631791
      47A      0.639599    48A      0.639603    49A      0.667093
      50A      0.667094    51A      0.686493    52A      0.686494
      53A      0.757309    54A      0.830610    55A      0.830613
      56A      0.855417    57A      0.922951    58A      0.922957
      59A      0.946012    60A      0.953870    61A      0.966530
      62A      0.966546    63A      1.008517    64A      1.132205
      65A      1.132217    66A      1.156053    67A      1.167715
      68A      1.167728    69A      1.232665    70A      1.280248
      71A      1.280252    72A      1.285243    73A      1.329553
      74A      1.329555    75A      1.365748    76A      1.371373
      77A      1.371378    78A      1.393043    79A      1.406830
      80A      1.406833    81A      1.422151    82A      1.422157
      83A      1.427914    84A      1.493053    85A      1.508972
      86A      1.547413    87A      1.547414    88A      1.582405
      89A      1.582405    90A      1.673891    91A      1.745662
      92A      1.745673    93A      1.779109    94A      1.834858
      95A      1.834859    96A      1.973178    97A      2.026252
      98A      2.026256    99A      2.039493   100A      2.059755
     101A      2.059756   102A      2.746962   103A      2.746964
     104A      2.811923   105A      2.816252   106A      2.902706
     107A      2.902711   108A      2.925093   109A      2.931840
     110A      2.931849   111A      2.960005   112A      2.968923
     113A      2.968937   114A      3.042143   115A      3.081188
     116A      3.081199   117A      3.086602   118A      3.184541
     119A      3.184546   120A      3.188831   121A      3.289822
     122A      3.289822   123A      3.331213   124A      3.331218
     125A      3.383368   126A      3.492983   127A      3.493003
     128A      3.512516   129A      3.528688   130A      3.574867
     131A      3.581892   132A      3.581913   133A      3.670160
     134A      3.670171   135A      3.692393   136A      3.725757
     137A      3.725773   138A      3.781436   139A      3.781462
     140A      3.817314   141A      3.923104   142A      3.923112
     143A      4.045815   144A      4.117935   145A      4.117938
     146A      4.155331   147A      4.155340   148A      4.187865
     149A      4.209691   150A      4.209694   151A      4.211466
     152A      4.215937   153A      4.323170   154A      4.323190
     155A      4.361715   156A      4.431573   157A      4.431576
     158A      4.444358   159A      4.525035   160A      4.525036
     161A      4.589609   162A      4.589621   163A      4.625121
     164A      4.721086   165A      4.782340   166A      4.782348
     167A      4.841135   168A      4.966384   169A      5.006137
     170A      5.006150   171A      5.233233   172A      5.248253
     173A      5.248254   174A      5.362247   175A      5.362260
     176A      5.482929

    Final Occupation by Irrep:
              A
    DOCC [    16 ]
    SOCC [     1 ]

  @DF-UKS Final Energy:  -157.81308180910244

   => Energetics <=

    Nuclear Repulsion Energy =            125.4225910180021515
    One-Electron Energy =                -458.8039150170827725
    Two-Electron Energy =                 195.8752721375364274
    DFT Exchange-Correlation Energy =     -20.3070299475582452
    Empirical Dispersion Energy =           0.0000000000000000
    VV10 Nonlocal Energy =                  0.0000000000000000
    Total Energy =                       -157.8130818091024423

  UHF NO Occupations:
  HONO-2 :   15  A 1.9995993
  HONO-1 :   16  A 1.9989827
  HONO-0 :   17  A 1.0000000
  LUNO+0 :   18  A 0.0010173
  LUNO+1 :   19  A 0.0004007
  LUNO+2 :   20  A 0.0001968
  LUNO+3 :   21  A 0.0001968

Computation Completed

Properties will be evaluated at   0.000000,   0.000000,   0.000000 [a0]

Properties computed using the SCF density matrix

  Nuclear Dipole Moment: [e a0]
     X:     0.8279      Y:    -0.0000      Z:    -0.0000

  Electronic Dipole Moment: [e a0]
     X:    -0.7502      Y:     0.0000      Z:     0.0000

  Dipole Moment: [e a0]
     X:     0.0778      Y:     0.0000      Z:     0.0000     Total:     0.0778

  Dipole Moment: [D]
     X:     0.1977      Y:     0.0000      Z:     0.0000     Total:     0.1977

*** tstop() called on n083 at Fri Nov  5 13:22:07 2021
Module time:
	user time   =     494.33 seconds =       8.24 minutes
	system time =       4.51 seconds =       0.08 minutes
	total time  =        125 seconds =       2.08 minutes
Total time:
	user time   =     494.33 seconds =       8.24 minutes
	system time =       4.51 seconds =       0.08 minutes
	total time  =        125 seconds =       2.08 minutes
Grab this energy -157.81308180910244
    Psi4 stopped on: Friday, 05 November 2021 01:22PM
    Psi4 wall time for execution: 0:02:05.42

*** Psi4 exiting successfully. Buy a developer a beer!
