                               Psi4 1.4a2.dev629

  ==> Input File <==

--------------------------------------------------------------------------
import os
memory 14 GB

molecule {
 C   -0.3265092701   -0.0004980946   -0.0000000000
 C    0.0591265609   -1.4012788505   -2.4264118723
 C    0.0610699270    2.8018421289   -0.0000000000
 C    0.0591265609   -1.4012788505    2.4264118723
 H    2.0893326714   -1.6442403074   -2.8473759713
 H   -0.7663740497   -0.3890917517   -4.0251904226
 H   -0.7644617128   -3.2904545945   -2.3491595581
 H    2.0830068682    3.2888511209   -0.0000000000
 H   -0.7627111706    3.6799557697    1.6800283252
 H   -0.7627111706    3.6799557697   -1.6800283252
 H    2.0893326714   -1.6442403074    2.8473759713
 H   -0.7644617128   -3.2904545945    2.3491595581
 H   -0.7663740497   -0.3890917517    4.0251904226
units bohr
0 2
}

basis {

assign 6-31g_2dfp_

[ 6-31g_2dfp_ ]

spherical

!----------------------------------------------------------------------
! Basis Set Exchange
! Version v0.8.13
! https://www.basissetexchange.org
!----------------------------------------------------------------------
!   Basis set: 6-31G(2df,p)
! Description: 6-31G(2df,p)
!        Role: orbital
!     Version: 0  (Data from the original Basis Set Exchange)
!----------------------------------------------------------------------

****
H     0
S    3   1.00
     18.7311370              0.03349460
      2.8253937              0.23472695
      0.6401217              0.81375733
S    1   1.00
      0.1612778              1.00000000
P    1   1.00
      1.5000000              1.0000000
P    1   1.00
      0.3750000              1.0000000
****
B     0
S    6   1.00
   2068.8823000              0.0018663
    310.6495700              0.0142515
     70.6830330              0.0695516
     19.8610800              0.2325729
      6.2993048              0.4670787
      2.1270270              0.3634314
SP   3   1.00
      4.7279710             -0.1303938              0.0745976
      1.1903377             -0.1307889              0.3078467
      0.3594117              1.1309444              0.7434568
SP   1   1.00
      0.1267512              1.0000000              1.0000000
D    1   1.00
      0.8020000              1.0000000
D    1   1.00
      0.2005000              1.0000000
F    1   1.00
      0.5000000              1.0000000
****
C     0
S    6   1.00
   3047.5249000              0.0018347
    457.3695100              0.0140373
    103.9486900              0.0688426
     29.2101550              0.2321844
      9.2866630              0.4679413
      3.1639270              0.3623120
SP   3   1.00
      7.8682724             -0.1193324              0.0689991
      1.8812885             -0.1608542              0.3164240
      0.5442493              1.1434564              0.7443083
SP   1   1.00
      0.1687144              1.0000000              1.0000000
D    1   1.00
      1.2520000              1.0000000
D    1   1.00
      0.3130000              1.0000000
F    1   1.00
      0.8000000              1.0000000
****
N     0
S    6   1.00
   4173.5110000              0.0018348
    627.4579000              0.0139950
    142.9021000              0.0685870
     40.2343300              0.2322410
     12.8202100              0.4690700
      4.3904370              0.3604550
SP   3   1.00
     11.6263580             -0.1149610              0.0675800
      2.7162800             -0.1691180              0.3239070
      0.7722180              1.1458520              0.7408950
SP   1   1.00
      0.2120313              1.0000000              1.0000000
D    1   1.00
      1.8260000              1.0000000
D    1   1.00
      0.4565000              1.0000000
F    1   1.00
      1.0000000              1.0000000
****
O     0
S    6   1.00
   5484.6717000              0.0018311
    825.2349500              0.0139501
    188.0469600              0.0684451
     52.9645000              0.2327143
     16.8975700              0.4701930
      5.7996353              0.3585209
SP   3   1.00
     15.5396160             -0.1107775              0.0708743
      3.5999336             -0.1480263              0.3397528
      1.0137618              1.1307670              0.7271586
SP   1   1.00
      0.2700058              1.0000000              1.0000000
D    1   1.00
      2.5840000              1.0000000
D    1   1.00
      0.6460000              1.0000000
F    1   1.00
      1.4000000              1.0000000
****
F     0
S    6   1.00
   7001.7130900              0.0018196169
   1051.3660900              0.0139160796
    239.2856900              0.0684053245
     67.3974453              0.233185760
     21.5199573              0.471267439
      7.40310130             0.356618546
SP   3   1.00
     20.8479528             -0.108506975            0.0716287243
      4.80830834            -0.146451658            0.3459121030
      1.34406986             1.128688580            0.7224699570
SP   1   1.00
      0.358151393            1.0000000              1.0000000
D    1   1.00
      3.5000000              1.0000000
D    1   1.00
      0.8750000              1.0000000
F    1   1.00
      1.8500000              1.0000000
****
Al     0
S    6   1.00
  13983.1000000              0.00194267
   2098.7500000              0.0148599
    477.7050000              0.0728494
    134.3600000              0.2468300
     42.8709000              0.4872580
     14.5189000              0.3234960
SP   6   1.00
    239.6680000             -0.00292619             0.00460285
     57.4419000             -0.0374080              0.0331990
     18.2859000             -0.1144870              0.1362820
      6.5991400              0.1156350              0.3304760
      2.4904900              0.6125950              0.4491460
      0.9445400              0.3937990              0.2657040
SP   3   1.00
      1.2779000             -0.2276060             -0.0175130
      0.3975900              0.00144583             0.2445330
      0.1600950              1.0927900              0.8049340
SP   1   1.00
      0.0556577              1.0000000              1.0000000
D    1   1.00
      0.6500000              1.0000000
D    1   1.00
      0.1625000              1.0000000
F    1   1.00
      0.2500000              1.0000000
****
Si     0
S    6   1.00
  16115.9000000              0.00195948
   2425.5800000              0.01492880
    553.8670000              0.07284780
    156.3400000              0.24613000
     50.0683000              0.48591400
     17.0178000              0.32500200
SP   6   1.00
    292.7180000             -0.00278094             0.00443826
     69.8731000             -0.03571460             0.03266790
     22.3363000             -0.11498500             0.13472100
      8.1503900              0.09356340             0.32867800
      3.1345800              0.60301700             0.44964000
      1.2254300              0.41895900             0.26137200
SP   3   1.00
      1.7273800             -0.24463000            -0.01779510
      0.5729220              0.00431572             0.25353900
      0.2221920              1.09818000             0.80066900
SP   1   1.00
      0.0778369              1.00000000             1.00000000
D    1   1.00
      0.9000000              1.0000000
D    1   1.00
      0.2250000              1.0000000
F    1   1.00
      0.3200000              1.0000000
****
P     0
S    6   1.00
  19413.3000000              0.0018516
   2909.4200000              0.0142062
    661.3640000              0.0699995
    185.7590000              0.2400790
     59.1943000              0.4847620
     20.0310000              0.3352000
SP   6   1.00
    339.4780000             -0.00278217             0.00456462
     81.0101000             -0.0360499              0.03369360
     25.8780000             -0.1166310              0.13975500
      9.4522100              0.0968328              0.33936200
      3.6656600              0.6144180              0.45092100
      1.4674600              0.4037980              0.23858600
SP   3   1.00
      2.1562300             -0.2529230             -0.01776530
      0.7489970              0.0328517              0.27405800
      0.2831450              1.0812500              0.78542100
SP   1   1.00
      0.0998317              1.0000000              1.00000000
D    1   1.00
      1.1000000              1.0000000
D    1   1.00
      0.2750000              1.0000000
F    1   1.00
      0.4500000              1.0000000
****
S     0
S    6   1.00
  21917.1000000              0.0018690
   3301.4900000              0.0142300
    754.1460000              0.0696960
    212.7110000              0.2384870
     67.9896000              0.4833070
     23.0515000              0.3380740
SP   6   1.00
    423.7350000             -0.0023767              0.0040610
    100.7100000             -0.0316930              0.0306810
     32.1599000             -0.1133170              0.1304520
     11.8079000              0.0560900              0.3272050
      4.6311000              0.5922550              0.4528510
      1.8702500              0.4550060              0.2560420
SP   3   1.00
      2.6158400             -0.2503740             -0.0145110
      0.9221670              0.0669570              0.3102630
      0.3412870              1.0545100              0.7544830
SP   1   1.00
      0.1171670              1.0000000              1.0000000
D    1   1.00
      1.3000000              1.0000000
D    1   1.00
      0.3250000              1.0000000
F    1   1.00
      0.5500000              1.0000000
****
Cl     0
S    6   1.00
  25180.1000000              0.0018330
   3780.3500000              0.0140340
    860.4740000              0.0690970
    242.1450000              0.2374520
     77.3349000              0.4830340
     26.2470000              0.3398560
SP   6   1.00
    491.7650000             -0.0022974              0.0039894
    116.9840000             -0.0307140              0.0303180
     37.4153000             -0.1125280              0.1298800
     13.7834000              0.0450160              0.3279510
      5.4521500              0.5893530              0.4535270
      2.2258800              0.4652060              0.2521540
SP   3   1.00
      3.1864900             -0.2518300             -0.0142990
      1.1442700              0.0615890              0.3235720
      0.4203770              1.0601800              0.7435070
SP   1   1.00
      0.1426570              1.0000000              1.0000000
D    1   1.00
      1.5000000              1.0000000
D    1   1.00
      0.3750000              1.0000000
F    1   1.00
      0.7000000              1.0000000
****
}

set {
reference uhf
freeze_core true
e_convergence 10
d_convergence 10
dft_spherical_points 1202
dft_radial_points 99
}

e = energy('b3lyp')

print_out('Grab this energy {0}'.format(e))
--------------------------------------------------------------------------

    Molecular point group: cs

    Geometry (in Bohr), charge = 0, multiplicity = 2:

       Center              X                  Y                   Z               Mass
    ------------   -----------------  -----------------  -----------------  -----------------
         C           -0.325132853491    -0.000263904290     0.000000000000    12.000000000000
         C            0.060502977509    -1.401044660190    -2.426411872300    12.000000000000
         C            0.062446343609     2.802076319210     0.000000000000    12.000000000000
         C            0.060502977509    -1.401044660190     2.426411872300    12.000000000000
         H            2.090709088009    -1.644006117090    -2.847375971300     1.007825032230
         H           -0.764997633091    -0.388857561390    -4.025190422600     1.007825032230
         H           -0.763085296191    -3.290220404190    -2.349159558100     1.007825032230
         H            2.084383284809     3.289085311210     0.000000000000     1.007825032230
         H           -0.761334753991     3.680189960010     1.680028325200     1.007825032230
         H           -0.761334753991     3.680189960010    -1.680028325200     1.007825032230
         H            2.090709088009    -1.644006117090     2.847375971300     1.007825032230
         H           -0.763085296191    -3.290220404190     2.349159558100     1.007825032230
         H           -0.764997633091    -0.388857561390     4.025190422600     1.007825032230

  Charge       = 0
  Multiplicity = 2
  Basis Set: ANONYMOUSA121DD6D
    Blend: 6-31G_2DFP_
  Basis Set: (ANONYMOUSA121DD6D AUX)
    Blend: DEF2-UNIVERSAL-JKFIT

    Orbital Energies [Eh]
    ---------------------

    Alpha Occupied:

       1Ap   -10.180455     1App  -10.167066     2Ap   -10.167049
       3Ap   -10.167000     4Ap    -0.797712     5Ap    -0.686176
       2App   -0.686174     6Ap    -0.530799     7Ap    -0.440891
       8Ap    -0.434835     3App   -0.434796     9Ap    -0.382375
       4App   -0.382326     5App   -0.363893     6App   -0.338081
      10Ap    -0.338015    11Ap    -0.169077

    Alpha Virtual:

      12Ap     0.076088     7App    0.133994    13Ap     0.134324
       8App    0.142646    14Ap     0.142773    15Ap     0.154815
       9App    0.178593    16Ap     0.178758    17Ap     0.203502
      10App    0.214935    18Ap     0.275772    11App    0.275922
      19Ap     0.399175    12App    0.399246    20Ap     0.403302
      13App    0.424005    21Ap     0.424176    22Ap     0.456588
      23Ap     0.495294    14App    0.495587    15App    0.512057
      24Ap     0.513985    16App    0.578733    25Ap     0.579078
      17App    0.591185    26Ap     0.591465    27Ap     0.602271
      28Ap     0.624905    18App    0.631897    19App    0.636290
      29Ap     0.636484    20App    0.662872    30Ap     0.663620
      31Ap     0.683704    21App    0.684052    32Ap     0.734866
      33Ap     0.825214    22App    0.825243    23App    0.853968
      24App    0.914645    34Ap     0.915075    25App    0.944023
      35Ap     0.944591    26App    0.961250    36Ap     0.961524
      37Ap     1.004332    27App    1.128297    38Ap     1.128364
      39Ap     1.141841    28App    1.163005    40Ap     1.163265
      41Ap     1.222904    29App    1.274057    42Ap     1.274335
      43Ap     1.279218    30App    1.324424    44Ap     1.324512
      45Ap     1.354933    31App    1.366368    46Ap     1.366426
      32App    1.392529    33App    1.402973    47Ap     1.403891
      48Ap     1.416001    34App    1.417023    35App    1.427731
      36App    1.491956    49Ap     1.498575    37App    1.542752
      50Ap     1.543688    51Ap     1.574384    38App    1.574702
      52Ap     1.670353    39App    1.739065    53Ap     1.739310
      54Ap     1.768142    55Ap     1.830923    40App    1.832523
      41App    1.972271    56Ap     2.017900    42App    2.018306
      57Ap     2.019309    43App    2.051336    58Ap     2.053226
      44App    2.737744    59Ap     2.738565    60Ap     2.790707
      45App    2.811699    61Ap     2.889739    46App    2.889789
      62Ap     2.895002    47App    2.929644    63Ap     2.929653
      48App    2.959164    49App    2.964025    64Ap     2.964661
      65Ap     3.033977    50App    3.070631    66Ap     3.070691
      51App    3.084427    67Ap     3.168534    52App    3.168994
      68Ap     3.180792    69Ap     3.285341    53App    3.285990
      70Ap     3.327877    54App    3.328308    71Ap     3.375327
      72Ap     3.489828    55App    3.490124    56App    3.513556
      73Ap     3.525486    74Ap     3.567869    57App    3.568063
      58App    3.574707    59App    3.665670    75Ap     3.667092
      76Ap     3.680676    77Ap     3.693700    60App    3.693984
      78Ap     3.775894    61App    3.775959    79Ap     3.787806
      80Ap     3.912226    62App    3.912435    81Ap     4.033267
      63App    4.111293    82Ap     4.112182    83Ap     4.147747
      64App    4.148901    84Ap     4.173089    85Ap     4.201345
      86Ap     4.202947    65App    4.203442    66App    4.210816
      67App    4.314917    87Ap     4.316649    68App    4.359074
      88Ap     4.423512    69App    4.424150    70App    4.444317
      71App    4.516293    89Ap     4.517682    90Ap     4.578240
      72App    4.578486    91Ap     4.616684    92Ap     4.709039
      73App    4.773899    93Ap     4.774800    74App    4.836664
      94Ap     4.962929    75App    5.001485    95Ap     5.002991
      96Ap     5.227943    76App    5.244729    97Ap     5.248902
      77App    5.354763    98Ap     5.357213    78App    5.478861

    Beta Occupied:

       1App  -10.167820     1Ap   -10.167807     2Ap   -10.167767
       3Ap   -10.166635     4Ap    -0.781053     2App   -0.683986
       5Ap    -0.683978     6Ap    -0.511775     7Ap    -0.431217
       3App   -0.431184     8Ap    -0.421577     9Ap    -0.376470
       4App   -0.376377     5App   -0.362878     6App   -0.333194
      10Ap    -0.333142

    Beta Virtual:

      11Ap    -0.025892    12Ap     0.077099     7App    0.134928
      13Ap     0.135238     8App    0.144533    14Ap     0.144608
      15Ap     0.163304     9App    0.182234    16Ap     0.182438
      10App    0.215160    17Ap     0.218862    18Ap     0.282129
      11App    0.282285    19Ap     0.400350    12App    0.400418
      20Ap     0.419808    13App    0.426813    21Ap     0.426984
      22Ap     0.468433    23Ap     0.497548    14App    0.497855
      15App    0.513797    24Ap     0.556282    16App    0.584289
      25Ap     0.584604    17App    0.597358    26Ap     0.597687
      27Ap     0.609717    28Ap     0.628248    18App    0.632062
      19App    0.639548    29Ap     0.639753    20App    0.666496
      30Ap     0.667181    31Ap     0.686354    21App    0.686667
      32Ap     0.757396    33Ap     0.830400    22App    0.830433
      23App    0.855325    24App    0.922633    34Ap     0.923037
      25App    0.945859    35Ap     0.953486    26App    0.966510
      36Ap     0.966840    37Ap     1.009621    38Ap     1.132228
      27App    1.132279    39Ap     1.155229    28App    1.168104
      40Ap     1.168438    41Ap     1.231870    29App    1.279659
      42Ap     1.279959    43Ap     1.284967    30App    1.329475
      44Ap     1.329558    45Ap     1.364326    46Ap     1.371625
      31App    1.371665    32App    1.393598    33App    1.406373
      47Ap     1.407388    48Ap     1.421019    34App    1.422077
      35App    1.427981    36App    1.493008    49Ap     1.508997
      37App    1.547280    50Ap     1.548190    51Ap     1.582166
      38App    1.582457    52Ap     1.675185    39App    1.744835
      53Ap     1.745087    54Ap     1.778922    55Ap     1.834766
      40App    1.836380    41App    1.973130    42App    2.024634
      56Ap     2.025576    57Ap     2.039426    43App    2.058116
      58Ap     2.059927    44App    2.746091    59Ap     2.746895
      45App    2.812110    60Ap     2.815791    61Ap     2.902410
      46App    2.902543    62Ap     2.924603    47App    2.932067
      63Ap     2.932138    48App    2.960227    49App    2.968572
      64Ap     2.969239    65Ap     3.041950    50App    3.080456
      66Ap     3.080718    51App    3.086267    67Ap     3.184093
      52App    3.184777    68Ap     3.188542    69Ap     3.290086
      53App    3.290756    70Ap     3.331675    54App    3.332151
      71Ap     3.383105    72Ap     3.492606    55App    3.492825
      56App    3.511923    73Ap     3.528495    57App    3.574536
      74Ap     3.581235    58App    3.581536    59App    3.670303
      75Ap     3.671820    76Ap     3.693953    77Ap     3.725341
      60App    3.725652    61App    3.780457    78Ap     3.780532
      79Ap     3.816374    80Ap     3.922022    62App    3.922276
      81Ap     4.044166    63App    4.118103    82Ap     4.118954
      83Ap     4.155032    64App    4.156072    84Ap     4.187170
      85Ap     4.207666    65App    4.209431    86Ap     4.210469
      66App    4.215326    67App    4.322346    87Ap     4.324074
      68App    4.362449    88Ap     4.431786    69App    4.432424
      70App    4.447168    71App    4.524084    89Ap     4.525479
      90Ap     4.588803    72App    4.589077    91Ap     4.623805
      92Ap     4.719473    73App    4.780828    93Ap     4.781731
      74App    4.839578    94Ap     4.967740    75App    5.005555
      95Ap     5.007024    96Ap     5.233626    76App    5.246515
      97Ap     5.250666    77App    5.361216    98Ap     5.363686
      78App    5.481181

    Final Occupation by Irrep:
             Ap   App
    DOCC [    10,    6 ]
    SOCC [     1,    0 ]

  @DF-UKS Final Energy:  -157.81305604853222

   => Energetics <=

    Nuclear Repulsion Energy =            125.3858979398850693
    One-Electron Energy =                -458.7313329420777563
    Two-Electron Energy =                 195.8392692247266211
    DFT Exchange-Correlation Energy =     -20.3068902710661483
    Empirical Dispersion Energy =           0.0000000000000000
    VV10 Nonlocal Energy =                  0.0000000000000000
    Total Energy =                       -157.8130560485322178

  UHF NO Occupations:
  HONO-2 :    9 Ap 1.9995999
  HONO-1 :   10 Ap 1.9989813
  HONO-0 :   11 Ap 1.0000000
  LUNO+0 :   12 Ap 0.0010187
  LUNO+1 :   13 Ap 0.0004001
  LUNO+2 :    7App 0.0001976
  LUNO+3 :   14 Ap 0.0001976

Computation Completed

Properties will be evaluated at   0.000000,   0.000000,   0.000000 [a0]

Properties computed using the SCF density matrix

  Nuclear Dipole Moment: [e a0]
     X:     0.8369      Y:     0.0016      Z:     0.0000

  Electronic Dipole Moment: [e a0]
     X:    -0.7591      Y:    -0.0023      Z:     0.0000

  Dipole Moment: [e a0]
     X:     0.0778      Y:    -0.0006      Z:     0.0000     Total:     0.0778

  Dipole Moment: [D]
     X:     0.1977      Y:    -0.0016      Z:     0.0000     Total:     0.1977

*** tstop() called on n083 at Fri Nov  5 13:32:38 2021
Module time:
	user time   =     496.29 seconds =       8.27 minutes
	system time =       4.59 seconds =       0.08 minutes
	total time  =        126 seconds =       2.10 minutes
Total time:
	user time   =     496.29 seconds =       8.27 minutes
	system time =       4.59 seconds =       0.08 minutes
	total time  =        126 seconds =       2.10 minutes
Grab this energy -157.81305604853222
    Psi4 stopped on: Friday, 05 November 2021 01:32PM
    Psi4 wall time for execution: 0:02:05.97

*** Psi4 exiting successfully. Buy a developer a beer!
