                               Psi4 1.4a2.dev629

  ==> Input File <==

--------------------------------------------------------------------------
import os
memory 14 GB

molecule {
 C   -0.3233403650    0.0002440403    0.0000004108
 C    0.0616968033   -1.3995717497   -2.4270624450
 C    0.0599095665    2.8018823837    0.0016011751
 C    0.0616944656   -1.4023440341    2.4254628875
 H    2.0885555844   -1.6475510856   -2.8489667210
 H   -0.7639461921   -0.3866881715   -4.0231005229
 H   -0.7653843201   -3.2915316140   -2.3486780948
 H    2.0835458250    3.2820115026   -0.0006195828
 H   -0.7674778654    3.6836518387    1.6763090014
 H   -0.7670871866    3.6835200367   -1.6769143994
 H    2.0885567299   -1.6464744705    2.8495870705
 H   -0.7657796166   -3.2910729518    2.3490923504
 H   -0.7635513056   -0.3861000386    4.0232888702
units bohr
0 2
}

basis {

assign 6-31g_2dfp_

[ 6-31g_2dfp_ ]

spherical

!----------------------------------------------------------------------
! Basis Set Exchange
! Version v0.8.13
! https://www.basissetexchange.org
!----------------------------------------------------------------------
!   Basis set: 6-31G(2df,p)
! Description: 6-31G(2df,p)
!        Role: orbital
!     Version: 0  (Data from the original Basis Set Exchange)
!----------------------------------------------------------------------

****
H     0
S    3   1.00
     18.7311370              0.03349460
      2.8253937              0.23472695
      0.6401217              0.81375733
S    1   1.00
      0.1612778              1.00000000
P    1   1.00
      1.5000000              1.0000000
P    1   1.00
      0.3750000              1.0000000
****
B     0
S    6   1.00
   2068.8823000              0.0018663
    310.6495700              0.0142515
     70.6830330              0.0695516
     19.8610800              0.2325729
      6.2993048              0.4670787
      2.1270270              0.3634314
SP   3   1.00
      4.7279710             -0.1303938              0.0745976
      1.1903377             -0.1307889              0.3078467
      0.3594117              1.1309444              0.7434568
SP   1   1.00
      0.1267512              1.0000000              1.0000000
D    1   1.00
      0.8020000              1.0000000
D    1   1.00
      0.2005000              1.0000000
F    1   1.00
      0.5000000              1.0000000
****
C     0
S    6   1.00
   3047.5249000              0.0018347
    457.3695100              0.0140373
    103.9486900              0.0688426
     29.2101550              0.2321844
      9.2866630              0.4679413
      3.1639270              0.3623120
SP   3   1.00
      7.8682724             -0.1193324              0.0689991
      1.8812885             -0.1608542              0.3164240
      0.5442493              1.1434564              0.7443083
SP   1   1.00
      0.1687144              1.0000000              1.0000000
D    1   1.00
      1.2520000              1.0000000
D    1   1.00
      0.3130000              1.0000000
F    1   1.00
      0.8000000              1.0000000
****
N     0
S    6   1.00
   4173.5110000              0.0018348
    627.4579000              0.0139950
    142.9021000              0.0685870
     40.2343300              0.2322410
     12.8202100              0.4690700
      4.3904370              0.3604550
SP   3   1.00
     11.6263580             -0.1149610              0.0675800
      2.7162800             -0.1691180              0.3239070
      0.7722180              1.1458520              0.7408950
SP   1   1.00
      0.2120313              1.0000000              1.0000000
D    1   1.00
      1.8260000              1.0000000
D    1   1.00
      0.4565000              1.0000000
F    1   1.00
      1.0000000              1.0000000
****
O     0
S    6   1.00
   5484.6717000              0.0018311
    825.2349500              0.0139501
    188.0469600              0.0684451
     52.9645000              0.2327143
     16.8975700              0.4701930
      5.7996353              0.3585209
SP   3   1.00
     15.5396160             -0.1107775              0.0708743
      3.5999336             -0.1480263              0.3397528
      1.0137618              1.1307670              0.7271586
SP   1   1.00
      0.2700058              1.0000000              1.0000000
D    1   1.00
      2.5840000              1.0000000
D    1   1.00
      0.6460000              1.0000000
F    1   1.00
      1.4000000              1.0000000
****
F     0
S    6   1.00
   7001.7130900              0.0018196169
   1051.3660900              0.0139160796
    239.2856900              0.0684053245
     67.3974453              0.233185760
     21.5199573              0.471267439
      7.40310130             0.356618546
SP   3   1.00
     20.8479528             -0.108506975            0.0716287243
      4.80830834            -0.146451658            0.3459121030
      1.34406986             1.128688580            0.7224699570
SP   1   1.00
      0.358151393            1.0000000              1.0000000
D    1   1.00
      3.5000000              1.0000000
D    1   1.00
      0.8750000              1.0000000
F    1   1.00
      1.8500000              1.0000000
****
Al     0
S    6   1.00
  13983.1000000              0.00194267
   2098.7500000              0.0148599
    477.7050000              0.0728494
    134.3600000              0.2468300
     42.8709000              0.4872580
     14.5189000              0.3234960
SP   6   1.00
    239.6680000             -0.00292619             0.00460285
     57.4419000             -0.0374080              0.0331990
     18.2859000             -0.1144870              0.1362820
      6.5991400              0.1156350              0.3304760
      2.4904900              0.6125950              0.4491460
      0.9445400              0.3937990              0.2657040
SP   3   1.00
      1.2779000             -0.2276060             -0.0175130
      0.3975900              0.00144583             0.2445330
      0.1600950              1.0927900              0.8049340
SP   1   1.00
      0.0556577              1.0000000              1.0000000
D    1   1.00
      0.6500000              1.0000000
D    1   1.00
      0.1625000              1.0000000
F    1   1.00
      0.2500000              1.0000000
****
Si     0
S    6   1.00
  16115.9000000              0.00195948
   2425.5800000              0.01492880
    553.8670000              0.07284780
    156.3400000              0.24613000
     50.0683000              0.48591400
     17.0178000              0.32500200
SP   6   1.00
    292.7180000             -0.00278094             0.00443826
     69.8731000             -0.03571460             0.03266790
     22.3363000             -0.11498500             0.13472100
      8.1503900              0.09356340             0.32867800
      3.1345800              0.60301700             0.44964000
      1.2254300              0.41895900             0.26137200
SP   3   1.00
      1.7273800             -0.24463000            -0.01779510
      0.5729220              0.00431572             0.25353900
      0.2221920              1.09818000             0.80066900
SP   1   1.00
      0.0778369              1.00000000             1.00000000
D    1   1.00
      0.9000000              1.0000000
D    1   1.00
      0.2250000              1.0000000
F    1   1.00
      0.3200000              1.0000000
****
P     0
S    6   1.00
  19413.3000000              0.0018516
   2909.4200000              0.0142062
    661.3640000              0.0699995
    185.7590000              0.2400790
     59.1943000              0.4847620
     20.0310000              0.3352000
SP   6   1.00
    339.4780000             -0.00278217             0.00456462
     81.0101000             -0.0360499              0.03369360
     25.8780000             -0.1166310              0.13975500
      9.4522100              0.0968328              0.33936200
      3.6656600              0.6144180              0.45092100
      1.4674600              0.4037980              0.23858600
SP   3   1.00
      2.1562300             -0.2529230             -0.01776530
      0.7489970              0.0328517              0.27405800
      0.2831450              1.0812500              0.78542100
SP   1   1.00
      0.0998317              1.0000000              1.00000000
D    1   1.00
      1.1000000              1.0000000
D    1   1.00
      0.2750000              1.0000000
F    1   1.00
      0.4500000              1.0000000
****
S     0
S    6   1.00
  21917.1000000              0.0018690
   3301.4900000              0.0142300
    754.1460000              0.0696960
    212.7110000              0.2384870
     67.9896000              0.4833070
     23.0515000              0.3380740
SP   6   1.00
    423.7350000             -0.0023767              0.0040610
    100.7100000             -0.0316930              0.0306810
     32.1599000             -0.1133170              0.1304520
     11.8079000              0.0560900              0.3272050
      4.6311000              0.5922550              0.4528510
      1.8702500              0.4550060              0.2560420
SP   3   1.00
      2.6158400             -0.2503740             -0.0145110
      0.9221670              0.0669570              0.3102630
      0.3412870              1.0545100              0.7544830
SP   1   1.00
      0.1171670              1.0000000              1.0000000
D    1   1.00
      1.3000000              1.0000000
D    1   1.00
      0.3250000              1.0000000
F    1   1.00
      0.5500000              1.0000000
****
Cl     0
S    6   1.00
  25180.1000000              0.0018330
   3780.3500000              0.0140340
    860.4740000              0.0690970
    242.1450000              0.2374520
     77.3349000              0.4830340
     26.2470000              0.3398560
SP   6   1.00
    491.7650000             -0.0022974              0.0039894
    116.9840000             -0.0307140              0.0303180
     37.4153000             -0.1125280              0.1298800
     13.7834000              0.0450160              0.3279510
      5.4521500              0.5893530              0.4535270
      2.2258800              0.4652060              0.2521540
SP   3   1.00
      3.1864900             -0.2518300             -0.0142990
      1.1442700              0.0615890              0.3235720
      0.4203770              1.0601800              0.7435070
SP   1   1.00
      0.1426570              1.0000000              1.0000000
D    1   1.00
      1.5000000              1.0000000
D    1   1.00
      0.3750000              1.0000000
F    1   1.00
      0.7000000              1.0000000
****
}

set {
reference uhf
freeze_core true
e_convergence 10
d_convergence 10
dft_spherical_points 1202
dft_radial_points 99
}

e = energy('b3lyp')

print_out('Grab this energy {0}'.format(e))
--------------------------------------------------------------------------

    Molecular point group: c1

    Geometry (in Bohr), charge = 0, multiplicity = 2:

       Center              X                  Y                   Z               Mass
    ------------   -----------------  -----------------  -----------------  -----------------
         C           -0.323340452683     0.000203898846     0.000000020116    12.000000000000
         C            0.061696715617    -1.399611891154    -2.427062835684    12.000000000000
         C            0.059909478817     2.801842242246     0.001600784416    12.000000000000
         C            0.061694377917    -1.402384175554     2.425462496816    12.000000000000
         H            2.088555496717    -1.647591227054    -2.848967111684     1.007825032230
         H           -0.763946279783    -0.386728312954    -4.023100913584     1.007825032230
         H           -0.765384407783    -3.291571755454    -2.348678485484     1.007825032230
         H            2.083545737317     3.281971361146    -0.000619973484     1.007825032230
         H           -0.767477953083     3.683611697246     1.676308610716     1.007825032230
         H           -0.767087274283     3.683479895246    -1.676914790084     1.007825032230
         H            2.088556642217    -1.646514611954     2.849586679816     1.007825032230
         H           -0.765779704283    -3.291113093254     2.349091959716     1.007825032230
         H           -0.763551393283    -0.386140180054     4.023288479516     1.007825032230

  Charge       = 0
  Multiplicity = 2
  Basis Set: ANONYMOUS0D519AD7
    Blend: 6-31G_2DFP_
  Basis Set: (ANONYMOUS0D519AD7 AUX)
    Blend: DEF2-UNIVERSAL-JKFIT

    Orbital Energies [Eh]
    ---------------------

    Alpha Occupied:

       1A    -10.180342     2A    -10.167055     3A    -10.167013
       4A    -10.166976     5A     -0.797766     6A     -0.686217
       7A     -0.686157     8A     -0.530776     9A     -0.441126
      10A     -0.434758    11A     -0.434587    12A     -0.382823
      13A     -0.382373    14A     -0.363610    15A     -0.338152
      16A     -0.337845    17A     -0.168961

    Alpha Virtual:

      18A      0.076072    19A      0.134107    20A      0.134202
      21A      0.142422    22A      0.142833    23A      0.154879
      24A      0.178644    25A      0.178910    26A      0.203549
      27A      0.214804    28A      0.275964    29A      0.276007
      30A      0.399100    31A      0.399357    32A      0.403344
      33A      0.423995    34A      0.424200    35A      0.456594
      36A      0.495377    37A      0.495401    38A      0.512154
      39A      0.513988    40A      0.578678    41A      0.578946
      42A      0.591379    43A      0.591868    44A      0.602603
      45A      0.624752    46A      0.631760    47A      0.636054
      48A      0.636467    49A      0.663373    50A      0.663452
      51A      0.683740    52A      0.683968    53A      0.734993
      54A      0.825346    55A      0.825467    56A      0.853916
      57A      0.914706    58A      0.915343    59A      0.944107
      60A      0.944615    61A      0.961226    62A      0.961381
      63A      1.003452    64A      1.127696    65A      1.128521
      66A      1.142202    67A      1.163117    68A      1.163433
      69A      1.223323    70A      1.274373    71A      1.274591
      72A      1.279368    73A      1.324277    74A      1.324429
      75A      1.355966    76A      1.366057    77A      1.366072
      78A      1.392458    79A      1.403562    80A      1.404536
      81A      1.416747    82A      1.417448    83A      1.427919
      84A      1.491462    85A      1.499108    86A      1.542821
      87A      1.542847    88A      1.573975    89A      1.574943
      90A      1.669828    91A      1.739333    92A      1.739493
      93A      1.768337    94A      1.830972    95A      1.831823
      96A      1.971723    97A      2.018300    98A      2.018973
      99A      2.019131   100A      2.052177   101A      2.053103
     102A      2.738474   103A      2.738502   104A      2.790919
     105A      2.811436   106A      2.889756   107A      2.890117
     108A      2.894973   109A      2.929191   110A      2.929802
     111A      2.958991   112A      2.964188   113A      2.964578
     114A      3.034003   115A      3.070635   116A      3.071937
     117A      3.084349   118A      3.168553   119A      3.169019
     120A      3.180579   121A      3.285197   122A      3.285429
     123A      3.326290   124A      3.328046   125A      3.375617
     126A      3.489088   127A      3.491232   128A      3.513977
     129A      3.525360   130A      3.568313   131A      3.568317
     132A      3.575300   133A      3.665954   134A      3.666778
     135A      3.679664   136A      3.693467   137A      3.694773
     138A      3.776726   139A      3.776882   140A      3.789170
     141A      3.912100   142A      3.912355   143A      4.034449
     144A      4.111242   145A      4.111496   146A      4.148092
     147A      4.148143   148A      4.173245   149A      4.202106
     150A      4.203279   151A      4.203420   152A      4.210841
     153A      4.315767   154A      4.316142   155A      4.358974
     156A      4.424393   157A      4.424536   158A      4.443402
     159A      4.516236   160A      4.517422   161A      4.578268
     162A      4.578291   163A      4.617581   164A      4.709405
     165A      4.773994   166A      4.775213   167A      4.836915
     168A      4.962866   169A      5.002395   170A      5.003503
     171A      5.228067   172A      5.246268   173A      5.247365
     174A      5.355458   175A      5.355561   176A      5.479349

    Beta Occupied:

       1A    -10.167807     2A    -10.167768     3A    -10.167749
       4A    -10.166520     5A     -0.781091     6A     -0.684015
       7A     -0.683965     8A     -0.511747     9A     -0.431140
      10A     -0.430946    11A     -0.421824    12A     -0.376913
      13A     -0.376452    14A     -0.362594    15A     -0.333263
      16A     -0.332980

    Beta Virtual:

      17A     -0.025743    18A      0.077081    19A      0.135003
      20A      0.135085    21A      0.144315    22A      0.144682
      23A      0.163338    24A      0.182311    25A      0.182587
      26A      0.215027    27A      0.218937    28A      0.282306
      29A      0.282360    30A      0.400273    31A      0.400522
      32A      0.419791    33A      0.426805    34A      0.427012
      35A      0.468502    36A      0.497638    37A      0.497663
      38A      0.513896    39A      0.556326    40A      0.584223
      41A      0.584502    42A      0.597554    43A      0.598056
      44A      0.610020    45A      0.628122    46A      0.631934
      47A      0.639331    48A      0.639751    49A      0.666928
      50A      0.667025    51A      0.686391    52A      0.686586
      53A      0.757516    54A      0.830517    55A      0.830632
      56A      0.855269    57A      0.922702    58A      0.923290
      59A      0.945947    60A      0.953539    61A      0.966543
      62A      0.966676    63A      1.008692    64A      1.131769
      65A      1.132503    66A      1.155575    67A      1.168164
      68A      1.168540    69A      1.232296    70A      1.279985
      71A      1.280175    72A      1.285120    73A      1.329261
      74A      1.329422    75A      1.365365    76A      1.371312
      77A      1.371318    78A      1.393520    79A      1.407021
      80A      1.408007    81A      1.421787    82A      1.422495
      83A      1.428201    84A      1.492529    85A      1.509528
      86A      1.547155    87A      1.547336    88A      1.581753
      89A      1.582904    90A      1.674674    91A      1.745097
      92A      1.745254    93A      1.779116    94A      1.834833
      95A      1.835674    96A      1.972584    97A      2.025395
      98A      2.025514    99A      2.039670   100A      2.058878
     101A      2.059833   102A      2.746797   103A      2.746849
     104A      2.811806   105A      2.816096   106A      2.902444
     107A      2.902828   108A      2.924654   109A      2.931682
     110A      2.932275   111A      2.960059   112A      2.968733
     113A      2.969117   114A      3.041938   115A      3.080503
     116A      3.081890   117A      3.086165   118A      3.184307
     119A      3.184773   120A      3.188253   121A      3.289958
     122A      3.290265   123A      3.330106   124A      3.331839
     125A      3.383436   126A      3.491841   127A      3.493940
     128A      3.512350   129A      3.528396   130A      3.574892
     131A      3.581710   132A      3.581865   133A      3.670715
     134A      3.671519   135A      3.692950   136A      3.725348
     137A      3.726169   138A      3.781287   139A      3.781380
     140A      3.817700   141A      3.921910   142A      3.922178
     143A      4.045336   144A      4.118084   145A      4.118287
     146A      4.155219   147A      4.155432   148A      4.187304
     149A      4.208506   150A      4.209358   151A      4.210782
     152A      4.215316   153A      4.323237   154A      4.323554
     155A      4.362335   156A      4.432599   157A      4.432764
     158A      4.446283   159A      4.524033   160A      4.525206
     161A      4.588854   162A      4.588908   163A      4.624774
     164A      4.719748   165A      4.780916   166A      4.782198
     167A      4.839833   168A      4.967661   169A      5.006449
     170A      5.007527   171A      5.233782   172A      5.248054
     173A      5.249148   174A      5.361945   175A      5.362034
     176A      5.481670

    Final Occupation by Irrep:
              A
    DOCC [    16 ]
    SOCC [     1 ]

  @DF-UKS Final Energy:  -157.81306520781573

   => Energetics <=

    Nuclear Repulsion Energy =            125.3946153100387164
    One-Electron Energy =                -458.7488815885698159
    Two-Electron Energy =                 195.8483443776210038
    DFT Exchange-Correlation Energy =     -20.3071433069056368
    Empirical Dispersion Energy =           0.0000000000000000
    VV10 Nonlocal Energy =                  0.0000000000000000
    Total Energy =                       -157.8130652078157254

  UHF NO Occupations:
  HONO-2 :   15  A 1.9996009
  HONO-1 :   16  A 1.9989805
  HONO-0 :   17  A 1.0000000
  LUNO+0 :   18  A 0.0010195
  LUNO+1 :   19  A 0.0003991
  LUNO+2 :   20  A 0.0001977
  LUNO+3 :   21  A 0.0001974

Computation Completed

Properties will be evaluated at   0.000000,   0.000000,   0.000000 [a0]

Properties computed using the SCF density matrix

  Nuclear Dipole Moment: [e a0]
     X:     0.8272      Y:    -0.0003      Z:    -0.0000

  Electronic Dipole Moment: [e a0]
     X:    -0.7493      Y:     0.0011      Z:     0.0000

  Dipole Moment: [e a0]
     X:     0.0779      Y:     0.0008      Z:     0.0000     Total:     0.0779

  Dipole Moment: [D]
     X:     0.1980      Y:     0.0019      Z:     0.0000     Total:     0.1980

*** tstop() called on n073 at Fri Nov  5 12:49:05 2021
Module time:
	user time   =     534.35 seconds =       8.91 minutes
	system time =      12.37 seconds =       0.21 minutes
	total time  =        137 seconds =       2.28 minutes
Total time:
	user time   =     534.35 seconds =       8.91 minutes
	system time =      12.37 seconds =       0.21 minutes
	total time  =        137 seconds =       2.28 minutes
Grab this energy -157.81306520781573
    Psi4 stopped on: Friday, 05 November 2021 12:49PM
    Psi4 wall time for execution: 0:02:17.53

*** Psi4 exiting successfully. Buy a developer a beer!
