                               Psi4 1.4a2.dev629

  ==> Input File <==

--------------------------------------------------------------------------
import os
memory 14 GB

molecule {
 C   -0.3233403751    0.0004915750    0.0019973414
 C    0.0612263546   -1.4015008136   -2.4263727388
 C    0.0611166934    2.8026167470    0.0011533642
 C    0.0609567885   -1.3997649722    2.4256819148
 H    2.0888310026   -1.6477578450   -2.8496330047
 H   -0.7663191594   -0.3842129781   -4.0241285053
 H   -0.7677030236   -3.2958805143   -2.3505699782
 H    2.0826138279    3.2886018781    0.0040863951
 H   -0.7648402813    3.6853445049    1.6716579909
 H   -0.7620979203    3.6741203789   -1.6732419638
 H    2.0892198541   -1.6402280923    2.8447974015
 H   -0.7654520541   -3.2927983354    2.3462965639
 H   -0.7668195841   -0.3890558467    4.0282752189
units bohr
0 2
}

basis {

assign 6-31g_2dfp_

[ 6-31g_2dfp_ ]

spherical

!----------------------------------------------------------------------
! Basis Set Exchange
! Version v0.8.13
! https://www.basissetexchange.org
!----------------------------------------------------------------------
!   Basis set: 6-31G(2df,p)
! Description: 6-31G(2df,p)
!        Role: orbital
!     Version: 0  (Data from the original Basis Set Exchange)
!----------------------------------------------------------------------

****
H     0
S    3   1.00
     18.7311370              0.03349460
      2.8253937              0.23472695
      0.6401217              0.81375733
S    1   1.00
      0.1612778              1.00000000
P    1   1.00
      1.5000000              1.0000000
P    1   1.00
      0.3750000              1.0000000
****
B     0
S    6   1.00
   2068.8823000              0.0018663
    310.6495700              0.0142515
     70.6830330              0.0695516
     19.8610800              0.2325729
      6.2993048              0.4670787
      2.1270270              0.3634314
SP   3   1.00
      4.7279710             -0.1303938              0.0745976
      1.1903377             -0.1307889              0.3078467
      0.3594117              1.1309444              0.7434568
SP   1   1.00
      0.1267512              1.0000000              1.0000000
D    1   1.00
      0.8020000              1.0000000
D    1   1.00
      0.2005000              1.0000000
F    1   1.00
      0.5000000              1.0000000
****
C     0
S    6   1.00
   3047.5249000              0.0018347
    457.3695100              0.0140373
    103.9486900              0.0688426
     29.2101550              0.2321844
      9.2866630              0.4679413
      3.1639270              0.3623120
SP   3   1.00
      7.8682724             -0.1193324              0.0689991
      1.8812885             -0.1608542              0.3164240
      0.5442493              1.1434564              0.7443083
SP   1   1.00
      0.1687144              1.0000000              1.0000000
D    1   1.00
      1.2520000              1.0000000
D    1   1.00
      0.3130000              1.0000000
F    1   1.00
      0.8000000              1.0000000
****
N     0
S    6   1.00
   4173.5110000              0.0018348
    627.4579000              0.0139950
    142.9021000              0.0685870
     40.2343300              0.2322410
     12.8202100              0.4690700
      4.3904370              0.3604550
SP   3   1.00
     11.6263580             -0.1149610              0.0675800
      2.7162800             -0.1691180              0.3239070
      0.7722180              1.1458520              0.7408950
SP   1   1.00
      0.2120313              1.0000000              1.0000000
D    1   1.00
      1.8260000              1.0000000
D    1   1.00
      0.4565000              1.0000000
F    1   1.00
      1.0000000              1.0000000
****
O     0
S    6   1.00
   5484.6717000              0.0018311
    825.2349500              0.0139501
    188.0469600              0.0684451
     52.9645000              0.2327143
     16.8975700              0.4701930
      5.7996353              0.3585209
SP   3   1.00
     15.5396160             -0.1107775              0.0708743
      3.5999336             -0.1480263              0.3397528
      1.0137618              1.1307670              0.7271586
SP   1   1.00
      0.2700058              1.0000000              1.0000000
D    1   1.00
      2.5840000              1.0000000
D    1   1.00
      0.6460000              1.0000000
F    1   1.00
      1.4000000              1.0000000
****
F     0
S    6   1.00
   7001.7130900              0.0018196169
   1051.3660900              0.0139160796
    239.2856900              0.0684053245
     67.3974453              0.233185760
     21.5199573              0.471267439
      7.40310130             0.356618546
SP   3   1.00
     20.8479528             -0.108506975            0.0716287243
      4.80830834            -0.146451658            0.3459121030
      1.34406986             1.128688580            0.7224699570
SP   1   1.00
      0.358151393            1.0000000              1.0000000
D    1   1.00
      3.5000000              1.0000000
D    1   1.00
      0.8750000              1.0000000
F    1   1.00
      1.8500000              1.0000000
****
Al     0
S    6   1.00
  13983.1000000              0.00194267
   2098.7500000              0.0148599
    477.7050000              0.0728494
    134.3600000              0.2468300
     42.8709000              0.4872580
     14.5189000              0.3234960
SP   6   1.00
    239.6680000             -0.00292619             0.00460285
     57.4419000             -0.0374080              0.0331990
     18.2859000             -0.1144870              0.1362820
      6.5991400              0.1156350              0.3304760
      2.4904900              0.6125950              0.4491460
      0.9445400              0.3937990              0.2657040
SP   3   1.00
      1.2779000             -0.2276060             -0.0175130
      0.3975900              0.00144583             0.2445330
      0.1600950              1.0927900              0.8049340
SP   1   1.00
      0.0556577              1.0000000              1.0000000
D    1   1.00
      0.6500000              1.0000000
D    1   1.00
      0.1625000              1.0000000
F    1   1.00
      0.2500000              1.0000000
****
Si     0
S    6   1.00
  16115.9000000              0.00195948
   2425.5800000              0.01492880
    553.8670000              0.07284780
    156.3400000              0.24613000
     50.0683000              0.48591400
     17.0178000              0.32500200
SP   6   1.00
    292.7180000             -0.00278094             0.00443826
     69.8731000             -0.03571460             0.03266790
     22.3363000             -0.11498500             0.13472100
      8.1503900              0.09356340             0.32867800
      3.1345800              0.60301700             0.44964000
      1.2254300              0.41895900             0.26137200
SP   3   1.00
      1.7273800             -0.24463000            -0.01779510
      0.5729220              0.00431572             0.25353900
      0.2221920              1.09818000             0.80066900
SP   1   1.00
      0.0778369              1.00000000             1.00000000
D    1   1.00
      0.9000000              1.0000000
D    1   1.00
      0.2250000              1.0000000
F    1   1.00
      0.3200000              1.0000000
****
P     0
S    6   1.00
  19413.3000000              0.0018516
   2909.4200000              0.0142062
    661.3640000              0.0699995
    185.7590000              0.2400790
     59.1943000              0.4847620
     20.0310000              0.3352000
SP   6   1.00
    339.4780000             -0.00278217             0.00456462
     81.0101000             -0.0360499              0.03369360
     25.8780000             -0.1166310              0.13975500
      9.4522100              0.0968328              0.33936200
      3.6656600              0.6144180              0.45092100
      1.4674600              0.4037980              0.23858600
SP   3   1.00
      2.1562300             -0.2529230             -0.01776530
      0.7489970              0.0328517              0.27405800
      0.2831450              1.0812500              0.78542100
SP   1   1.00
      0.0998317              1.0000000              1.00000000
D    1   1.00
      1.1000000              1.0000000
D    1   1.00
      0.2750000              1.0000000
F    1   1.00
      0.4500000              1.0000000
****
S     0
S    6   1.00
  21917.1000000              0.0018690
   3301.4900000              0.0142300
    754.1460000              0.0696960
    212.7110000              0.2384870
     67.9896000              0.4833070
     23.0515000              0.3380740
SP   6   1.00
    423.7350000             -0.0023767              0.0040610
    100.7100000             -0.0316930              0.0306810
     32.1599000             -0.1133170              0.1304520
     11.8079000              0.0560900              0.3272050
      4.6311000              0.5922550              0.4528510
      1.8702500              0.4550060              0.2560420
SP   3   1.00
      2.6158400             -0.2503740             -0.0145110
      0.9221670              0.0669570              0.3102630
      0.3412870              1.0545100              0.7544830
SP   1   1.00
      0.1171670              1.0000000              1.0000000
D    1   1.00
      1.3000000              1.0000000
D    1   1.00
      0.3250000              1.0000000
F    1   1.00
      0.5500000              1.0000000
****
Cl     0
S    6   1.00
  25180.1000000              0.0018330
   3780.3500000              0.0140340
    860.4740000              0.0690970
    242.1450000              0.2374520
     77.3349000              0.4830340
     26.2470000              0.3398560
SP   6   1.00
    491.7650000             -0.0022974              0.0039894
    116.9840000             -0.0307140              0.0303180
     37.4153000             -0.1125280              0.1298800
     13.7834000              0.0450160              0.3279510
      5.4521500              0.5893530              0.4535270
      2.2258800              0.4652060              0.2521540
SP   3   1.00
      3.1864900             -0.2518300             -0.0142990
      1.1442700              0.0615890              0.3235720
      0.4203770              1.0601800              0.7435070
SP   1   1.00
      0.1426570              1.0000000              1.0000000
D    1   1.00
      1.5000000              1.0000000
D    1   1.00
      0.3750000              1.0000000
F    1   1.00
      0.7000000              1.0000000
****
}

set {
reference uhf
freeze_core true
e_convergence 10
d_convergence 10
dft_spherical_points 1202
dft_radial_points 99
}

e = energy('b3lyp')

print_out('Grab this energy {0}'.format(e))
--------------------------------------------------------------------------

    Molecular point group: c1

    Geometry (in Bohr), charge = 0, multiplicity = 2:

       Center              X                  Y                   Z               Mass
    ------------   -----------------  -----------------  -----------------  -----------------
         C           -0.323340268441     0.000137118620     0.001523550488    12.000000000000
         C            0.061226461259    -1.401855269980    -2.426846529712    12.000000000000
         C            0.061116800059     2.802262290620     0.000679573288    12.000000000000
         C            0.060956895159    -1.400119428580     2.425208123888    12.000000000000
         H            2.088831109259    -1.648112301380    -2.850106795612     1.007825032230
         H           -0.766319052741    -0.384567434480    -4.024602296212     1.007825032230
         H           -0.767702916941    -3.296234970680    -2.351043769112     1.007825032230
         H            2.082613934559     3.288247421720     0.003612604188     1.007825032230
         H           -0.764840174641     3.684990048520     1.671184199988     1.007825032230
         H           -0.762097813641     3.673765922520    -1.673715754712     1.007825032230
         H            2.089219960759    -1.640582548680     2.844323610588     1.007825032230
         H           -0.765451947441    -3.293152791780     2.345822772988     1.007825032230
         H           -0.766819477441    -0.389410303080     4.027801427988     1.007825032230

  Charge       = 0
  Multiplicity = 2
  Basis Set: ANONYMOUS2B9D6158
    Blend: 6-31G_2DFP_
  Basis Set: (ANONYMOUS2B9D6158 AUX)
    Blend: DEF2-UNIVERSAL-JKFIT

    Orbital Energies [Eh]
    ---------------------

    Alpha Occupied:

       1A    -10.180342     2A    -10.167508     3A    -10.167192
       4A    -10.166344     5A     -0.797768     6A     -0.686533
       7A     -0.685842     8A     -0.530775     9A     -0.441130
      10A     -0.434780    11A     -0.434559    12A     -0.382825
      13A     -0.382373    14A     -0.363613    15A     -0.338072
      16A     -0.337923    17A     -0.168961

    Alpha Virtual:

      18A      0.076071    19A      0.134117    20A      0.134179
      21A      0.142515    22A      0.142750    23A      0.154875
      24A      0.178453    25A      0.179108    26A      0.203548
      27A      0.214807    28A      0.275713    29A      0.276257
      30A      0.399137    31A      0.399311    32A      0.403353
      33A      0.423987    34A      0.424209    35A      0.456592
      36A      0.495299    37A      0.495480    38A      0.512161
      39A      0.513978    40A      0.578504    41A      0.579124
      42A      0.591199    43A      0.592044    44A      0.602596
      45A      0.624762    46A      0.631701    47A      0.635865
      48A      0.636716    49A      0.663226    50A      0.663601
      51A      0.683540    52A      0.684181    53A      0.734994
      54A      0.824954    55A      0.825849    56A      0.853917
      57A      0.914882    58A      0.915158    59A      0.944127
      60A      0.944610    61A      0.960571    62A      0.962029
      63A      1.003464    64A      1.127716    65A      1.128486
      66A      1.142221    67A      1.163137    68A      1.163416
      69A      1.223325    70A      1.274252    71A      1.274724
      72A      1.279347    73A      1.324002    74A      1.324705
      75A      1.355982    76A      1.365739    77A      1.366365
      78A      1.392455    79A      1.403549    80A      1.404548
      81A      1.416599    82A      1.417619    83A      1.427915
      84A      1.491492    85A      1.499083    86A      1.542552
      87A      1.543112    88A      1.574166    89A      1.574732
      90A      1.669805    91A      1.739027    92A      1.739784
      93A      1.768323    94A      1.829743    95A      1.833126
      96A      1.971701    97A      2.017901    98A      2.018973
      99A      2.019502   100A      2.051853   101A      2.053483
     102A      2.737963   103A      2.739004   104A      2.790930
     105A      2.811418   106A      2.889558   107A      2.890266
     108A      2.895031   109A      2.929388   110A      2.929605
     111A      2.959004   112A      2.963844   113A      2.964922
     114A      3.034021   115A      3.071006   116A      3.071552
     117A      3.084381   118A      3.168538   119A      3.169031
     120A      3.180592   121A      3.285235   122A      3.285401
     123A      3.326823   124A      3.327496   125A      3.375613
     126A      3.489302   127A      3.490996   128A      3.514025
     129A      3.525321   130A      3.568082   131A      3.568574
     132A      3.575295   133A      3.665616   134A      3.667028
     135A      3.679627   136A      3.693480   137A      3.694857
     138A      3.775444   139A      3.778189   140A      3.789156
     141A      3.911712   142A      3.912735   143A      4.034434
     144A      4.109856   145A      4.112739   146A      4.145951
     147A      4.150160   148A      4.173354   149A      4.201085
     150A      4.202349   151A      4.205278   152A      4.211188
     153A      4.314903   154A      4.316970   155A      4.359000
     156A      4.424082   157A      4.424737   158A      4.443571
     159A      4.516336   160A      4.517294   161A      4.577714
     162A      4.578841   163A      4.617528   164A      4.709487
     165A      4.773497   166A      4.775693   167A      4.836923
     168A      4.962862   169A      5.002295   170A      5.003656
     171A      5.227830   172A      5.243128   173A      5.250477
     174A      5.352419   175A      5.358773   176A      5.479443

    Beta Occupied:

       1A    -10.168269     2A    -10.167953     3A    -10.167106
       4A    -10.166515     5A     -0.781093     6A     -0.684333
       7A     -0.683648     8A     -0.511747     9A     -0.431163
      10A     -0.430927    11A     -0.421820    12A     -0.376918
      13A     -0.376449    14A     -0.362596    15A     -0.333188
      16A     -0.333053

    Beta Virtual:

      17A     -0.025743    18A      0.077080    19A      0.134976
      20A      0.135101    21A      0.144421    22A      0.144584
      23A      0.163335    24A      0.182135    25A      0.182768
      26A      0.215037    27A      0.218930    28A      0.282071
      29A      0.282596    30A      0.400309    31A      0.400486
      32A      0.419789    33A      0.426795    34A      0.427026
      35A      0.468499    36A      0.497562    37A      0.497739
      38A      0.513896    39A      0.556323    40A      0.584050
      41A      0.584677    42A      0.597406    43A      0.598201
      44A      0.610013    45A      0.628140    46A      0.631890
      47A      0.639171    48A      0.639950    49A      0.666776
      50A      0.667179    51A      0.686207    52A      0.686784
      53A      0.757517    54A      0.830090    55A      0.831050
      56A      0.855271    57A      0.922888    58A      0.923093
      59A      0.945965    60A      0.953533    61A      0.965943
      62A      0.967275    63A      1.008705    64A      1.131687
      65A      1.132575    66A      1.155597    67A      1.168243
      68A      1.168456    69A      1.232298    70A      1.279849
      71A      1.280322    72A      1.285101    73A      1.328944
      74A      1.329741    75A      1.365392    76A      1.371009
      77A      1.371587    78A      1.393516    79A      1.406983
      80A      1.408042    81A      1.421624    82A      1.422694
      83A      1.428184    84A      1.492541    85A      1.509526
      86A      1.546946    87A      1.547533    88A      1.582047
      89A      1.582594    90A      1.674650    91A      1.744785
      92A      1.745554    93A      1.779098    94A      1.833628
      95A      1.836952    96A      1.972565    97A      2.025372
      98A      2.025490    99A      2.039684   100A      2.058535
     101A      2.060236   102A      2.746295   103A      2.747345
     104A      2.811831   105A      2.816063   106A      2.902356
     107A      2.902907   108A      2.924670   109A      2.931923
     110A      2.932035   111A      2.960069   112A      2.968353
     113A      2.969501   114A      3.041955   115A      3.080837
     116A      3.081506   117A      3.086233   118A      3.184223
     119A      3.184831   120A      3.188288   121A      3.289999
     122A      3.290235   123A      3.330646   124A      3.331281
     125A      3.383431   126A      3.492064   127A      3.493692
     128A      3.512393   129A      3.528373   130A      3.574869
     131A      3.581380   132A      3.582227   133A      3.670338
     134A      3.671852   135A      3.692946   136A      3.725264
     137A      3.726265   138A      3.780023   139A      3.782664
     140A      3.817702   141A      3.921549   142A      3.922532
     143A      4.045315   144A      4.116860   145A      4.119347
     146A      4.153350   147A      4.157217   148A      4.187398
     149A      4.208062   150A      4.208260   151A      4.212229
     152A      4.215673   153A      4.322397   154A      4.324343
     155A      4.362371   156A      4.432331   157A      4.432868
     158A      4.446507   159A      4.524161   160A      4.525050
     161A      4.588353   162A      4.589400   163A      4.624723
     164A      4.719830   165A      4.780490   166A      4.782605
     167A      4.839841   168A      4.967658   169A      5.006344
     170A      5.007685   171A      5.233534   172A      5.244928
     173A      5.252263   174A      5.358908   175A      5.365240
     176A      5.481763

    Final Occupation by Irrep:
              A
    DOCC [    16 ]
    SOCC [     1 ]

  @DF-UKS Final Energy:  -157.81305337107318

   => Energetics <=

    Nuclear Repulsion Energy =            125.3946818792514222
    One-Electron Energy =                -458.7489834299585709
    Two-Electron Energy =                 195.8483965528818089
    DFT Exchange-Correlation Energy =     -20.3071483732478448
    Empirical Dispersion Energy =           0.0000000000000000
    VV10 Nonlocal Energy =                  0.0000000000000000
    Total Energy =                       -157.8130533710731811

  UHF NO Occupations:
  HONO-2 :   15  A 1.9996009
  HONO-1 :   16  A 1.9989804
  HONO-0 :   17  A 1.0000000
  LUNO+0 :   18  A 0.0010196
  LUNO+1 :   19  A 0.0003991
  LUNO+2 :   20  A 0.0001979
  LUNO+3 :   21  A 0.0001972

Computation Completed

Properties will be evaluated at   0.000000,   0.000000,   0.000000 [a0]

Properties computed using the SCF density matrix

  Nuclear Dipole Moment: [e a0]
     X:     0.8272      Y:    -0.0025      Z:    -0.0033

  Electronic Dipole Moment: [e a0]
     X:    -0.7493      Y:     0.0050      Z:     0.0034

  Dipole Moment: [e a0]
     X:     0.0779      Y:     0.0024      Z:     0.0000     Total:     0.0780

  Dipole Moment: [D]
     X:     0.1980      Y:     0.0062      Z:     0.0001     Total:     0.1981

*** tstop() called on n079 at Fri Nov  5 15:11:07 2021
Module time:
	user time   =     494.04 seconds =       8.23 minutes
	system time =       4.57 seconds =       0.08 minutes
	total time  =        125 seconds =       2.08 minutes
Total time:
	user time   =     494.04 seconds =       8.23 minutes
	system time =       4.57 seconds =       0.08 minutes
	total time  =        125 seconds =       2.08 minutes
Grab this energy -157.81305337107318
    Psi4 stopped on: Friday, 05 November 2021 03:11PM
    Psi4 wall time for execution: 0:02:05.39

*** Psi4 exiting successfully. Buy a developer a beer!
