                               Psi4 1.4a2.dev629

  ==> Input File <==

--------------------------------------------------------------------------
import os
memory 14 GB

molecule {
 C   -0.3201728327   -0.0000022270   -0.0004937980
 C    0.0625484156   -1.4011414385   -2.4268777600
 C    0.0623461102    2.8015788186   -0.0000404433
 C    0.0623836752   -1.4004337726    2.4255711724
 H    2.0829835232   -1.6441909523   -2.8475760192
 H   -0.7645911110   -0.3915139830   -4.0230531129
 H   -0.7646628152   -3.2887823930   -2.3508883626
 H    2.0864673934    3.2878367885    0.0000264133
 H   -0.7665803404    3.6809899489    1.6764258903
 H   -0.7667633026    3.6800007340   -1.6757685437
 H    2.0902297360   -1.6437380094    2.8468435431
 H   -0.7685258463   -3.2947604376    2.3479062808
 H   -0.7682704822   -0.3858673902    4.0279247398
units bohr
0 2
}

basis {

assign 6-31g_2dfp_

[ 6-31g_2dfp_ ]

spherical

!----------------------------------------------------------------------
! Basis Set Exchange
! Version v0.8.13
! https://www.basissetexchange.org
!----------------------------------------------------------------------
!   Basis set: 6-31G(2df,p)
! Description: 6-31G(2df,p)
!        Role: orbital
!     Version: 0  (Data from the original Basis Set Exchange)
!----------------------------------------------------------------------

****
H     0
S    3   1.00
     18.7311370              0.03349460
      2.8253937              0.23472695
      0.6401217              0.81375733
S    1   1.00
      0.1612778              1.00000000
P    1   1.00
      1.5000000              1.0000000
P    1   1.00
      0.3750000              1.0000000
****
B     0
S    6   1.00
   2068.8823000              0.0018663
    310.6495700              0.0142515
     70.6830330              0.0695516
     19.8610800              0.2325729
      6.2993048              0.4670787
      2.1270270              0.3634314
SP   3   1.00
      4.7279710             -0.1303938              0.0745976
      1.1903377             -0.1307889              0.3078467
      0.3594117              1.1309444              0.7434568
SP   1   1.00
      0.1267512              1.0000000              1.0000000
D    1   1.00
      0.8020000              1.0000000
D    1   1.00
      0.2005000              1.0000000
F    1   1.00
      0.5000000              1.0000000
****
C     0
S    6   1.00
   3047.5249000              0.0018347
    457.3695100              0.0140373
    103.9486900              0.0688426
     29.2101550              0.2321844
      9.2866630              0.4679413
      3.1639270              0.3623120
SP   3   1.00
      7.8682724             -0.1193324              0.0689991
      1.8812885             -0.1608542              0.3164240
      0.5442493              1.1434564              0.7443083
SP   1   1.00
      0.1687144              1.0000000              1.0000000
D    1   1.00
      1.2520000              1.0000000
D    1   1.00
      0.3130000              1.0000000
F    1   1.00
      0.8000000              1.0000000
****
N     0
S    6   1.00
   4173.5110000              0.0018348
    627.4579000              0.0139950
    142.9021000              0.0685870
     40.2343300              0.2322410
     12.8202100              0.4690700
      4.3904370              0.3604550
SP   3   1.00
     11.6263580             -0.1149610              0.0675800
      2.7162800             -0.1691180              0.3239070
      0.7722180              1.1458520              0.7408950
SP   1   1.00
      0.2120313              1.0000000              1.0000000
D    1   1.00
      1.8260000              1.0000000
D    1   1.00
      0.4565000              1.0000000
F    1   1.00
      1.0000000              1.0000000
****
O     0
S    6   1.00
   5484.6717000              0.0018311
    825.2349500              0.0139501
    188.0469600              0.0684451
     52.9645000              0.2327143
     16.8975700              0.4701930
      5.7996353              0.3585209
SP   3   1.00
     15.5396160             -0.1107775              0.0708743
      3.5999336             -0.1480263              0.3397528
      1.0137618              1.1307670              0.7271586
SP   1   1.00
      0.2700058              1.0000000              1.0000000
D    1   1.00
      2.5840000              1.0000000
D    1   1.00
      0.6460000              1.0000000
F    1   1.00
      1.4000000              1.0000000
****
F     0
S    6   1.00
   7001.7130900              0.0018196169
   1051.3660900              0.0139160796
    239.2856900              0.0684053245
     67.3974453              0.233185760
     21.5199573              0.471267439
      7.40310130             0.356618546
SP   3   1.00
     20.8479528             -0.108506975            0.0716287243
      4.80830834            -0.146451658            0.3459121030
      1.34406986             1.128688580            0.7224699570
SP   1   1.00
      0.358151393            1.0000000              1.0000000
D    1   1.00
      3.5000000              1.0000000
D    1   1.00
      0.8750000              1.0000000
F    1   1.00
      1.8500000              1.0000000
****
Al     0
S    6   1.00
  13983.1000000              0.00194267
   2098.7500000              0.0148599
    477.7050000              0.0728494
    134.3600000              0.2468300
     42.8709000              0.4872580
     14.5189000              0.3234960
SP   6   1.00
    239.6680000             -0.00292619             0.00460285
     57.4419000             -0.0374080              0.0331990
     18.2859000             -0.1144870              0.1362820
      6.5991400              0.1156350              0.3304760
      2.4904900              0.6125950              0.4491460
      0.9445400              0.3937990              0.2657040
SP   3   1.00
      1.2779000             -0.2276060             -0.0175130
      0.3975900              0.00144583             0.2445330
      0.1600950              1.0927900              0.8049340
SP   1   1.00
      0.0556577              1.0000000              1.0000000
D    1   1.00
      0.6500000              1.0000000
D    1   1.00
      0.1625000              1.0000000
F    1   1.00
      0.2500000              1.0000000
****
Si     0
S    6   1.00
  16115.9000000              0.00195948
   2425.5800000              0.01492880
    553.8670000              0.07284780
    156.3400000              0.24613000
     50.0683000              0.48591400
     17.0178000              0.32500200
SP   6   1.00
    292.7180000             -0.00278094             0.00443826
     69.8731000             -0.03571460             0.03266790
     22.3363000             -0.11498500             0.13472100
      8.1503900              0.09356340             0.32867800
      3.1345800              0.60301700             0.44964000
      1.2254300              0.41895900             0.26137200
SP   3   1.00
      1.7273800             -0.24463000            -0.01779510
      0.5729220              0.00431572             0.25353900
      0.2221920              1.09818000             0.80066900
SP   1   1.00
      0.0778369              1.00000000             1.00000000
D    1   1.00
      0.9000000              1.0000000
D    1   1.00
      0.2250000              1.0000000
F    1   1.00
      0.3200000              1.0000000
****
P     0
S    6   1.00
  19413.3000000              0.0018516
   2909.4200000              0.0142062
    661.3640000              0.0699995
    185.7590000              0.2400790
     59.1943000              0.4847620
     20.0310000              0.3352000
SP   6   1.00
    339.4780000             -0.00278217             0.00456462
     81.0101000             -0.0360499              0.03369360
     25.8780000             -0.1166310              0.13975500
      9.4522100              0.0968328              0.33936200
      3.6656600              0.6144180              0.45092100
      1.4674600              0.4037980              0.23858600
SP   3   1.00
      2.1562300             -0.2529230             -0.01776530
      0.7489970              0.0328517              0.27405800
      0.2831450              1.0812500              0.78542100
SP   1   1.00
      0.0998317              1.0000000              1.00000000
D    1   1.00
      1.1000000              1.0000000
D    1   1.00
      0.2750000              1.0000000
F    1   1.00
      0.4500000              1.0000000
****
S     0
S    6   1.00
  21917.1000000              0.0018690
   3301.4900000              0.0142300
    754.1460000              0.0696960
    212.7110000              0.2384870
     67.9896000              0.4833070
     23.0515000              0.3380740
SP   6   1.00
    423.7350000             -0.0023767              0.0040610
    100.7100000             -0.0316930              0.0306810
     32.1599000             -0.1133170              0.1304520
     11.8079000              0.0560900              0.3272050
      4.6311000              0.5922550              0.4528510
      1.8702500              0.4550060              0.2560420
SP   3   1.00
      2.6158400             -0.2503740             -0.0145110
      0.9221670              0.0669570              0.3102630
      0.3412870              1.0545100              0.7544830
SP   1   1.00
      0.1171670              1.0000000              1.0000000
D    1   1.00
      1.3000000              1.0000000
D    1   1.00
      0.3250000              1.0000000
F    1   1.00
      0.5500000              1.0000000
****
Cl     0
S    6   1.00
  25180.1000000              0.0018330
   3780.3500000              0.0140340
    860.4740000              0.0690970
    242.1450000              0.2374520
     77.3349000              0.4830340
     26.2470000              0.3398560
SP   6   1.00
    491.7650000             -0.0022974              0.0039894
    116.9840000             -0.0307140              0.0303180
     37.4153000             -0.1125280              0.1298800
     13.7834000              0.0450160              0.3279510
      5.4521500              0.5893530              0.4535270
      2.2258800              0.4652060              0.2521540
SP   3   1.00
      3.1864900             -0.2518300             -0.0142990
      1.1442700              0.0615890              0.3235720
      0.4203770              1.0601800              0.7435070
SP   1   1.00
      0.1426570              1.0000000              1.0000000
D    1   1.00
      1.5000000              1.0000000
D    1   1.00
      0.3750000              1.0000000
F    1   1.00
      0.7000000              1.0000000
****
}

set {
reference uhf
freeze_core true
e_convergence 10
d_convergence 10
dft_spherical_points 1202
dft_radial_points 99
}

e = energy('b3lyp')

print_out('Grab this energy {0}'.format(e))
--------------------------------------------------------------------------

    Molecular point group: c1

    Geometry (in Bohr), charge = 0, multiplicity = 2:

       Center              X                  Y                   Z               Mass
    ------------   -----------------  -----------------  -----------------  -----------------
         C           -0.321549079179    -0.000002063533    -0.000139241095    12.000000000000
         C            0.061172169121    -1.401141275033    -2.426523203095    12.000000000000
         C            0.060969863721     2.801578982067     0.000314113605    12.000000000000
         C            0.061007428721    -1.400433609133     2.425925729305    12.000000000000
         H            2.081607276721    -1.644190788833    -2.847221462295     1.007825032230
         H           -0.765967357479    -0.391513819533    -4.022698555995     1.007825032230
         H           -0.766039061679    -3.288782229533    -2.350533805695     1.007825032230
         H            2.085091146921     3.287836951967     0.000380970205     1.007825032230
         H           -0.767956586879     3.680990112367     1.676780447205     1.007825032230
         H           -0.768139549079     3.680000897467    -1.675413986795     1.007825032230
         H            2.088853489521    -1.643737845933     2.847198100005     1.007825032230
         H           -0.769902092779    -3.294760274133     2.348260837705     1.007825032230
         H           -0.769646728679    -0.385867226733     4.028279296705     1.007825032230

  Charge       = 0
  Multiplicity = 2
  Basis Set: ANONYMOUSC1D6FD7A
    Blend: 6-31G_2DFP_
  Basis Set: (ANONYMOUSC1D6FD7A AUX)
    Blend: DEF2-UNIVERSAL-JKFIT

    Orbital Energies [Eh]
    ---------------------

    Alpha Occupied:

       1A    -10.180229     2A    -10.167572     3A    -10.166992
       4A    -10.166410     5A     -0.797821     6A     -0.686522
       7A     -0.685878     8A     -0.530753     9A     -0.441360
      10A     -0.434613    11A     -0.434440    12A     -0.383070
      13A     -0.382624    14A     -0.363330    15A     -0.337981
      16A     -0.337917    17A     -0.168846

    Alpha Virtual:

      18A      0.076054    19A      0.134131    20A      0.134149
      21A      0.142457    22A      0.142650    23A      0.154939
      24A      0.178562    25A      0.179209    26A      0.203593
      27A      0.214673    28A      0.276079    29A      0.276169
      30A      0.399166    31A      0.399326    32A      0.403384
      33A      0.424007    34A      0.424199    35A      0.456596
      36A      0.495268    37A      0.495409    38A      0.512266
      39A      0.513975    40A      0.578602    41A      0.578847
      42A      0.591628    43A      0.592229    44A      0.602902
      45A      0.624624    46A      0.631555    47A      0.635777
      48A      0.636538    49A      0.663400    50A      0.663772
      51A      0.683523    52A      0.684148    53A      0.735123
      54A      0.825176    55A      0.825976    56A      0.853870
      57A      0.915182    58A      0.915203    59A      0.944234
      60A      0.944628    61A      0.960956    62A      0.961453
      63A      1.002574    64A      1.127546    65A      1.128194
      66A      1.142593    67A      1.163341    68A      1.163510
      69A      1.223742    70A      1.274595    71A      1.274955
      72A      1.279500    73A      1.323880    74A      1.324595
      75A      1.357013    76A      1.365445    77A      1.365969
      78A      1.392376    79A      1.404284    80A      1.405053
      81A      1.417393    82A      1.418037    83A      1.428098
      84A      1.491027    85A      1.499589    86A      1.542364
      87A      1.542493    88A      1.574102    89A      1.574654
      90A      1.669265    91A      1.739537    92A      1.739692
      93A      1.768537    94A      1.829512    95A      1.832702
      96A      1.971142    97A      2.018352    98A      2.019302
      99A      2.019591   100A      2.052999   101A      2.053088
     102A      2.738369   103A      2.739264   104A      2.791145
     105A      2.811152   106A      2.889828   107A      2.890383
     108A      2.894946   109A      2.929246   110A      2.929447
     111A      2.958842   112A      2.963890   113A      2.964938
     114A      3.034062   115A      3.071675   116A      3.072125
     117A      3.084321   118A      3.168668   119A      3.168932
     120A      3.180396   121A      3.284903   122A      3.285030
     123A      3.326194   124A      3.326274   125A      3.375907
     126A      3.489516   127A      3.491186   128A      3.514475
     129A      3.525184   130A      3.568744   131A      3.568832
     132A      3.575650   133A      3.665622   134A      3.667081
     135A      3.678630   136A      3.693964   137A      3.694897
     138A      3.777108   139A      3.778282   140A      3.790440
     141A      3.911667   142A      3.912559   143A      4.035611
     144A      4.110206   145A      4.111668   146A      4.145858
     147A      4.149838   148A      4.173447   149A      4.201136
     150A      4.203239   151A      4.205361   152A      4.211267
     153A      4.315456   154A      4.316871   155A      4.358830
     156A      4.424759   157A      4.425259   158A      4.442697
     159A      4.516465   160A      4.516931   161A      4.577767
     162A      4.578632   163A      4.618361   164A      4.709930
     165A      4.774733   166A      4.774954   167A      4.837105
     168A      4.962799   169A      5.003109   170A      5.004245
     171A      5.227917   172A      5.243107   173A      5.250456
     174A      5.352142   175A      5.358174   176A      5.479945

    Beta Occupied:

       1A    -10.168334     2A    -10.167752     3A    -10.167170
       4A    -10.166402     5A     -0.781130     6A     -0.684320
       7A     -0.683677     8A     -0.511720     9A     -0.430983
      10A     -0.430789    11A     -0.422065    12A     -0.377176
      13A     -0.376712    14A     -0.362312    15A     -0.333100
      16A     -0.333050

    Beta Virtual:

      17A     -0.025595    18A      0.077061    19A      0.134934
      20A      0.135063    21A      0.144383    22A      0.144481
      23A      0.163367    24A      0.182253    25A      0.182881
      26A      0.214906    27A      0.218997    28A      0.282413
      29A      0.282507    30A      0.400328    31A      0.400495
      32A      0.419771    33A      0.426819    34A      0.427016
      35A      0.468568    36A      0.497528    37A      0.497669
      38A      0.513997    39A      0.556367    40A      0.584154
      41A      0.584413    42A      0.597816    43A      0.598371
      44A      0.610294    45A      0.628033    46A      0.631748
      47A      0.639084    48A      0.639801    49A      0.666923
      50A      0.667322    51A      0.686196    52A      0.686751
      53A      0.757640    54A      0.830298    55A      0.831150
      56A      0.855222    57A      0.923150    58A      0.923169
      59A      0.946071    60A      0.953591    61A      0.966309
      62A      0.966748    63A      1.007766    64A      1.131663
      65A      1.132345    66A      1.155959    67A      1.168338
      68A      1.168537    69A      1.232722    70A      1.280173
      71A      1.280538    72A      1.285261    73A      1.328766
      74A      1.329573    75A      1.366436    76A      1.370701
      77A      1.371200    78A      1.393423    79A      1.407750
      80A      1.408556    81A      1.422413    82A      1.423145
      83A      1.428385    84A      1.492072    85A      1.510052
      86A      1.546623    87A      1.546842    88A      1.582080
      89A      1.582616    90A      1.674126    91A      1.745310
      92A      1.745430    93A      1.779307    94A      1.833403
      95A      1.836535    96A      1.972007    97A      2.025721
      98A      2.025824    99A      2.039921   100A      2.059632
     101A      2.059843   102A      2.746688   103A      2.747611
     104A      2.811564   105A      2.816333   106A      2.902600
     107A      2.902988   108A      2.924707   109A      2.931805
     110A      2.931903   111A      2.959906   112A      2.968379
     113A      2.969506   114A      3.041957   115A      3.081483
     116A      3.082044   117A      3.086177   118A      3.184447
     119A      3.184787   120A      3.188034   121A      3.289720
     122A      3.289899   123A      3.330001   124A      3.330042
     125A      3.383764   126A      3.492270   127A      3.493877
     128A      3.512837   129A      3.528266   130A      3.575415
     131A      3.582068   132A      3.582148   133A      3.670389
     134A      3.671965   135A      3.691963   136A      3.725560
     137A      3.726475   138A      3.781625   139A      3.782742
     140A      3.818960   141A      3.921495   142A      3.922361
     143A      4.046482   144A      4.117251   145A      4.118276
     146A      4.153278   147A      4.156837   148A      4.187470
     149A      4.207810   150A      4.209370   151A      4.212413
     152A      4.215717   153A      4.323031   154A      4.324196
     155A      4.362181   156A      4.432926   157A      4.433346
     158A      4.445668   159A      4.524315   160A      4.524662
     161A      4.588436   162A      4.589210   163A      4.625628
     164A      4.720183   165A      4.781677   166A      4.781963
     167A      4.840025   168A      4.967578   169A      5.007152
     170A      5.008255   171A      5.233656   172A      5.244910
     173A      5.252253   174A      5.358651   175A      5.364655
     176A      5.482267

    Final Occupation by Irrep:
              A
    DOCC [    16 ]
    SOCC [     1 ]

  @DF-UKS Final Energy:  -157.81305994876053

   => Energetics <=

    Nuclear Repulsion Energy =            125.4034027156979647
    One-Electron Energy =                -458.7665342295952087
    Two-Electron Energy =                 195.8574743369499060
    DFT Exchange-Correlation Energy =     -20.3074027718131660
    Empirical Dispersion Energy =           0.0000000000000000
    VV10 Nonlocal Energy =                  0.0000000000000000
    Total Energy =                       -157.8130599487605252

  UHF NO Occupations:
  HONO-2 :   15  A 1.9996018
  HONO-1 :   16  A 1.9989796
  HONO-0 :   17  A 1.0000000
  LUNO+0 :   18  A 0.0010204
  LUNO+1 :   19  A 0.0003982
  LUNO+2 :   20  A 0.0001975
  LUNO+3 :   21  A 0.0001974

Computation Completed

Properties will be evaluated at   0.000000,   0.000000,   0.000000 [a0]

Properties computed using the SCF density matrix

  Nuclear Dipole Moment: [e a0]
     X:     0.8175      Y:    -0.0000      Z:     0.0025

  Electronic Dipole Moment: [e a0]
     X:    -0.7395      Y:     0.0000      Z:    -0.0049

  Dipole Moment: [e a0]
     X:     0.0780      Y:     0.0000      Z:    -0.0024     Total:     0.0781

  Dipole Moment: [D]
     X:     0.1983      Y:     0.0000      Z:    -0.0062     Total:     0.1984

*** tstop() called on n082 at Fri Nov  5 13:34:53 2021
Module time:
	user time   =     497.57 seconds =       8.29 minutes
	system time =       4.57 seconds =       0.08 minutes
	total time  =        126 seconds =       2.10 minutes
Total time:
	user time   =     497.57 seconds =       8.29 minutes
	system time =       4.57 seconds =       0.08 minutes
	total time  =        126 seconds =       2.10 minutes
Grab this energy -157.81305994876053
    Psi4 stopped on: Friday, 05 November 2021 01:34PM
    Psi4 wall time for execution: 0:02:06.26

*** Psi4 exiting successfully. Buy a developer a beer!
