                               Psi4 1.4a2.dev629

  ==> Input File <==

--------------------------------------------------------------------------
import os
memory 14 GB

molecule {
 C   -0.3264977754   -0.0000020447    0.0000000000
 C    0.0599977330   -1.4017873664   -2.4279568440
 C    0.0598777451    2.8035778502    0.0000000000
 C    0.0599977330   -1.4017873664    2.4279568440
 H    2.0873216325   -1.6439790238   -2.8472353170
 H   -0.7645001513   -0.3874216678   -4.0251043653
 H   -0.7646634434   -3.2920728742   -2.3481065448
 H    2.0871826782    3.2878659818   -0.0000000000
 H   -0.7647410330    3.6795278817    1.6770040358
 H   -0.7647410330    3.6795278817   -1.6770040358
 H    2.0873216325   -1.6439790238    2.8472353170
 H   -0.7646634434   -3.2920728742    2.3481065448
 H   -0.7645001513   -0.3874216678    4.0251043653
units bohr
0 2
}

basis {

assign 6-31g_2dfp_

[ 6-31g_2dfp_ ]

spherical

!----------------------------------------------------------------------
! Basis Set Exchange
! Version v0.8.13
! https://www.basissetexchange.org
!----------------------------------------------------------------------
!   Basis set: 6-31G(2df,p)
! Description: 6-31G(2df,p)
!        Role: orbital
!     Version: 0  (Data from the original Basis Set Exchange)
!----------------------------------------------------------------------

****
H     0
S    3   1.00
     18.7311370              0.03349460
      2.8253937              0.23472695
      0.6401217              0.81375733
S    1   1.00
      0.1612778              1.00000000
P    1   1.00
      1.5000000              1.0000000
P    1   1.00
      0.3750000              1.0000000
****
B     0
S    6   1.00
   2068.8823000              0.0018663
    310.6495700              0.0142515
     70.6830330              0.0695516
     19.8610800              0.2325729
      6.2993048              0.4670787
      2.1270270              0.3634314
SP   3   1.00
      4.7279710             -0.1303938              0.0745976
      1.1903377             -0.1307889              0.3078467
      0.3594117              1.1309444              0.7434568
SP   1   1.00
      0.1267512              1.0000000              1.0000000
D    1   1.00
      0.8020000              1.0000000
D    1   1.00
      0.2005000              1.0000000
F    1   1.00
      0.5000000              1.0000000
****
C     0
S    6   1.00
   3047.5249000              0.0018347
    457.3695100              0.0140373
    103.9486900              0.0688426
     29.2101550              0.2321844
      9.2866630              0.4679413
      3.1639270              0.3623120
SP   3   1.00
      7.8682724             -0.1193324              0.0689991
      1.8812885             -0.1608542              0.3164240
      0.5442493              1.1434564              0.7443083
SP   1   1.00
      0.1687144              1.0000000              1.0000000
D    1   1.00
      1.2520000              1.0000000
D    1   1.00
      0.3130000              1.0000000
F    1   1.00
      0.8000000              1.0000000
****
N     0
S    6   1.00
   4173.5110000              0.0018348
    627.4579000              0.0139950
    142.9021000              0.0685870
     40.2343300              0.2322410
     12.8202100              0.4690700
      4.3904370              0.3604550
SP   3   1.00
     11.6263580             -0.1149610              0.0675800
      2.7162800             -0.1691180              0.3239070
      0.7722180              1.1458520              0.7408950
SP   1   1.00
      0.2120313              1.0000000              1.0000000
D    1   1.00
      1.8260000              1.0000000
D    1   1.00
      0.4565000              1.0000000
F    1   1.00
      1.0000000              1.0000000
****
O     0
S    6   1.00
   5484.6717000              0.0018311
    825.2349500              0.0139501
    188.0469600              0.0684451
     52.9645000              0.2327143
     16.8975700              0.4701930
      5.7996353              0.3585209
SP   3   1.00
     15.5396160             -0.1107775              0.0708743
      3.5999336             -0.1480263              0.3397528
      1.0137618              1.1307670              0.7271586
SP   1   1.00
      0.2700058              1.0000000              1.0000000
D    1   1.00
      2.5840000              1.0000000
D    1   1.00
      0.6460000              1.0000000
F    1   1.00
      1.4000000              1.0000000
****
F     0
S    6   1.00
   7001.7130900              0.0018196169
   1051.3660900              0.0139160796
    239.2856900              0.0684053245
     67.3974453              0.233185760
     21.5199573              0.471267439
      7.40310130             0.356618546
SP   3   1.00
     20.8479528             -0.108506975            0.0716287243
      4.80830834            -0.146451658            0.3459121030
      1.34406986             1.128688580            0.7224699570
SP   1   1.00
      0.358151393            1.0000000              1.0000000
D    1   1.00
      3.5000000              1.0000000
D    1   1.00
      0.8750000              1.0000000
F    1   1.00
      1.8500000              1.0000000
****
Al     0
S    6   1.00
  13983.1000000              0.00194267
   2098.7500000              0.0148599
    477.7050000              0.0728494
    134.3600000              0.2468300
     42.8709000              0.4872580
     14.5189000              0.3234960
SP   6   1.00
    239.6680000             -0.00292619             0.00460285
     57.4419000             -0.0374080              0.0331990
     18.2859000             -0.1144870              0.1362820
      6.5991400              0.1156350              0.3304760
      2.4904900              0.6125950              0.4491460
      0.9445400              0.3937990              0.2657040
SP   3   1.00
      1.2779000             -0.2276060             -0.0175130
      0.3975900              0.00144583             0.2445330
      0.1600950              1.0927900              0.8049340
SP   1   1.00
      0.0556577              1.0000000              1.0000000
D    1   1.00
      0.6500000              1.0000000
D    1   1.00
      0.1625000              1.0000000
F    1   1.00
      0.2500000              1.0000000
****
Si     0
S    6   1.00
  16115.9000000              0.00195948
   2425.5800000              0.01492880
    553.8670000              0.07284780
    156.3400000              0.24613000
     50.0683000              0.48591400
     17.0178000              0.32500200
SP   6   1.00
    292.7180000             -0.00278094             0.00443826
     69.8731000             -0.03571460             0.03266790
     22.3363000             -0.11498500             0.13472100
      8.1503900              0.09356340             0.32867800
      3.1345800              0.60301700             0.44964000
      1.2254300              0.41895900             0.26137200
SP   3   1.00
      1.7273800             -0.24463000            -0.01779510
      0.5729220              0.00431572             0.25353900
      0.2221920              1.09818000             0.80066900
SP   1   1.00
      0.0778369              1.00000000             1.00000000
D    1   1.00
      0.9000000              1.0000000
D    1   1.00
      0.2250000              1.0000000
F    1   1.00
      0.3200000              1.0000000
****
P     0
S    6   1.00
  19413.3000000              0.0018516
   2909.4200000              0.0142062
    661.3640000              0.0699995
    185.7590000              0.2400790
     59.1943000              0.4847620
     20.0310000              0.3352000
SP   6   1.00
    339.4780000             -0.00278217             0.00456462
     81.0101000             -0.0360499              0.03369360
     25.8780000             -0.1166310              0.13975500
      9.4522100              0.0968328              0.33936200
      3.6656600              0.6144180              0.45092100
      1.4674600              0.4037980              0.23858600
SP   3   1.00
      2.1562300             -0.2529230             -0.01776530
      0.7489970              0.0328517              0.27405800
      0.2831450              1.0812500              0.78542100
SP   1   1.00
      0.0998317              1.0000000              1.00000000
D    1   1.00
      1.1000000              1.0000000
D    1   1.00
      0.2750000              1.0000000
F    1   1.00
      0.4500000              1.0000000
****
S     0
S    6   1.00
  21917.1000000              0.0018690
   3301.4900000              0.0142300
    754.1460000              0.0696960
    212.7110000              0.2384870
     67.9896000              0.4833070
     23.0515000              0.3380740
SP   6   1.00
    423.7350000             -0.0023767              0.0040610
    100.7100000             -0.0316930              0.0306810
     32.1599000             -0.1133170              0.1304520
     11.8079000              0.0560900              0.3272050
      4.6311000              0.5922550              0.4528510
      1.8702500              0.4550060              0.2560420
SP   3   1.00
      2.6158400             -0.2503740             -0.0145110
      0.9221670              0.0669570              0.3102630
      0.3412870              1.0545100              0.7544830
SP   1   1.00
      0.1171670              1.0000000              1.0000000
D    1   1.00
      1.3000000              1.0000000
D    1   1.00
      0.3250000              1.0000000
F    1   1.00
      0.5500000              1.0000000
****
Cl     0
S    6   1.00
  25180.1000000              0.0018330
   3780.3500000              0.0140340
    860.4740000              0.0690970
    242.1450000              0.2374520
     77.3349000              0.4830340
     26.2470000              0.3398560
SP   6   1.00
    491.7650000             -0.0022974              0.0039894
    116.9840000             -0.0307140              0.0303180
     37.4153000             -0.1125280              0.1298800
     13.7834000              0.0450160              0.3279510
      5.4521500              0.5893530              0.4535270
      2.2258800              0.4652060              0.2521540
SP   3   1.00
      3.1864900             -0.2518300             -0.0142990
      1.1442700              0.0615890              0.3235720
      0.4203770              1.0601800              0.7435070
SP   1   1.00
      0.1426570              1.0000000              1.0000000
D    1   1.00
      1.5000000              1.0000000
D    1   1.00
      0.3750000              1.0000000
F    1   1.00
      0.7000000              1.0000000
****
}

set {
reference uhf
freeze_core true
e_convergence 10
d_convergence 10
dft_spherical_points 1202
dft_radial_points 99
}

e = energy('b3lyp')

print_out('Grab this energy {0}'.format(e))
--------------------------------------------------------------------------

    Molecular point group: cs

    Geometry (in Bohr), charge = 0, multiplicity = 2:

       Center              X                  Y                   Z               Mass
    ------------   -----------------  -----------------  -----------------  -----------------
         C           -0.325229537974    -0.000001821946     0.000000000000    12.000000000000
         C            0.061265970426    -1.401787143646    -2.427956844000    12.000000000000
         C            0.061145982526     2.803578072954     0.000000000000    12.000000000000
         C            0.061265970426    -1.401787143646     2.427956844000    12.000000000000
         H            2.088589869926    -1.643978801046    -2.847235317000     1.007825032230
         H           -0.763231913874    -0.387421445046    -4.025104365300     1.007825032230
         H           -0.763395205974    -3.292072651446    -2.348106544800     1.007825032230
         H            2.088450915626     3.287866204554     0.000000000000     1.007825032230
         H           -0.763472795574     3.679528104454     1.677004035800     1.007825032230
         H           -0.763472795574     3.679528104454    -1.677004035800     1.007825032230
         H            2.088589869926    -1.643978801046     2.847235317000     1.007825032230
         H           -0.763395205974    -3.292072651446     2.348106544800     1.007825032230
         H           -0.763231913874    -0.387421445046     4.025104365300     1.007825032230

  Charge       = 0
  Multiplicity = 2
  Basis Set: ANONYMOUS82FFA622
    Blend: 6-31G_2DFP_
  Basis Set: (ANONYMOUS82FFA622 AUX)
    Blend: DEF2-UNIVERSAL-JKFIT

    Orbital Energies [Eh]
    ---------------------

    Alpha Occupied:

       1Ap   -10.180506     2Ap   -10.167001     1App  -10.167001
       3Ap   -10.166956     4Ap    -0.797455     5Ap    -0.686165
       2App   -0.686165     6Ap    -0.530631     7Ap    -0.440878
       3App   -0.434751     8Ap    -0.434750     9Ap    -0.382490
       4App   -0.382488     5App   -0.364094    10Ap    -0.337887
       6App   -0.337887    11Ap    -0.169056

    Alpha Virtual:

      12Ap     0.076097    13Ap     0.134219     7App    0.134220
      14Ap     0.142844     8App    0.142844    15Ap     0.154708
      16Ap     0.178840     9App    0.178840    17Ap     0.203209
      10App    0.215058    11App    0.275603    18Ap     0.275605
      19Ap     0.399215    12App    0.399219    20Ap     0.403394
      13App    0.424144    21Ap     0.424144    22Ap     0.456409
      23Ap     0.495451    14App    0.495452    15App    0.512111
      24Ap     0.514040    25Ap     0.578945    16App    0.578953
      17App    0.591428    26Ap     0.591429    27Ap     0.602302
      28Ap     0.625026    18App    0.632149    19App    0.636321
      29Ap     0.636325    30Ap     0.663124    20App    0.663124
      31Ap     0.683890    21App    0.683891    32Ap     0.734997
      22App    0.825211    33Ap     0.825214    23App    0.853827
      24App    0.914900    34Ap     0.914905    25App    0.943977
      35Ap     0.944282    26App    0.961441    36Ap     0.961458
      37Ap     1.004502    38Ap     1.128252    27App    1.128265
      39Ap     1.141429    40Ap     1.163729    28App    1.163742
      41Ap     1.222485    42Ap     1.274075    29App    1.274078
      43Ap     1.279038    30App    1.324270    44Ap     1.324272
      45Ap     1.354629    31App    1.366255    46Ap     1.366260
      32App    1.393026    47Ap     1.404152    33App    1.404154
      34App    1.416505    48Ap     1.416512    35App    1.427981
      36App    1.491438    49Ap     1.499158    37App    1.543056
      50Ap     1.543058    51Ap     1.574436    38App    1.574438
      52Ap     1.671150    53Ap     1.738692    39App    1.738704
      54Ap     1.768128    40App    1.832166    55Ap     1.832166
      41App    1.971688    56Ap     2.017977    42App    2.017980
      57Ap     2.018254    58Ap     2.051853    43App    2.051853
      44App    2.737979    59Ap     2.737979    60Ap     2.790477
      45App    2.811615    61Ap     2.889669    46App    2.889675
      62Ap     2.894571    63Ap     2.929800    47App    2.929808
      48App    2.959212    64Ap     2.964364    49App    2.964378
      65Ap     3.033794    50App    3.070712    66Ap     3.070725
      51App    3.084011    67Ap     3.168657    52App    3.168664
      68Ap     3.180179    53App    3.285993    69Ap     3.285993
      70Ap     3.327842    54App    3.327848    71Ap     3.375401
      55App    3.489882    72Ap     3.489903    56App    3.513409
      73Ap     3.525146    57App    3.567719    74Ap     3.567740
      58App    3.574827    75Ap     3.667155    59App    3.667164
      76Ap     3.681254    60App    3.693934    77Ap     3.693949
      78Ap     3.775862    61App    3.775887    79Ap     3.788093
      80Ap     3.911221    62App    3.911226    81Ap     4.032732
      82Ap     4.112024    63App    4.112028    83Ap     4.148357
      64App    4.148365    84Ap     4.172425    85Ap     4.201399
      65App    4.202084    86Ap     4.202087    66App    4.210390
      87Ap     4.315851    67App    4.315870    68App    4.359707
      88Ap     4.424996    69App    4.424997    70App    4.446277
      71App    4.516657    89Ap     4.516658    72App    4.577645
      90Ap     4.577658    91Ap     4.616256    92Ap     4.707771
      93Ap     4.773534    73App    4.773542    74App    4.835329
      94Ap     4.964243    75App    5.003122    95Ap     5.003133
      96Ap     5.228505    76App    5.247102    97Ap     5.247103
      98Ap     5.355791    77App    5.355803    78App    5.477617

    Beta Occupied:

       1Ap   -10.167751     1App  -10.167751     2Ap   -10.167729
       3Ap   -10.166674     4Ap    -0.780811     5Ap    -0.683977
       2App   -0.683977     6Ap    -0.511561     3App   -0.431151
       7Ap    -0.431151     8Ap    -0.421612     9Ap    -0.376578
       4App   -0.376577     5App   -0.363084     6App   -0.332993
      10Ap    -0.332993

    Beta Virtual:

      11Ap    -0.025722    12Ap     0.077104    13Ap     0.135133
       7App    0.135134    14Ap     0.144703     8App    0.144703
      15Ap     0.163157    16Ap     0.182485     9App    0.182486
      10App    0.215282    17Ap     0.218619    11App    0.281982
      18Ap     0.281985    19Ap     0.400381    12App    0.400386
      20Ap     0.419893    13App    0.426950    21Ap     0.426951
      22Ap     0.468178    23Ap     0.497704    14App    0.497705
      15App    0.513842    24Ap     0.556370    25Ap     0.584487
      16App    0.584495    17App    0.597633    26Ap     0.597634
      27Ap     0.609757    28Ap     0.628332    18App    0.632300
      19App    0.639574    29Ap     0.639578    30Ap     0.666713
      20App    0.666713    31Ap     0.686512    21App    0.686513
      32Ap     0.757603    22App    0.830385    33Ap     0.830387
      23App    0.855170    24App    0.922878    34Ap     0.922884
      25App    0.945806    35Ap     0.953164    26App    0.966721
      36Ap     0.966736    37Ap     1.009800    38Ap     1.132183
      27App    1.132194    39Ap     1.154783    40Ap     1.168872
      28App    1.168885    41Ap     1.231508    42Ap     1.279656
      29App    1.279660    43Ap     1.284808    30App    1.329296
      44Ap     1.329298    45Ap     1.364018    31App    1.371563
      46Ap     1.371567    32App    1.394084    47Ap     1.407566
      33App    1.407569    34App    1.421541    48Ap     1.421547
      35App    1.428242    36App    1.492476    49Ap     1.509559
      50Ap     1.547551    37App    1.547551    38App    1.582223
      51Ap     1.582224    52Ap     1.675989    53Ap     1.744464
      39App    1.744475    54Ap     1.778875    40App    1.835991
      55Ap     1.835991    41App    1.972538    56Ap     2.024286
      42App    2.024288    57Ap     2.039644    58Ap     2.058627
      43App    2.058628    44App    2.746348    59Ap     2.746349
      45App    2.812027    60Ap     2.815595    61Ap     2.902410
      46App    2.902416    62Ap     2.924161    63Ap     2.932225
      47App    2.932233    48App    2.960276    64Ap     2.968892
      49App    2.968906    65Ap     3.041726    50App    3.080604
      66Ap     3.080616    51App    3.085824    67Ap     3.184429
      52App    3.184433    68Ap     3.187944    69Ap     3.290699
      53App    3.290700    70Ap     3.331668    54App    3.331674
      71Ap     3.383149    55App    3.492612    72Ap     3.492632
      56App    3.511776    73Ap     3.528191    57App    3.574676
      58App    3.581197    74Ap     3.581218    75Ap     3.672014
      59App    3.672026    76Ap     3.694532    60App    3.725481
      77Ap     3.725497    78Ap     3.780363    61App    3.780389
      79Ap     3.816720    80Ap     3.921077    62App    3.921084
      81Ap     4.043709    82Ap     4.118721    63App    4.118723
      83Ap     4.155632    64App    4.155641    84Ap     4.186464
      65App    4.208021    85Ap     4.208024    86Ap     4.209313
      66App    4.214878    87Ap     4.323371    67App    4.323391
      68App    4.363060    88Ap     4.433207    69App    4.433209
      70App    4.449126    71App    4.524386    89Ap     4.524388
      72App    4.588204    90Ap     4.588216    91Ap     4.623354
      92Ap     4.718203    93Ap     4.780466    73App    4.780474
      74App    4.838245    94Ap     4.969032    75App    5.007150
      95Ap     5.007162    96Ap     5.234173    76App    5.248867
      97Ap     5.248868    98Ap     5.362225    77App    5.362238
      78App    5.479929

    Final Occupation by Irrep:
             Ap   App
    DOCC [    10,    6 ]
    SOCC [     1,    0 ]

  @DF-UKS Final Energy:  -157.81304146887996

   => Energetics <=

    Nuclear Repulsion Energy =            125.3579252495689502
    One-Electron Energy =                -458.6763118436069817
    Two-Electron Energy =                 195.8123489451889441
    DFT Exchange-Correlation Energy =     -20.3070038200308716
    Empirical Dispersion Energy =           0.0000000000000000
    VV10 Nonlocal Energy =                  0.0000000000000000
    Total Energy =                       -157.8130414688799590

  UHF NO Occupations:
  HONO-2 :    9 Ap 1.9996015
  HONO-1 :   10 Ap 1.9989791
  HONO-0 :   11 Ap 1.0000000
  LUNO+0 :   12 Ap 0.0010209
  LUNO+1 :   13 Ap 0.0003985
  LUNO+2 :    7App 0.0001984
  LUNO+3 :   14 Ap 0.0001984

Computation Completed

Properties will be evaluated at   0.000000,   0.000000,   0.000000 [a0]

Properties computed using the SCF density matrix

  Nuclear Dipole Moment: [e a0]
     X:     0.8361      Y:    -0.0000      Z:    -0.0000

  Electronic Dipole Moment: [e a0]
     X:    -0.7582      Y:     0.0000      Z:     0.0000

  Dipole Moment: [e a0]
     X:     0.0779      Y:    -0.0000      Z:    -0.0000     Total:     0.0779

  Dipole Moment: [D]
     X:     0.1981      Y:    -0.0000      Z:    -0.0000     Total:     0.1981

*** tstop() called on n083 at Fri Nov  5 13:19:08 2021
Module time:
	user time   =     495.58 seconds =       8.26 minutes
	system time =       4.63 seconds =       0.08 minutes
	total time  =        126 seconds =       2.10 minutes
Total time:
	user time   =     495.58 seconds =       8.26 minutes
	system time =       4.63 seconds =       0.08 minutes
	total time  =        126 seconds =       2.10 minutes
Grab this energy -157.81304146887996
    Psi4 stopped on: Friday, 05 November 2021 01:19PM
    Psi4 wall time for execution: 0:02:05.78

*** Psi4 exiting successfully. Buy a developer a beer!
