                               Psi4 1.4a2.dev629

  ==> Input File <==

--------------------------------------------------------------------------
import os
memory 14 GB

molecule {
 C   -0.3233388997    0.0053435660   -0.0000019690
 C    0.0612133586   -1.4014205767   -2.4260306118
 C    0.0608722534    2.8018175089   -0.0015995891
 C    0.0612132185   -1.3986476389    2.4276322193
 H    2.0868180849   -1.6444620234   -2.8475751392
 H   -0.7659611592   -0.3884826454   -4.0248731301
 H   -0.7650676533   -3.2927316613   -2.3499717610
 H    2.0870355737    3.2875006621    0.0006224510
 H   -0.7653937102    3.6793578862    1.6771947726
 H   -0.7657879978    3.6794913898   -1.6765877625
 H    2.0868149444   -1.6455343091    2.8469529980
 H   -0.7646729030   -3.2931888750    2.3495555980
 H   -0.7663529871   -0.3890675966    4.0246819239
units bohr
0 2
}

basis {

assign 6-31g_2dfp_

[ 6-31g_2dfp_ ]

spherical

!----------------------------------------------------------------------
! Basis Set Exchange
! Version v0.8.13
! https://www.basissetexchange.org
!----------------------------------------------------------------------
!   Basis set: 6-31G(2df,p)
! Description: 6-31G(2df,p)
!        Role: orbital
!     Version: 0  (Data from the original Basis Set Exchange)
!----------------------------------------------------------------------

****
H     0
S    3   1.00
     18.7311370              0.03349460
      2.8253937              0.23472695
      0.6401217              0.81375733
S    1   1.00
      0.1612778              1.00000000
P    1   1.00
      1.5000000              1.0000000
P    1   1.00
      0.3750000              1.0000000
****
B     0
S    6   1.00
   2068.8823000              0.0018663
    310.6495700              0.0142515
     70.6830330              0.0695516
     19.8610800              0.2325729
      6.2993048              0.4670787
      2.1270270              0.3634314
SP   3   1.00
      4.7279710             -0.1303938              0.0745976
      1.1903377             -0.1307889              0.3078467
      0.3594117              1.1309444              0.7434568
SP   1   1.00
      0.1267512              1.0000000              1.0000000
D    1   1.00
      0.8020000              1.0000000
D    1   1.00
      0.2005000              1.0000000
F    1   1.00
      0.5000000              1.0000000
****
C     0
S    6   1.00
   3047.5249000              0.0018347
    457.3695100              0.0140373
    103.9486900              0.0688426
     29.2101550              0.2321844
      9.2866630              0.4679413
      3.1639270              0.3623120
SP   3   1.00
      7.8682724             -0.1193324              0.0689991
      1.8812885             -0.1608542              0.3164240
      0.5442493              1.1434564              0.7443083
SP   1   1.00
      0.1687144              1.0000000              1.0000000
D    1   1.00
      1.2520000              1.0000000
D    1   1.00
      0.3130000              1.0000000
F    1   1.00
      0.8000000              1.0000000
****
N     0
S    6   1.00
   4173.5110000              0.0018348
    627.4579000              0.0139950
    142.9021000              0.0685870
     40.2343300              0.2322410
     12.8202100              0.4690700
      4.3904370              0.3604550
SP   3   1.00
     11.6263580             -0.1149610              0.0675800
      2.7162800             -0.1691180              0.3239070
      0.7722180              1.1458520              0.7408950
SP   1   1.00
      0.2120313              1.0000000              1.0000000
D    1   1.00
      1.8260000              1.0000000
D    1   1.00
      0.4565000              1.0000000
F    1   1.00
      1.0000000              1.0000000
****
O     0
S    6   1.00
   5484.6717000              0.0018311
    825.2349500              0.0139501
    188.0469600              0.0684451
     52.9645000              0.2327143
     16.8975700              0.4701930
      5.7996353              0.3585209
SP   3   1.00
     15.5396160             -0.1107775              0.0708743
      3.5999336             -0.1480263              0.3397528
      1.0137618              1.1307670              0.7271586
SP   1   1.00
      0.2700058              1.0000000              1.0000000
D    1   1.00
      2.5840000              1.0000000
D    1   1.00
      0.6460000              1.0000000
F    1   1.00
      1.4000000              1.0000000
****
F     0
S    6   1.00
   7001.7130900              0.0018196169
   1051.3660900              0.0139160796
    239.2856900              0.0684053245
     67.3974453              0.233185760
     21.5199573              0.471267439
      7.40310130             0.356618546
SP   3   1.00
     20.8479528             -0.108506975            0.0716287243
      4.80830834            -0.146451658            0.3459121030
      1.34406986             1.128688580            0.7224699570
SP   1   1.00
      0.358151393            1.0000000              1.0000000
D    1   1.00
      3.5000000              1.0000000
D    1   1.00
      0.8750000              1.0000000
F    1   1.00
      1.8500000              1.0000000
****
Al     0
S    6   1.00
  13983.1000000              0.00194267
   2098.7500000              0.0148599
    477.7050000              0.0728494
    134.3600000              0.2468300
     42.8709000              0.4872580
     14.5189000              0.3234960
SP   6   1.00
    239.6680000             -0.00292619             0.00460285
     57.4419000             -0.0374080              0.0331990
     18.2859000             -0.1144870              0.1362820
      6.5991400              0.1156350              0.3304760
      2.4904900              0.6125950              0.4491460
      0.9445400              0.3937990              0.2657040
SP   3   1.00
      1.2779000             -0.2276060             -0.0175130
      0.3975900              0.00144583             0.2445330
      0.1600950              1.0927900              0.8049340
SP   1   1.00
      0.0556577              1.0000000              1.0000000
D    1   1.00
      0.6500000              1.0000000
D    1   1.00
      0.1625000              1.0000000
F    1   1.00
      0.2500000              1.0000000
****
Si     0
S    6   1.00
  16115.9000000              0.00195948
   2425.5800000              0.01492880
    553.8670000              0.07284780
    156.3400000              0.24613000
     50.0683000              0.48591400
     17.0178000              0.32500200
SP   6   1.00
    292.7180000             -0.00278094             0.00443826
     69.8731000             -0.03571460             0.03266790
     22.3363000             -0.11498500             0.13472100
      8.1503900              0.09356340             0.32867800
      3.1345800              0.60301700             0.44964000
      1.2254300              0.41895900             0.26137200
SP   3   1.00
      1.7273800             -0.24463000            -0.01779510
      0.5729220              0.00431572             0.25353900
      0.2221920              1.09818000             0.80066900
SP   1   1.00
      0.0778369              1.00000000             1.00000000
D    1   1.00
      0.9000000              1.0000000
D    1   1.00
      0.2250000              1.0000000
F    1   1.00
      0.3200000              1.0000000
****
P     0
S    6   1.00
  19413.3000000              0.0018516
   2909.4200000              0.0142062
    661.3640000              0.0699995
    185.7590000              0.2400790
     59.1943000              0.4847620
     20.0310000              0.3352000
SP   6   1.00
    339.4780000             -0.00278217             0.00456462
     81.0101000             -0.0360499              0.03369360
     25.8780000             -0.1166310              0.13975500
      9.4522100              0.0968328              0.33936200
      3.6656600              0.6144180              0.45092100
      1.4674600              0.4037980              0.23858600
SP   3   1.00
      2.1562300             -0.2529230             -0.01776530
      0.7489970              0.0328517              0.27405800
      0.2831450              1.0812500              0.78542100
SP   1   1.00
      0.0998317              1.0000000              1.00000000
D    1   1.00
      1.1000000              1.0000000
D    1   1.00
      0.2750000              1.0000000
F    1   1.00
      0.4500000              1.0000000
****
S     0
S    6   1.00
  21917.1000000              0.0018690
   3301.4900000              0.0142300
    754.1460000              0.0696960
    212.7110000              0.2384870
     67.9896000              0.4833070
     23.0515000              0.3380740
SP   6   1.00
    423.7350000             -0.0023767              0.0040610
    100.7100000             -0.0316930              0.0306810
     32.1599000             -0.1133170              0.1304520
     11.8079000              0.0560900              0.3272050
      4.6311000              0.5922550              0.4528510
      1.8702500              0.4550060              0.2560420
SP   3   1.00
      2.6158400             -0.2503740             -0.0145110
      0.9221670              0.0669570              0.3102630
      0.3412870              1.0545100              0.7544830
SP   1   1.00
      0.1171670              1.0000000              1.0000000
D    1   1.00
      1.3000000              1.0000000
D    1   1.00
      0.3250000              1.0000000
F    1   1.00
      0.5500000              1.0000000
****
Cl     0
S    6   1.00
  25180.1000000              0.0018330
   3780.3500000              0.0140340
    860.4740000              0.0690970
    242.1450000              0.2374520
     77.3349000              0.4830340
     26.2470000              0.3398560
SP   6   1.00
    491.7650000             -0.0022974              0.0039894
    116.9840000             -0.0307140              0.0303180
     37.4153000             -0.1125280              0.1298800
     13.7834000              0.0450160              0.3279510
      5.4521500              0.5893530              0.4535270
      2.2258800              0.4652060              0.2521540
SP   3   1.00
      3.1864900             -0.2518300             -0.0142990
      1.1442700              0.0615890              0.3235720
      0.4203770              1.0601800              0.7435070
SP   1   1.00
      0.1426570              1.0000000              1.0000000
D    1   1.00
      1.5000000              1.0000000
D    1   1.00
      0.3750000              1.0000000
F    1   1.00
      0.7000000              1.0000000
****
}

set {
reference uhf
freeze_core true
e_convergence 10
d_convergence 10
dft_spherical_points 1202
dft_radial_points 99
}

e = energy('b3lyp')

print_out('Grab this energy {0}'.format(e))
--------------------------------------------------------------------------

    Molecular point group: c1

    Geometry (in Bohr), charge = 0, multiplicity = 2:

       Center              X                  Y                   Z               Mass
    ------------   -----------------  -----------------  -----------------  -----------------
         C           -0.323338883451     0.003977859570    -0.000001978517    12.000000000000
         C            0.061213374849    -1.402786283130    -2.426030621317    12.000000000000
         C            0.060872269649     2.800451802470    -0.001599598617    12.000000000000
         C            0.061213234749    -1.400013345330     2.427632209783    12.000000000000
         H            2.086818101149    -1.645827729830    -2.847575148717     1.007825032230
         H           -0.765961142951    -0.389848351830    -4.024873139617     1.007825032230
         H           -0.765067637051    -3.294097367730    -2.349971770517     1.007825032230
         H            2.087035589949     3.286134955670     0.000622441483     1.007825032230
         H           -0.765393693951     3.677992179770     1.677194763083     1.007825032230
         H           -0.765787981551     3.678125683370    -1.676587772017     1.007825032230
         H            2.086814960649    -1.646900015530     2.846952988483     1.007825032230
         H           -0.764672886751    -3.294554581430     2.349555588483     1.007825032230
         H           -0.766352970851    -0.390433303030     4.024681914383     1.007825032230

  Charge       = 0
  Multiplicity = 2
  Basis Set: ANONYMOUS589B63F5
    Blend: 6-31G_2DFP_
  Basis Set: (ANONYMOUS589B63F5 AUX)
    Blend: DEF2-UNIVERSAL-JKFIT

    Orbital Energies [Eh]
    ---------------------

    Alpha Occupied:

       1A    -10.180341     2A    -10.167047     3A    -10.167026
       4A    -10.166971     5A     -0.797769     6A     -0.686375
       7A     -0.685998     8A     -0.530775     9A     -0.441131
      10A     -0.434887    11A     -0.434452    12A     -0.382716
      13A     -0.382485    14A     -0.363608    15A     -0.338517
      16A     -0.337478    17A     -0.168960

    Alpha Virtual:

      18A      0.076072    19A      0.134140    20A      0.134170
      21A      0.142452    22A      0.142802    23A      0.154879
      24A      0.178772    25A      0.178786    26A      0.203542
      27A      0.214804    28A      0.275695    29A      0.276275
      30A      0.399107    31A      0.399351    32A      0.403344
      33A      0.424096    34A      0.424098    35A      0.456592
      36A      0.495342    37A      0.495437    38A      0.512153
      39A      0.513984    40A      0.578623    41A      0.579005
      42A      0.591640    43A      0.591644    44A      0.602574
      45A      0.624740    46A      0.631787    47A      0.636094
      48A      0.636413    49A      0.663346    50A      0.663479
      51A      0.683803    52A      0.683905    53A      0.734994
      54A      0.825298    55A      0.825516    56A      0.853916
      57A      0.914908    58A      0.915136    59A      0.944125
      60A      0.944620    61A      0.961110    62A      0.961475
      63A      1.003454    64A      1.127870    65A      1.128306
      66A      1.142262    67A      1.162888    68A      1.163648
      69A      1.223326    70A      1.274021    71A      1.274959
      72A      1.279348    73A      1.324259    74A      1.324450
      75A      1.355985    76A      1.365783    77A      1.366337
      78A      1.392450    79A      1.403997    80A      1.404103
      81A      1.416791    82A      1.417424    83A      1.427918
      84A      1.491451    85A      1.499126    86A      1.542826
      87A      1.542834    88A      1.574428    89A      1.574477
      90A      1.669821    91A      1.739223    92A      1.739626
      93A      1.768320    94A      1.831128    95A      1.831652
      96A      1.971732    97A      2.018265    98A      2.018516
      99A      2.019622   100A      2.052110   101A      2.053182
     102A      2.738248   103A      2.738725   104A      2.790918
     105A      2.811431   106A      2.889389   107A      2.890506
     108A      2.894936   109A      2.929112   110A      2.929884
     111A      2.958992   112A      2.964217   113A      2.964546
     114A      3.034001   115A      3.070775   116A      3.071807
     117A      3.084347   118A      3.168656   119A      3.168859
     120A      3.180655   121A      3.285011   122A      3.285610
     123A      3.326771   124A      3.327546   125A      3.375605
     126A      3.489605   127A      3.490692   128A      3.513994
     129A      3.525361   130A      3.568161   131A      3.568613
     132A      3.575153   133A      3.666064   134A      3.666688
     135A      3.679660   136A      3.694092   137A      3.694148
     138A      3.776090   139A      3.777499   140A      3.789173
     141A      3.911761   142A      3.912687   143A      4.034436
     144A      4.111052   145A      4.111684   146A      4.147138
     147A      4.149106   148A      4.173259   149A      4.202346
     150A      4.202623   151A      4.203809   152A      4.210878
     153A      4.315403   154A      4.316520   155A      4.358978
     156A      4.424376   157A      4.424512   158A      4.443434
     159A      4.516720   160A      4.516971   161A      4.577839
     162A      4.578413   163A      4.617832   164A      4.709468
     165A      4.774038   166A      4.775179   167A      4.836895
     168A      4.962825   169A      5.002732   170A      5.003214
     171A      5.228043   172A      5.246789   173A      5.246857
     174A      5.354949   175A      5.356060   176A      5.479351

    Beta Occupied:

       1A    -10.167798     2A    -10.167784     3A    -10.167741
       4A    -10.166519     5A     -0.781094     6A     -0.684166
       7A     -0.683813     8A     -0.511747     9A     -0.431254
      10A     -0.430836    11A     -0.421819    12A     -0.376760
      13A     -0.376611    14A     -0.362591    15A     -0.333650
      16A     -0.332591

    Beta Virtual:

      17A     -0.025742    18A      0.077081    19A      0.135042
      20A      0.135047    21A      0.144333    22A      0.144663
      23A      0.163338    24A      0.182432    25A      0.182469
      26A      0.215027    27A      0.218931    28A      0.282077
      29A      0.282588    30A      0.400279    31A      0.400518
      32A      0.419791    33A      0.426897    34A      0.426919
      35A      0.468500    36A      0.497599    37A      0.497701
      38A      0.513895    39A      0.556321    40A      0.584151
      41A      0.584581    42A      0.597813    43A      0.597828
      44A      0.609997    45A      0.628108    46A      0.631949
      47A      0.639366    48A      0.639716    49A      0.666916
      50A      0.667036    51A      0.686437    52A      0.686541
      53A      0.757517    54A      0.830470    55A      0.830680
      56A      0.855269    57A      0.922853    58A      0.923134
      59A      0.945963    60A      0.953548    61A      0.966408
      62A      0.966789    63A      1.008694    64A      1.131922
      65A      1.132329    66A      1.155623    67A      1.167966
      68A      1.168714    69A      1.232299    70A      1.279673
      71A      1.280504    72A      1.285101    73A      1.329260
      74A      1.329428    75A      1.365397    76A      1.371075
      77A      1.371533    78A      1.393512    79A      1.407405
      80A      1.407623    81A      1.421848    82A      1.422465
      83A      1.428191    84A      1.492518    85A      1.509549
      86A      1.547229    87A      1.547246    88A      1.582320
      89A      1.582328    90A      1.674668    91A      1.744980
      92A      1.745391    93A      1.779100    94A      1.834969
      95A      1.835522    96A      1.972592    97A      2.024890
      98A      2.026010    99A      2.039675   100A      2.058838
     101A      2.059889   102A      2.746552   103A      2.747092
     104A      2.811801   105A      2.816095   106A      2.902163
     107A      2.903105   108A      2.924644   109A      2.931540
     110A      2.932421   111A      2.960057   112A      2.968764
     113A      2.969086   114A      3.041936   115A      3.080763
     116A      3.081639   117A      3.086163   118A      3.184379
     119A      3.184523   120A      3.188452   121A      3.289850
     122A      3.290367   123A      3.330575   124A      3.331352
     125A      3.383424   126A      3.492322   127A      3.493430
     128A      3.512370   129A      3.528398   130A      3.575005
     131A      3.581550   132A      3.581916   133A      3.670885
     134A      3.671357   135A      3.692955   136A      3.725602
     137A      3.725904   138A      3.780624   139A      3.782043
     140A      3.817684   141A      3.921580   142A      3.922508
     143A      4.045323   144A      4.117912   145A      4.118458
     146A      4.154371   147A      4.156288   148A      4.187319
     149A      4.208567   150A      4.209172   151A      4.210875
     152A      4.215358   153A      4.322778   154A      4.324025
     155A      4.362342   156A      4.432591   157A      4.432724
     158A      4.446323   159A      4.524464   160A      4.524806
     161A      4.588420   162A      4.589012   163A      4.625047
     164A      4.719815   165A      4.780954   166A      4.782169
     167A      4.839812   168A      4.967617   169A      5.006789
     170A      5.007238   171A      5.233759   172A      5.248578
     173A      5.248637   174A      5.361403   175A      5.362566
     176A      5.481672

    Final Occupation by Irrep:
              A
    DOCC [    16 ]
    SOCC [     1 ]

  @DF-UKS Final Energy:  -157.81306286916475

   => Energetics <=

    Nuclear Repulsion Energy =            125.3946888935129920
    One-Electron Energy =                -458.7490231973045525
    Two-Electron Energy =                 195.8484172390430729
    DFT Exchange-Correlation Energy =     -20.3071458044162512
    Empirical Dispersion Energy =           0.0000000000000000
    VV10 Nonlocal Energy =                  0.0000000000000000
    Total Energy =                       -157.8130628691647530

  UHF NO Occupations:
  HONO-2 :   15  A 1.9996009
  HONO-1 :   16  A 1.9989805
  HONO-0 :   17  A 1.0000000
  LUNO+0 :   18  A 0.0010195
  LUNO+1 :   19  A 0.0003991
  LUNO+2 :   20  A 0.0001986
  LUNO+3 :   21  A 0.0001965

Computation Completed

Properties will be evaluated at   0.000000,   0.000000,   0.000000 [a0]

Properties computed using the SCF density matrix

  Nuclear Dipole Moment: [e a0]
     X:     0.8272      Y:    -0.0096      Z:    -0.0000

  Electronic Dipole Moment: [e a0]
     X:    -0.7493      Y:     0.0109      Z:     0.0000

  Dipole Moment: [e a0]
     X:     0.0779      Y:     0.0012      Z:     0.0000     Total:     0.0779

  Dipole Moment: [D]
     X:     0.1980      Y:     0.0031      Z:     0.0000     Total:     0.1981

*** tstop() called on n035 at Fri Nov  5 12:43:44 2021
Module time:
	user time   =     630.50 seconds =      10.51 minutes
	system time =      11.93 seconds =       0.20 minutes
	total time  =        161 seconds =       2.68 minutes
Total time:
	user time   =     630.50 seconds =      10.51 minutes
	system time =      11.93 seconds =       0.20 minutes
	total time  =        161 seconds =       2.68 minutes
Grab this energy -157.81306286916475
    Psi4 stopped on: Friday, 05 November 2021 12:43PM
    Psi4 wall time for execution: 0:02:41.52

*** Psi4 exiting successfully. Buy a developer a beer!
