                               Psi4 1.4a2.dev629

  ==> Input File <==

--------------------------------------------------------------------------
import os
memory 14 GB

molecule {
 C   -0.3251202312   -0.0000022355    0.0000000191
 C    0.0605819618   -1.4016984713   -2.4262039427
 C    0.0604621624    2.8020168866   -0.0007992252
 C    0.0605818885   -1.4003141829    2.4270031812
 H    2.0872535417   -1.6424545242   -2.8414248815
 H   -0.7656667944   -0.3889820807   -4.0236527916
 H   -0.7644720069   -3.2962122887   -2.3554031636
 H    2.0871149385    3.2820708414   -0.0015850199
 H   -0.7659074177    3.6790515025    1.6749269638
 H   -0.7645503164    3.6879161670   -1.6769405951
 H    2.0872533517   -1.6397088161    2.8430090514
 H   -0.7658296037   -3.2900363262    2.3487335091
 H   -0.7643093511   -0.3916707855    4.0323368949
units bohr
0 2
}

basis {

assign 6-31g_2dfp_

[ 6-31g_2dfp_ ]

spherical

!----------------------------------------------------------------------
! Basis Set Exchange
! Version v0.8.13
! https://www.basissetexchange.org
!----------------------------------------------------------------------
!   Basis set: 6-31G(2df,p)
! Description: 6-31G(2df,p)
!        Role: orbital
!     Version: 0  (Data from the original Basis Set Exchange)
!----------------------------------------------------------------------

****
H     0
S    3   1.00
     18.7311370              0.03349460
      2.8253937              0.23472695
      0.6401217              0.81375733
S    1   1.00
      0.1612778              1.00000000
P    1   1.00
      1.5000000              1.0000000
P    1   1.00
      0.3750000              1.0000000
****
B     0
S    6   1.00
   2068.8823000              0.0018663
    310.6495700              0.0142515
     70.6830330              0.0695516
     19.8610800              0.2325729
      6.2993048              0.4670787
      2.1270270              0.3634314
SP   3   1.00
      4.7279710             -0.1303938              0.0745976
      1.1903377             -0.1307889              0.3078467
      0.3594117              1.1309444              0.7434568
SP   1   1.00
      0.1267512              1.0000000              1.0000000
D    1   1.00
      0.8020000              1.0000000
D    1   1.00
      0.2005000              1.0000000
F    1   1.00
      0.5000000              1.0000000
****
C     0
S    6   1.00
   3047.5249000              0.0018347
    457.3695100              0.0140373
    103.9486900              0.0688426
     29.2101550              0.2321844
      9.2866630              0.4679413
      3.1639270              0.3623120
SP   3   1.00
      7.8682724             -0.1193324              0.0689991
      1.8812885             -0.1608542              0.3164240
      0.5442493              1.1434564              0.7443083
SP   1   1.00
      0.1687144              1.0000000              1.0000000
D    1   1.00
      1.2520000              1.0000000
D    1   1.00
      0.3130000              1.0000000
F    1   1.00
      0.8000000              1.0000000
****
N     0
S    6   1.00
   4173.5110000              0.0018348
    627.4579000              0.0139950
    142.9021000              0.0685870
     40.2343300              0.2322410
     12.8202100              0.4690700
      4.3904370              0.3604550
SP   3   1.00
     11.6263580             -0.1149610              0.0675800
      2.7162800             -0.1691180              0.3239070
      0.7722180              1.1458520              0.7408950
SP   1   1.00
      0.2120313              1.0000000              1.0000000
D    1   1.00
      1.8260000              1.0000000
D    1   1.00
      0.4565000              1.0000000
F    1   1.00
      1.0000000              1.0000000
****
O     0
S    6   1.00
   5484.6717000              0.0018311
    825.2349500              0.0139501
    188.0469600              0.0684451
     52.9645000              0.2327143
     16.8975700              0.4701930
      5.7996353              0.3585209
SP   3   1.00
     15.5396160             -0.1107775              0.0708743
      3.5999336             -0.1480263              0.3397528
      1.0137618              1.1307670              0.7271586
SP   1   1.00
      0.2700058              1.0000000              1.0000000
D    1   1.00
      2.5840000              1.0000000
D    1   1.00
      0.6460000              1.0000000
F    1   1.00
      1.4000000              1.0000000
****
F     0
S    6   1.00
   7001.7130900              0.0018196169
   1051.3660900              0.0139160796
    239.2856900              0.0684053245
     67.3974453              0.233185760
     21.5199573              0.471267439
      7.40310130             0.356618546
SP   3   1.00
     20.8479528             -0.108506975            0.0716287243
      4.80830834            -0.146451658            0.3459121030
      1.34406986             1.128688580            0.7224699570
SP   1   1.00
      0.358151393            1.0000000              1.0000000
D    1   1.00
      3.5000000              1.0000000
D    1   1.00
      0.8750000              1.0000000
F    1   1.00
      1.8500000              1.0000000
****
Al     0
S    6   1.00
  13983.1000000              0.00194267
   2098.7500000              0.0148599
    477.7050000              0.0728494
    134.3600000              0.2468300
     42.8709000              0.4872580
     14.5189000              0.3234960
SP   6   1.00
    239.6680000             -0.00292619             0.00460285
     57.4419000             -0.0374080              0.0331990
     18.2859000             -0.1144870              0.1362820
      6.5991400              0.1156350              0.3304760
      2.4904900              0.6125950              0.4491460
      0.9445400              0.3937990              0.2657040
SP   3   1.00
      1.2779000             -0.2276060             -0.0175130
      0.3975900              0.00144583             0.2445330
      0.1600950              1.0927900              0.8049340
SP   1   1.00
      0.0556577              1.0000000              1.0000000
D    1   1.00
      0.6500000              1.0000000
D    1   1.00
      0.1625000              1.0000000
F    1   1.00
      0.2500000              1.0000000
****
Si     0
S    6   1.00
  16115.9000000              0.00195948
   2425.5800000              0.01492880
    553.8670000              0.07284780
    156.3400000              0.24613000
     50.0683000              0.48591400
     17.0178000              0.32500200
SP   6   1.00
    292.7180000             -0.00278094             0.00443826
     69.8731000             -0.03571460             0.03266790
     22.3363000             -0.11498500             0.13472100
      8.1503900              0.09356340             0.32867800
      3.1345800              0.60301700             0.44964000
      1.2254300              0.41895900             0.26137200
SP   3   1.00
      1.7273800             -0.24463000            -0.01779510
      0.5729220              0.00431572             0.25353900
      0.2221920              1.09818000             0.80066900
SP   1   1.00
      0.0778369              1.00000000             1.00000000
D    1   1.00
      0.9000000              1.0000000
D    1   1.00
      0.2250000              1.0000000
F    1   1.00
      0.3200000              1.0000000
****
P     0
S    6   1.00
  19413.3000000              0.0018516
   2909.4200000              0.0142062
    661.3640000              0.0699995
    185.7590000              0.2400790
     59.1943000              0.4847620
     20.0310000              0.3352000
SP   6   1.00
    339.4780000             -0.00278217             0.00456462
     81.0101000             -0.0360499              0.03369360
     25.8780000             -0.1166310              0.13975500
      9.4522100              0.0968328              0.33936200
      3.6656600              0.6144180              0.45092100
      1.4674600              0.4037980              0.23858600
SP   3   1.00
      2.1562300             -0.2529230             -0.01776530
      0.7489970              0.0328517              0.27405800
      0.2831450              1.0812500              0.78542100
SP   1   1.00
      0.0998317              1.0000000              1.00000000
D    1   1.00
      1.1000000              1.0000000
D    1   1.00
      0.2750000              1.0000000
F    1   1.00
      0.4500000              1.0000000
****
S     0
S    6   1.00
  21917.1000000              0.0018690
   3301.4900000              0.0142300
    754.1460000              0.0696960
    212.7110000              0.2384870
     67.9896000              0.4833070
     23.0515000              0.3380740
SP   6   1.00
    423.7350000             -0.0023767              0.0040610
    100.7100000             -0.0316930              0.0306810
     32.1599000             -0.1133170              0.1304520
     11.8079000              0.0560900              0.3272050
      4.6311000              0.5922550              0.4528510
      1.8702500              0.4550060              0.2560420
SP   3   1.00
      2.6158400             -0.2503740             -0.0145110
      0.9221670              0.0669570              0.3102630
      0.3412870              1.0545100              0.7544830
SP   1   1.00
      0.1171670              1.0000000              1.0000000
D    1   1.00
      1.3000000              1.0000000
D    1   1.00
      0.3250000              1.0000000
F    1   1.00
      0.5500000              1.0000000
****
Cl     0
S    6   1.00
  25180.1000000              0.0018330
   3780.3500000              0.0140340
    860.4740000              0.0690970
    242.1450000              0.2374520
     77.3349000              0.4830340
     26.2470000              0.3398560
SP   6   1.00
    491.7650000             -0.0022974              0.0039894
    116.9840000             -0.0307140              0.0303180
     37.4153000             -0.1125280              0.1298800
     13.7834000              0.0450160              0.3279510
      5.4521500              0.5893530              0.4535270
      2.2258800              0.4652060              0.2521540
SP   3   1.00
      3.1864900             -0.2518300             -0.0142990
      1.1442700              0.0615890              0.3235720
      0.4203770              1.0601800              0.7435070
SP   1   1.00
      0.1426570              1.0000000              1.0000000
D    1   1.00
      1.5000000              1.0000000
D    1   1.00
      0.3750000              1.0000000
F    1   1.00
      0.7000000              1.0000000
****
}

set {
reference uhf
freeze_core true
e_convergence 10
d_convergence 10
dft_spherical_points 1202
dft_radial_points 99
}

e = energy('b3lyp')

print_out('Grab this energy {0}'.format(e))
--------------------------------------------------------------------------

    Molecular point group: c1

    Geometry (in Bohr), charge = 0, multiplicity = 2:

       Center              X                  Y                   Z               Mass
    ------------   -----------------  -----------------  -----------------  -----------------
         C           -0.324454920917    -0.000002190756     0.000000012861    12.000000000000
         C            0.061247272083    -1.401698426556    -2.426203948939    12.000000000000
         C            0.061127472683     2.802016931344    -0.000799231439    12.000000000000
         C            0.061247198783    -1.400314138156     2.427003174961    12.000000000000
         H            2.087918851983    -1.642454479456    -2.841424887739     1.007825032230
         H           -0.765001484117    -0.388982035956    -4.023652797839     1.007825032230
         H           -0.763806696617    -3.296212243956    -2.355403169839     1.007825032230
         H            2.087780248783     3.282070886144    -0.001585026139     1.007825032230
         H           -0.765242107417     3.679051547244     1.674926957561     1.007825032230
         H           -0.763885006117     3.687916211744    -1.676940601339     1.007825032230
         H            2.087918661983    -1.639708771356     2.843009045161     1.007825032230
         H           -0.765164293417    -3.290036281456     2.348733502861     1.007825032230
         H           -0.763644040817    -0.391670740756     4.032336888661     1.007825032230

  Charge       = 0
  Multiplicity = 2
  Basis Set: ANONYMOUS80FFD409
    Blend: 6-31G_2DFP_
  Basis Set: (ANONYMOUS80FFD409 AUX)
    Blend: DEF2-UNIVERSAL-JKFIT

    Orbital Energies [Eh]
    ---------------------

    Alpha Occupied:

       1A    -10.180355     2A    -10.167077     3A    -10.167077
       4A    -10.167031     5A     -0.797702     6A     -0.686150
       7A     -0.686149     8A     -0.530764     9A     -0.441294
      10A     -0.434462    11A     -0.434461    12A     -0.382752
      13A     -0.382750    14A     -0.363472    15A     -0.337975
      16A     -0.337975    17A     -0.168871

    Alpha Virtual:

      18A      0.076037    19A      0.134203    20A      0.134204
      21A      0.142559    22A      0.142560    23A      0.154673
      24A      0.178817    25A      0.178817    26A      0.203397
      27A      0.214598    28A      0.275945    29A      0.275947
      30A      0.399001    31A      0.399005    32A      0.403417
      33A      0.424250    34A      0.424251    35A      0.456358
      36A      0.495412    37A      0.495413    38A      0.512349
      39A      0.513924    40A      0.578649    41A      0.578658
      42A      0.591835    43A      0.591837    44A      0.602801
      45A      0.624623    46A      0.631604    47A      0.636152
      48A      0.636156    49A      0.663135    50A      0.663135
      51A      0.683937    52A      0.683938    53A      0.734908
      54A      0.825504    55A      0.825507    56A      0.853575
      57A      0.914881    58A      0.914886    59A      0.943855
      60A      0.945442    61A      0.961562    62A      0.961579
      63A      1.002739    64A      1.127649    65A      1.127661
      66A      1.142805    67A      1.162713    68A      1.162725
      69A      1.223406    70A      1.274518    71A      1.274521
      72A      1.279136    73A      1.324074    74A      1.324077
      75A      1.356392    76A      1.365727    77A      1.365731
      78A      1.392654    79A      1.404295    80A      1.404297
      81A      1.417282    82A      1.417288    83A      1.427300
      84A      1.490896    85A      1.499398    86A      1.542765
      87A      1.542767    88A      1.575069    89A      1.575071
      90A      1.669769    91A      1.739554    92A      1.739565
      93A      1.768467    94A      1.831116    95A      1.831116
      96A      1.971633    97A      2.018202    98A      2.018206
      99A      2.018517   100A      2.052162   101A      2.052162
     102A      2.738902   103A      2.738903   104A      2.790695
     105A      2.810914   106A      2.889791   107A      2.889798
     108A      2.894689   109A      2.929036   110A      2.929045
     111A      2.958937   112A      2.964318   113A      2.964332
     114A      3.033534   115A      3.071754   116A      3.071767
     117A      3.084703   118A      3.168847   119A      3.168855
     120A      3.180427   121A      3.285706   122A      3.285706
     123A      3.326066   124A      3.326072   125A      3.375901
     126A      3.490632   127A      3.490652   128A      3.513653
     129A      3.525243   130A      3.567839   131A      3.567860
     132A      3.574337   133A      3.666437   134A      3.666445
     135A      3.678554   136A      3.694618   137A      3.694634
     138A      3.775653   139A      3.775679   140A      3.790430
     141A      3.912139   142A      3.912146   143A      4.035579
     144A      4.111247   145A      4.111251   146A      4.148353
     147A      4.148361   148A      4.173284   149A      4.202267
     150A      4.202270   151A      4.203029   152A      4.210362
     153A      4.315649   154A      4.315669   155A      4.357778
     156A      4.424961   157A      4.424964   158A      4.442449
     159A      4.516014   160A      4.516015   161A      4.577302
     162A      4.577314   163A      4.617006   164A      4.709147
     165A      4.774212   166A      4.774219   167A      4.837931
     168A      4.962370   169A      5.003061   170A      5.003073
     171A      5.227688   172A      5.246873   173A      5.246873
     174A      5.354921   175A      5.354934   176A      5.479084

    Beta Occupied:

       1A    -10.167829     2A    -10.167829     3A    -10.167803
       4A    -10.166528     5A     -0.781024     6A     -0.683954
       7A     -0.683954     8A     -0.511739     9A     -0.430841
      10A     -0.430840    11A     -0.421986    12A     -0.376847
      13A     -0.376846    14A     -0.362462    15A     -0.333095
      16A     -0.333094

    Beta Virtual:

      17A     -0.025577    18A      0.077050    19A      0.135078
      20A      0.135079    21A      0.144420    22A      0.144420
      23A      0.163084    24A      0.182494    25A      0.182495
      26A      0.214762    27A      0.218883    28A      0.282304
      29A      0.282306    30A      0.400165    31A      0.400169
      32A      0.419843    33A      0.427067    34A      0.427067
      35A      0.468187    36A      0.497659    37A      0.497660
      38A      0.514080    39A      0.556354    40A      0.584180
      41A      0.584187    42A      0.598040    43A      0.598040
      44A      0.610205    45A      0.627937    46A      0.631814
      47A      0.639446    48A      0.639450    49A      0.666675
      50A      0.666675    51A      0.686591    52A      0.686592
      53A      0.757467    54A      0.830657    55A      0.830660
      56A      0.854925    57A      0.922806    58A      0.922812
      59A      0.945718    60A      0.954265    61A      0.966895
      62A      0.966911    63A      1.007949    64A      1.131674
      65A      1.131685    66A      1.156404    67A      1.167795
      68A      1.167807    69A      1.232274    70A      1.280095
      71A      1.280099    72A      1.284822    73A      1.329025
      74A      1.329027    75A      1.365866    76A      1.370976
      77A      1.370980    78A      1.393698    79A      1.407749
      80A      1.407752    81A      1.422381    82A      1.422388
      83A      1.427565    84A      1.491956    85A      1.509864
      86A      1.547179    87A      1.547179    88A      1.582931
      89A      1.582932    90A      1.674614    91A      1.745314
      92A      1.745325    93A      1.779233    94A      1.834973
      95A      1.834974    96A      1.972486    97A      2.024576
      98A      2.024579    99A      2.039873   100A      2.058890
     101A      2.058891   102A      2.747227   103A      2.747228
     104A      2.811311   105A      2.815836   106A      2.902546
     107A      2.902552   108A      2.924409   109A      2.931500
     110A      2.931509   111A      2.959999   112A      2.968826
     113A      2.968840   114A      3.041477   115A      3.081678
     116A      3.081689   117A      3.086517   118A      3.184612
     119A      3.184617   120A      3.188083   121A      3.290526
     122A      3.290526   123A      3.329896   124A      3.329902
     125A      3.383745   126A      3.493296   127A      3.493316
     128A      3.512032   129A      3.528303   130A      3.574212
     131A      3.581232   132A      3.581253   133A      3.671275
     134A      3.671286   135A      3.691905   136A      3.726092
     137A      3.726108   138A      3.780117   139A      3.780143
     140A      3.818951   141A      3.922003   142A      3.922010
     143A      4.046413   144A      4.117975   145A      4.117977
     146A      4.155637   147A      4.155647   148A      4.187379
     149A      4.208239   150A      4.208243   151A      4.210947
     152A      4.214811   153A      4.323075   154A      4.323095
     155A      4.361120   156A      4.433172   157A      4.433174
     158A      4.445351   159A      4.523817   160A      4.523819
     161A      4.587883   162A      4.587895   163A      4.624274
     164A      4.719382   165A      4.781179   166A      4.781186
     167A      4.840848   168A      4.967167   169A      5.007084
     170A      5.007097   171A      5.233419   172A      5.248653
     173A      5.248654   174A      5.361399   175A      5.361413
     176A      5.481400

    Final Occupation by Irrep:
              A
    DOCC [    16 ]
    SOCC [     1 ]

  @DF-UKS Final Energy:  -157.81305726775605

   => Energetics <=

    Nuclear Repulsion Energy =            125.3830191598648298
    One-Electron Energy =                -458.7262361446495333
    Two-Electron Energy =                 195.8369572381977548
    DFT Exchange-Correlation Energy =     -20.3067975211690914
    Empirical Dispersion Energy =           0.0000000000000000
    VV10 Nonlocal Energy =                  0.0000000000000000
    Total Energy =                       -157.8130572677560508

  UHF NO Occupations:
  HONO-2 :   15  A 1.9996022
  HONO-1 :   16  A 1.9989785
  HONO-0 :   17  A 1.0000000
  LUNO+0 :   18  A 0.0010215
  LUNO+1 :   19  A 0.0003978
  LUNO+2 :   20  A 0.0001978
  LUNO+3 :   21  A 0.0001978

Computation Completed

Properties will be evaluated at   0.000000,   0.000000,   0.000000 [a0]

Properties computed using the SCF density matrix

  Nuclear Dipole Moment: [e a0]
     X:     0.8319      Y:    -0.0000      Z:    -0.0000

  Electronic Dipole Moment: [e a0]
     X:    -0.7535      Y:     0.0000      Z:     0.0000

  Dipole Moment: [e a0]
     X:     0.0783      Y:     0.0000      Z:     0.0000     Total:     0.0783

  Dipole Moment: [D]
     X:     0.1991      Y:     0.0000      Z:     0.0000     Total:     0.1991

*** tstop() called on n031 at Fri Nov  5 15:29:05 2021
Module time:
	user time   =     635.63 seconds =      10.59 minutes
	system time =      12.07 seconds =       0.20 minutes
	total time  =        163 seconds =       2.72 minutes
Total time:
	user time   =     635.63 seconds =      10.59 minutes
	system time =      12.07 seconds =       0.20 minutes
	total time  =        163 seconds =       2.72 minutes
Grab this energy -157.81305726775605
    Psi4 stopped on: Friday, 05 November 2021 03:29PM
    Psi4 wall time for execution: 0:02:42.87

*** Psi4 exiting successfully. Buy a developer a beer!
