                               Psi4 1.4a2.dev629

  ==> Input File <==

--------------------------------------------------------------------------
import os
memory 14 GB

molecule {
 C   -0.3233383340    0.0004908857   -0.0053442124
 C    0.0609632725   -1.4001745797   -2.4263481804
 C    0.0611169222    2.8026132285   -0.0011061096
 C    0.0612199502   -1.4010860923    2.4257089958
 H    2.0892337401   -1.6441649799   -2.8465128521
 H   -0.7669422862   -0.3860787730   -4.0251972473
 H   -0.7661116274   -3.2948016296   -2.3478286582
 H    2.0826156601    3.2885959902    0.0009969978
 H   -0.7626382444    3.6805848960    1.6731911433
 H   -0.7643049910    3.6788699726   -1.6717272935
 H    2.0888226997   -1.6438208236    2.8479170366
 H   -0.7670447998   -3.2938726489    2.3490367398
 H   -0.7661998387   -0.3871797596    4.0272136402
units bohr
0 2
}

basis {

assign 6-31g_2dfp_

[ 6-31g_2dfp_ ]

spherical

!----------------------------------------------------------------------
! Basis Set Exchange
! Version v0.8.13
! https://www.basissetexchange.org
!----------------------------------------------------------------------
!   Basis set: 6-31G(2df,p)
! Description: 6-31G(2df,p)
!        Role: orbital
!     Version: 0  (Data from the original Basis Set Exchange)
!----------------------------------------------------------------------

****
H     0
S    3   1.00
     18.7311370              0.03349460
      2.8253937              0.23472695
      0.6401217              0.81375733
S    1   1.00
      0.1612778              1.00000000
P    1   1.00
      1.5000000              1.0000000
P    1   1.00
      0.3750000              1.0000000
****
B     0
S    6   1.00
   2068.8823000              0.0018663
    310.6495700              0.0142515
     70.6830330              0.0695516
     19.8610800              0.2325729
      6.2993048              0.4670787
      2.1270270              0.3634314
SP   3   1.00
      4.7279710             -0.1303938              0.0745976
      1.1903377             -0.1307889              0.3078467
      0.3594117              1.1309444              0.7434568
SP   1   1.00
      0.1267512              1.0000000              1.0000000
D    1   1.00
      0.8020000              1.0000000
D    1   1.00
      0.2005000              1.0000000
F    1   1.00
      0.5000000              1.0000000
****
C     0
S    6   1.00
   3047.5249000              0.0018347
    457.3695100              0.0140373
    103.9486900              0.0688426
     29.2101550              0.2321844
      9.2866630              0.4679413
      3.1639270              0.3623120
SP   3   1.00
      7.8682724             -0.1193324              0.0689991
      1.8812885             -0.1608542              0.3164240
      0.5442493              1.1434564              0.7443083
SP   1   1.00
      0.1687144              1.0000000              1.0000000
D    1   1.00
      1.2520000              1.0000000
D    1   1.00
      0.3130000              1.0000000
F    1   1.00
      0.8000000              1.0000000
****
N     0
S    6   1.00
   4173.5110000              0.0018348
    627.4579000              0.0139950
    142.9021000              0.0685870
     40.2343300              0.2322410
     12.8202100              0.4690700
      4.3904370              0.3604550
SP   3   1.00
     11.6263580             -0.1149610              0.0675800
      2.7162800             -0.1691180              0.3239070
      0.7722180              1.1458520              0.7408950
SP   1   1.00
      0.2120313              1.0000000              1.0000000
D    1   1.00
      1.8260000              1.0000000
D    1   1.00
      0.4565000              1.0000000
F    1   1.00
      1.0000000              1.0000000
****
O     0
S    6   1.00
   5484.6717000              0.0018311
    825.2349500              0.0139501
    188.0469600              0.0684451
     52.9645000              0.2327143
     16.8975700              0.4701930
      5.7996353              0.3585209
SP   3   1.00
     15.5396160             -0.1107775              0.0708743
      3.5999336             -0.1480263              0.3397528
      1.0137618              1.1307670              0.7271586
SP   1   1.00
      0.2700058              1.0000000              1.0000000
D    1   1.00
      2.5840000              1.0000000
D    1   1.00
      0.6460000              1.0000000
F    1   1.00
      1.4000000              1.0000000
****
F     0
S    6   1.00
   7001.7130900              0.0018196169
   1051.3660900              0.0139160796
    239.2856900              0.0684053245
     67.3974453              0.233185760
     21.5199573              0.471267439
      7.40310130             0.356618546
SP   3   1.00
     20.8479528             -0.108506975            0.0716287243
      4.80830834            -0.146451658            0.3459121030
      1.34406986             1.128688580            0.7224699570
SP   1   1.00
      0.358151393            1.0000000              1.0000000
D    1   1.00
      3.5000000              1.0000000
D    1   1.00
      0.8750000              1.0000000
F    1   1.00
      1.8500000              1.0000000
****
Al     0
S    6   1.00
  13983.1000000              0.00194267
   2098.7500000              0.0148599
    477.7050000              0.0728494
    134.3600000              0.2468300
     42.8709000              0.4872580
     14.5189000              0.3234960
SP   6   1.00
    239.6680000             -0.00292619             0.00460285
     57.4419000             -0.0374080              0.0331990
     18.2859000             -0.1144870              0.1362820
      6.5991400              0.1156350              0.3304760
      2.4904900              0.6125950              0.4491460
      0.9445400              0.3937990              0.2657040
SP   3   1.00
      1.2779000             -0.2276060             -0.0175130
      0.3975900              0.00144583             0.2445330
      0.1600950              1.0927900              0.8049340
SP   1   1.00
      0.0556577              1.0000000              1.0000000
D    1   1.00
      0.6500000              1.0000000
D    1   1.00
      0.1625000              1.0000000
F    1   1.00
      0.2500000              1.0000000
****
Si     0
S    6   1.00
  16115.9000000              0.00195948
   2425.5800000              0.01492880
    553.8670000              0.07284780
    156.3400000              0.24613000
     50.0683000              0.48591400
     17.0178000              0.32500200
SP   6   1.00
    292.7180000             -0.00278094             0.00443826
     69.8731000             -0.03571460             0.03266790
     22.3363000             -0.11498500             0.13472100
      8.1503900              0.09356340             0.32867800
      3.1345800              0.60301700             0.44964000
      1.2254300              0.41895900             0.26137200
SP   3   1.00
      1.7273800             -0.24463000            -0.01779510
      0.5729220              0.00431572             0.25353900
      0.2221920              1.09818000             0.80066900
SP   1   1.00
      0.0778369              1.00000000             1.00000000
D    1   1.00
      0.9000000              1.0000000
D    1   1.00
      0.2250000              1.0000000
F    1   1.00
      0.3200000              1.0000000
****
P     0
S    6   1.00
  19413.3000000              0.0018516
   2909.4200000              0.0142062
    661.3640000              0.0699995
    185.7590000              0.2400790
     59.1943000              0.4847620
     20.0310000              0.3352000
SP   6   1.00
    339.4780000             -0.00278217             0.00456462
     81.0101000             -0.0360499              0.03369360
     25.8780000             -0.1166310              0.13975500
      9.4522100              0.0968328              0.33936200
      3.6656600              0.6144180              0.45092100
      1.4674600              0.4037980              0.23858600
SP   3   1.00
      2.1562300             -0.2529230             -0.01776530
      0.7489970              0.0328517              0.27405800
      0.2831450              1.0812500              0.78542100
SP   1   1.00
      0.0998317              1.0000000              1.00000000
D    1   1.00
      1.1000000              1.0000000
D    1   1.00
      0.2750000              1.0000000
F    1   1.00
      0.4500000              1.0000000
****
S     0
S    6   1.00
  21917.1000000              0.0018690
   3301.4900000              0.0142300
    754.1460000              0.0696960
    212.7110000              0.2384870
     67.9896000              0.4833070
     23.0515000              0.3380740
SP   6   1.00
    423.7350000             -0.0023767              0.0040610
    100.7100000             -0.0316930              0.0306810
     32.1599000             -0.1133170              0.1304520
     11.8079000              0.0560900              0.3272050
      4.6311000              0.5922550              0.4528510
      1.8702500              0.4550060              0.2560420
SP   3   1.00
      2.6158400             -0.2503740             -0.0145110
      0.9221670              0.0669570              0.3102630
      0.3412870              1.0545100              0.7544830
SP   1   1.00
      0.1171670              1.0000000              1.0000000
D    1   1.00
      1.3000000              1.0000000
D    1   1.00
      0.3250000              1.0000000
F    1   1.00
      0.5500000              1.0000000
****
Cl     0
S    6   1.00
  25180.1000000              0.0018330
   3780.3500000              0.0140340
    860.4740000              0.0690970
    242.1450000              0.2374520
     77.3349000              0.4830340
     26.2470000              0.3398560
SP   6   1.00
    491.7650000             -0.0022974              0.0039894
    116.9840000             -0.0307140              0.0303180
     37.4153000             -0.1125280              0.1298800
     13.7834000              0.0450160              0.3279510
      5.4521500              0.5893530              0.4535270
      2.2258800              0.4652060              0.2521540
SP   3   1.00
      3.1864900             -0.2518300             -0.0142990
      1.1442700              0.0615890              0.3235720
      0.4203770              1.0601800              0.7435070
SP   1   1.00
      0.1426570              1.0000000              1.0000000
D    1   1.00
      1.5000000              1.0000000
D    1   1.00
      0.3750000              1.0000000
F    1   1.00
      0.7000000              1.0000000
****
}

set {
reference uhf
freeze_core true
e_convergence 10
d_convergence 10
dft_spherical_points 1202
dft_radial_points 99
}

e = energy('b3lyp')

print_out('Grab this energy {0}'.format(e))
--------------------------------------------------------------------------

    Molecular point group: c1

    Geometry (in Bohr), charge = 0, multiplicity = 2:

       Center              X                  Y                   Z               Mass
    ------------   -----------------  -----------------  -----------------  -----------------
         C           -0.323338679873     0.000136254816    -0.003978722366    12.000000000000
         C            0.060962926627    -1.400529210584    -2.424982690366    12.000000000000
         C            0.061116576327     2.802258597616     0.000259380434    12.000000000000
         C            0.061219604327    -1.401440723184     2.427074485834    12.000000000000
         H            2.089233394227    -1.644519610784    -2.845147362066     1.007825032230
         H           -0.766942632073    -0.386433403884    -4.023831757266     1.007825032230
         H           -0.766111973273    -3.295156260484    -2.346463168166     1.007825032230
         H            2.082615314227     3.288241359316     0.002362487834     1.007825032230
         H           -0.762638590273     3.680230265116     1.674556633334     1.007825032230
         H           -0.764305336873     3.678515341716    -1.670361803466     1.007825032230
         H            2.088822353827    -1.644175454484     2.849282526634     1.007825032230
         H           -0.767045145673    -3.294227279784     2.350402229834     1.007825032230
         H           -0.766200184573    -0.387534390484     4.028579130234     1.007825032230

  Charge       = 0
  Multiplicity = 2
  Basis Set: ANONYMOUS6AD0BB13
    Blend: 6-31G_2DFP_
  Basis Set: (ANONYMOUS6AD0BB13 AUX)
    Blend: DEF2-UNIVERSAL-JKFIT

    Orbital Energies [Eh]
    ---------------------

    Alpha Occupied:

       1A    -10.180342     2A    -10.167383     3A    -10.167317
       4A    -10.166344     5A     -0.797770     6A     -0.686563
       7A     -0.685812     8A     -0.530775     9A     -0.441132
      10A     -0.434898    11A     -0.434441    12A     -0.382854
      13A     -0.382347    14A     -0.363610    15A     -0.338517
      16A     -0.337477    17A     -0.168961

    Alpha Virtual:

      18A      0.076070    19A      0.134133    20A      0.134162
      21A      0.142429    22A      0.142836    23A      0.154875
      24A      0.178455    25A      0.179106    26A      0.203543
      27A      0.214806    28A      0.275692    29A      0.276277
      30A      0.399083    31A      0.399374    32A      0.403345
      33A      0.424002    34A      0.424192    35A      0.456592
      36A      0.495304    37A      0.495474    38A      0.512162
      39A      0.513976    40A      0.578587    41A      0.579036
      42A      0.591341    43A      0.591923    44A      0.602595
      45A      0.624755    46A      0.631700    47A      0.635836
      48A      0.636749    49A      0.663219    50A      0.663610
      51A      0.683537    52A      0.684183    53A      0.734994
      54A      0.824994    55A      0.825810    56A      0.853917
      57A      0.914911    58A      0.915134    59A      0.944130
      60A      0.944617    61A      0.960999    62A      0.961593
      63A      1.003455    64A      1.127675    65A      1.128502
      66A      1.142263    67A      1.162868    68A      1.163666
      69A      1.223328    70A      1.273986    71A      1.274995
      72A      1.279348    73A      1.323990    74A      1.324715
      75A      1.355981    76A      1.365681    77A      1.366431
      78A      1.392441    79A      1.403661    80A      1.404422
      81A      1.416654    82A      1.417564    83A      1.427929
      84A      1.491488    85A      1.499085    86A      1.542781
      87A      1.542890    88A      1.574169    89A      1.574732
      90A      1.669797    91A      1.739181    92A      1.739634
      93A      1.768323    94A      1.829785    95A      1.833071
      96A      1.971704    97A      2.018035    98A      2.018638
      99A      2.019708   100A      2.052129   101A      2.053220
     102A      2.737980   103A      2.738994   104A      2.790926
     105A      2.811426   106A      2.889318   107A      2.890533
     108A      2.894979   109A      2.929090   110A      2.929900
     111A      2.959001   112A      2.963848   113A      2.964927
     114A      3.034013   115A      3.070721   116A      3.071852
     117A      3.084380   118A      3.168639   119A      3.168870
     120A      3.180664   121A      3.285007   122A      3.285624
     123A      3.326772   124A      3.327544   125A      3.375598
     126A      3.489175   127A      3.491120   128A      3.514026
     129A      3.525351   130A      3.568105   131A      3.568627
     132A      3.575195   133A      3.665592   134A      3.667086
     135A      3.679661   136A      3.693620   137A      3.694651
     138A      3.775858   139A      3.777745   140A      3.789174
     141A      3.911589   142A      3.912847   143A      4.034419
     144A      4.110510   145A      4.112101   146A      4.145889
     147A      4.150241   148A      4.173336   149A      4.201052
     150A      4.202251   151A      4.205390   152A      4.211217
     153A      4.315062   154A      4.316869   155A      4.358951
     156A      4.424232   157A      4.424566   158A      4.443564
     159A      4.516557   160A      4.517095   161A      4.577826
     162A      4.578452   163A      4.617843   164A      4.709497
     165A      4.774055   166A      4.775163   167A      4.836863
     168A      4.962827   169A      5.002357   170A      5.003644
     171A      5.227835   172A      5.243170   173A      5.250447
     174A      5.352454   175A      5.358743   176A      5.479435

    Beta Occupied:

       1A    -10.168138     2A    -10.168082     3A    -10.167107
       4A    -10.166515     5A     -0.781095     6A     -0.684359
       7A     -0.683621     8A     -0.511746     9A     -0.431279
      10A     -0.430812    11A     -0.421820    12A     -0.376931
      13A     -0.376440    14A     -0.362593    15A     -0.333650
      16A     -0.332591

    Beta Virtual:

      17A     -0.025743    18A      0.077079    19A      0.134980
      20A      0.135096    21A      0.144329    22A      0.144677
      23A      0.163334    24A      0.182135    25A      0.182768
      26A      0.215035    27A      0.218926    28A      0.282074
      29A      0.282591    30A      0.400252    31A      0.400544
      32A      0.419791    33A      0.426810    34A      0.427006
      35A      0.468499    36A      0.497563    37A      0.497736
      38A      0.513897    39A      0.556319    40A      0.584115
      41A      0.584611    42A      0.597541    43A      0.598084
      44A      0.610014    45A      0.628130    46A      0.631889
      47A      0.639138    48A      0.639989    49A      0.666772
      50A      0.667186    51A      0.686207    52A      0.686784
      53A      0.757517    54A      0.830139    55A      0.831003
      56A      0.855271    57A      0.922855    58A      0.923131
      59A      0.945967    60A      0.953545    61A      0.966324
      62A      0.966881    63A      1.008695    64A      1.131717
      65A      1.132537    66A      1.155621    67A      1.167945
      68A      1.168736    69A      1.232300    70A      1.279634
      71A      1.280543    72A      1.285100    73A      1.328936
      74A      1.329747    75A      1.365389    76A      1.370972
      77A      1.371636    78A      1.393502    79A      1.407097
      80A      1.407914    81A      1.421676    82A      1.422641
      83A      1.428201    84A      1.492537    85A      1.509528
      86A      1.547143    87A      1.547343    88A      1.582051
      89A      1.582593    90A      1.674643    91A      1.744948
      92A      1.745395    93A      1.779099    94A      1.833667
      95A      1.836900    96A      1.972568    97A      2.024883
      98A      2.025990    99A      2.039671   100A      2.058846
     101A      2.059944   102A      2.746288   103A      2.747357
     104A      2.811838   105A      2.816061   106A      2.902122
     107A      2.903134   108A      2.924651   109A      2.931530
     110A      2.932428   111A      2.960067   112A      2.968353
     113A      2.969508   114A      3.041947   115A      3.080647
     116A      3.081710   117A      3.086232   118A      3.184306
     119A      3.184566   120A      3.188483   121A      3.289837
     122A      3.290391   123A      3.330576   124A      3.331349
     125A      3.383417   126A      3.491924   127A      3.493827
     128A      3.512395   129A      3.528396   130A      3.574946
     131A      3.581588   132A      3.581936   133A      3.670311
     134A      3.671871   135A      3.692979   136A      3.725240
     137A      3.726260   138A      3.780431   139A      3.782250
     140A      3.817687   141A      3.921420   142A      3.922656
     143A      4.045301   144A      4.117521   145A      4.118701
     146A      4.153312   147A      4.157269   148A      4.187385
     149A      4.208000   150A      4.208208   151A      4.212305
     152A      4.215720   153A      4.322547   154A      4.324258
     155A      4.362317   156A      4.432500   157A      4.432673
     158A      4.446504   159A      4.524363   160A      4.524872
     161A      4.588472   162A      4.588982   163A      4.625058
     164A      4.719843   165A      4.780967   166A      4.782157
     167A      4.839780   168A      4.967620   169A      5.006420
     170A      5.007661   171A      5.233540   172A      5.244970
     173A      5.252232   174A      5.358944   175A      5.365210
     176A      5.481756

    Final Occupation by Irrep:
              A
    DOCC [    16 ]
    SOCC [     1 ]

  @DF-UKS Final Energy:  -157.81304945592638

   => Energetics <=

    Nuclear Repulsion Energy =            125.3947416465366871
    One-Electron Energy =                -458.7490908190783330
    Two-Electron Energy =                 195.8484506968049743
    DFT Exchange-Correlation Energy =     -20.3071509801896610
    Empirical Dispersion Energy =           0.0000000000000000
    VV10 Nonlocal Energy =                  0.0000000000000000
    Total Energy =                       -157.8130494559263752

  UHF NO Occupations:
  HONO-2 :   15  A 1.9996008
  HONO-1 :   16  A 1.9989804
  HONO-0 :   17  A 1.0000000
  LUNO+0 :   18  A 0.0010196
  LUNO+1 :   19  A 0.0003992
  LUNO+2 :   20  A 0.0001986
  LUNO+3 :   21  A 0.0001965

Computation Completed

Properties will be evaluated at   0.000000,   0.000000,   0.000000 [a0]

Properties computed using the SCF density matrix

  Nuclear Dipole Moment: [e a0]
     X:     0.8272      Y:    -0.0025      Z:     0.0096

  Electronic Dipole Moment: [e a0]
     X:    -0.7493      Y:     0.0050      Z:    -0.0108

  Dipole Moment: [e a0]
     X:     0.0779      Y:     0.0024      Z:    -0.0012     Total:     0.0780

  Dipole Moment: [D]
     X:     0.1980      Y:     0.0062      Z:    -0.0031     Total:     0.1982

*** tstop() called on n079 at Fri Nov  5 13:55:53 2021
Module time:
	user time   =     493.91 seconds =       8.23 minutes
	system time =       4.60 seconds =       0.08 minutes
	total time  =        126 seconds =       2.10 minutes
Total time:
	user time   =     493.91 seconds =       8.23 minutes
	system time =       4.60 seconds =       0.08 minutes
	total time  =        126 seconds =       2.10 minutes
Grab this energy -157.81304945592638
    Psi4 stopped on: Friday, 05 November 2021 01:55PM
    Psi4 wall time for execution: 0:02:05.42

*** Psi4 exiting successfully. Buy a developer a beer!
