                               Psi4 1.4a2.dev629

  ==> Input File <==

--------------------------------------------------------------------------
import os
memory 14 GB

molecule {
 C   -0.3223163908   -0.0000024725    0.0002564560
 C    0.0639765357   -1.4004646770   -2.4264328670
 C    0.0620797111    2.8016051865   -0.0007679267
 C    0.0604238336   -1.4011370996    2.4260612166
 H    2.0834527630   -1.6439885567   -2.8470204736
 H   -0.7650754493   -0.3865464971   -4.0267501579
 H   -0.7651025073   -3.2940588043   -2.3480487966
 H    2.0834867166    3.2876801294    0.0002337999
 H   -0.7645539122    3.6804605420    1.6790180433
 H   -0.7648277013    3.6805511507   -1.6786858573
 H    2.0838006236   -1.6437821840    2.8471308862
 H   -0.7641265395   -3.2942636570    2.3480099397
 H   -0.7638255599   -0.3860773740    4.0269957372
units bohr
0 2
}

basis {

assign 6-31g_2dfp_

[ 6-31g_2dfp_ ]

spherical

!----------------------------------------------------------------------
! Basis Set Exchange
! Version v0.8.13
! https://www.basissetexchange.org
!----------------------------------------------------------------------
!   Basis set: 6-31G(2df,p)
! Description: 6-31G(2df,p)
!        Role: orbital
!     Version: 0  (Data from the original Basis Set Exchange)
!----------------------------------------------------------------------

****
H     0
S    3   1.00
     18.7311370              0.03349460
      2.8253937              0.23472695
      0.6401217              0.81375733
S    1   1.00
      0.1612778              1.00000000
P    1   1.00
      1.5000000              1.0000000
P    1   1.00
      0.3750000              1.0000000
****
B     0
S    6   1.00
   2068.8823000              0.0018663
    310.6495700              0.0142515
     70.6830330              0.0695516
     19.8610800              0.2325729
      6.2993048              0.4670787
      2.1270270              0.3634314
SP   3   1.00
      4.7279710             -0.1303938              0.0745976
      1.1903377             -0.1307889              0.3078467
      0.3594117              1.1309444              0.7434568
SP   1   1.00
      0.1267512              1.0000000              1.0000000
D    1   1.00
      0.8020000              1.0000000
D    1   1.00
      0.2005000              1.0000000
F    1   1.00
      0.5000000              1.0000000
****
C     0
S    6   1.00
   3047.5249000              0.0018347
    457.3695100              0.0140373
    103.9486900              0.0688426
     29.2101550              0.2321844
      9.2866630              0.4679413
      3.1639270              0.3623120
SP   3   1.00
      7.8682724             -0.1193324              0.0689991
      1.8812885             -0.1608542              0.3164240
      0.5442493              1.1434564              0.7443083
SP   1   1.00
      0.1687144              1.0000000              1.0000000
D    1   1.00
      1.2520000              1.0000000
D    1   1.00
      0.3130000              1.0000000
F    1   1.00
      0.8000000              1.0000000
****
N     0
S    6   1.00
   4173.5110000              0.0018348
    627.4579000              0.0139950
    142.9021000              0.0685870
     40.2343300              0.2322410
     12.8202100              0.4690700
      4.3904370              0.3604550
SP   3   1.00
     11.6263580             -0.1149610              0.0675800
      2.7162800             -0.1691180              0.3239070
      0.7722180              1.1458520              0.7408950
SP   1   1.00
      0.2120313              1.0000000              1.0000000
D    1   1.00
      1.8260000              1.0000000
D    1   1.00
      0.4565000              1.0000000
F    1   1.00
      1.0000000              1.0000000
****
O     0
S    6   1.00
   5484.6717000              0.0018311
    825.2349500              0.0139501
    188.0469600              0.0684451
     52.9645000              0.2327143
     16.8975700              0.4701930
      5.7996353              0.3585209
SP   3   1.00
     15.5396160             -0.1107775              0.0708743
      3.5999336             -0.1480263              0.3397528
      1.0137618              1.1307670              0.7271586
SP   1   1.00
      0.2700058              1.0000000              1.0000000
D    1   1.00
      2.5840000              1.0000000
D    1   1.00
      0.6460000              1.0000000
F    1   1.00
      1.4000000              1.0000000
****
F     0
S    6   1.00
   7001.7130900              0.0018196169
   1051.3660900              0.0139160796
    239.2856900              0.0684053245
     67.3974453              0.233185760
     21.5199573              0.471267439
      7.40310130             0.356618546
SP   3   1.00
     20.8479528             -0.108506975            0.0716287243
      4.80830834            -0.146451658            0.3459121030
      1.34406986             1.128688580            0.7224699570
SP   1   1.00
      0.358151393            1.0000000              1.0000000
D    1   1.00
      3.5000000              1.0000000
D    1   1.00
      0.8750000              1.0000000
F    1   1.00
      1.8500000              1.0000000
****
Al     0
S    6   1.00
  13983.1000000              0.00194267
   2098.7500000              0.0148599
    477.7050000              0.0728494
    134.3600000              0.2468300
     42.8709000              0.4872580
     14.5189000              0.3234960
SP   6   1.00
    239.6680000             -0.00292619             0.00460285
     57.4419000             -0.0374080              0.0331990
     18.2859000             -0.1144870              0.1362820
      6.5991400              0.1156350              0.3304760
      2.4904900              0.6125950              0.4491460
      0.9445400              0.3937990              0.2657040
SP   3   1.00
      1.2779000             -0.2276060             -0.0175130
      0.3975900              0.00144583             0.2445330
      0.1600950              1.0927900              0.8049340
SP   1   1.00
      0.0556577              1.0000000              1.0000000
D    1   1.00
      0.6500000              1.0000000
D    1   1.00
      0.1625000              1.0000000
F    1   1.00
      0.2500000              1.0000000
****
Si     0
S    6   1.00
  16115.9000000              0.00195948
   2425.5800000              0.01492880
    553.8670000              0.07284780
    156.3400000              0.24613000
     50.0683000              0.48591400
     17.0178000              0.32500200
SP   6   1.00
    292.7180000             -0.00278094             0.00443826
     69.8731000             -0.03571460             0.03266790
     22.3363000             -0.11498500             0.13472100
      8.1503900              0.09356340             0.32867800
      3.1345800              0.60301700             0.44964000
      1.2254300              0.41895900             0.26137200
SP   3   1.00
      1.7273800             -0.24463000            -0.01779510
      0.5729220              0.00431572             0.25353900
      0.2221920              1.09818000             0.80066900
SP   1   1.00
      0.0778369              1.00000000             1.00000000
D    1   1.00
      0.9000000              1.0000000
D    1   1.00
      0.2250000              1.0000000
F    1   1.00
      0.3200000              1.0000000
****
P     0
S    6   1.00
  19413.3000000              0.0018516
   2909.4200000              0.0142062
    661.3640000              0.0699995
    185.7590000              0.2400790
     59.1943000              0.4847620
     20.0310000              0.3352000
SP   6   1.00
    339.4780000             -0.00278217             0.00456462
     81.0101000             -0.0360499              0.03369360
     25.8780000             -0.1166310              0.13975500
      9.4522100              0.0968328              0.33936200
      3.6656600              0.6144180              0.45092100
      1.4674600              0.4037980              0.23858600
SP   3   1.00
      2.1562300             -0.2529230             -0.01776530
      0.7489970              0.0328517              0.27405800
      0.2831450              1.0812500              0.78542100
SP   1   1.00
      0.0998317              1.0000000              1.00000000
D    1   1.00
      1.1000000              1.0000000
D    1   1.00
      0.2750000              1.0000000
F    1   1.00
      0.4500000              1.0000000
****
S     0
S    6   1.00
  21917.1000000              0.0018690
   3301.4900000              0.0142300
    754.1460000              0.0696960
    212.7110000              0.2384870
     67.9896000              0.4833070
     23.0515000              0.3380740
SP   6   1.00
    423.7350000             -0.0023767              0.0040610
    100.7100000             -0.0316930              0.0306810
     32.1599000             -0.1133170              0.1304520
     11.8079000              0.0560900              0.3272050
      4.6311000              0.5922550              0.4528510
      1.8702500              0.4550060              0.2560420
SP   3   1.00
      2.6158400             -0.2503740             -0.0145110
      0.9221670              0.0669570              0.3102630
      0.3412870              1.0545100              0.7544830
SP   1   1.00
      0.1171670              1.0000000              1.0000000
D    1   1.00
      1.3000000              1.0000000
D    1   1.00
      0.3250000              1.0000000
F    1   1.00
      0.5500000              1.0000000
****
Cl     0
S    6   1.00
  25180.1000000              0.0018330
   3780.3500000              0.0140340
    860.4740000              0.0690970
    242.1450000              0.2374520
     77.3349000              0.4830340
     26.2470000              0.3398560
SP   6   1.00
    491.7650000             -0.0022974              0.0039894
    116.9840000             -0.0307140              0.0303180
     37.4153000             -0.1125280              0.1298800
     13.7834000              0.0450160              0.3279510
      5.4521500              0.5893530              0.4535270
      2.2258800              0.4652060              0.2521540
SP   3   1.00
      3.1864900             -0.2518300             -0.0142990
      1.1442700              0.0615890              0.3235720
      0.4203770              1.0601800              0.7435070
SP   1   1.00
      0.1426570              1.0000000              1.0000000
D    1   1.00
      1.5000000              1.0000000
D    1   1.00
      0.3750000              1.0000000
F    1   1.00
      0.7000000              1.0000000
****
}

set {
reference uhf
freeze_core true
e_convergence 10
d_convergence 10
dft_spherical_points 1202
dft_radial_points 99
}

e = energy('b3lyp')

print_out('Grab this energy {0}'.format(e))
--------------------------------------------------------------------------

    Molecular point group: c1

    Geometry (in Bohr), charge = 0, multiplicity = 2:

       Center              X                  Y                   Z               Mass
    ------------   -----------------  -----------------  -----------------  -----------------
         C           -0.323126048775    -0.000002223688     0.000426551488    12.000000000000
         C            0.063166877725    -1.400464428188    -2.426262771512    12.000000000000
         C            0.061270053125     2.801605435312    -0.000597831212    12.000000000000
         C            0.059614175625    -1.401136850788     2.426231312088    12.000000000000
         H            2.082643105025    -1.643988307888    -2.846850378112     1.007825032230
         H           -0.765885107275    -0.386546248288    -4.026580062412     1.007825032230
         H           -0.765912165275    -3.294058555488    -2.347878701112     1.007825032230
         H            2.082677058625     3.287680378212     0.000403895388     1.007825032230
         H           -0.765363570175     3.680460790812     1.679188138788     1.007825032230
         H           -0.765637359275     3.680551399512    -1.678515761812     1.007825032230
         H            2.082990965625    -1.643781935188     2.847300981688     1.007825032230
         H           -0.764936197475    -3.294263408188     2.348180035188     1.007825032230
         H           -0.764635217875    -0.386077125188     4.027165832688     1.007825032230

  Charge       = 0
  Multiplicity = 2
  Basis Set: ANONYMOUSFC2A0D03
    Blend: 6-31G_2DFP_
  Basis Set: (ANONYMOUSFC2A0D03 AUX)
    Blend: DEF2-UNIVERSAL-JKFIT

    Orbital Energies [Eh]
    ---------------------

    Alpha Occupied:

       1A    -10.180284     2A    -10.167048     3A    -10.167017
       4A    -10.166971     5A     -0.797804     6A     -0.686226
       7A     -0.686161     8A     -0.530787     9A     -0.441222
      10A     -0.434728    11A     -0.434527    12A     -0.382886
      13A     -0.382584    14A     -0.363434    15A     -0.338030
      16A     -0.337860    17A     -0.168924

    Alpha Virtual:

      18A      0.075986    19A      0.134115    20A      0.134180
      21A      0.142501    22A      0.142624    23A      0.155045
      24A      0.178842    25A      0.179072    26A      0.203589
      27A      0.214529    28A      0.275956    29A      0.276065
      30A      0.399189    31A      0.399504    32A      0.403431
      33A      0.423860    34A      0.423956    35A      0.456670
      36A      0.495182    37A      0.495239    38A      0.512279
      39A      0.514133    40A      0.578897    41A      0.579065
      42A      0.591781    43A      0.592025    44A      0.603324
      45A      0.624260    46A      0.631388    47A      0.635769
      48A      0.635981    49A      0.663737    50A      0.664082
      51A      0.683455    52A      0.683752    53A      0.734933
      54A      0.825425    55A      0.825453    56A      0.854196
      57A      0.915227    58A      0.915269    59A      0.943840
      60A      0.944470    61A      0.961315    62A      0.961471
      63A      1.003639    64A      1.127755    65A      1.127967
      66A      1.142940    67A      1.162907    68A      1.163097
      69A      1.222910    70A      1.274591    71A      1.274874
      72A      1.279519    73A      1.324312    74A      1.324818
      75A      1.355446    76A      1.365813    77A      1.366423
      78A      1.392500    79A      1.404946    80A      1.405200
      81A      1.415864    82A      1.416428    83A      1.428124
      84A      1.491513    85A      1.500033    86A      1.543159
      87A      1.543243    88A      1.573923    89A      1.574228
      90A      1.668562    91A      1.739861    92A      1.740674
      93A      1.770177    94A      1.829801    95A      1.830193
      96A      1.970711    97A      2.018184    98A      2.018529
      99A      2.019563   100A      2.053619   101A      2.054406
     102A      2.738128   103A      2.738205   104A      2.791319
     105A      2.810970   106A      2.890059   107A      2.890604
     108A      2.895275   109A      2.929258   110A      2.929323
     111A      2.959134   112A      2.964694   113A      2.964908
     114A      3.034709   115A      3.071194   116A      3.071431
     117A      3.082962   118A      3.168784   119A      3.169032
     120A      3.180641   121A      3.285384   122A      3.285443
     123A      3.326373   124A      3.326693   125A      3.375439
     126A      3.490083   127A      3.490713   128A      3.515231
     129A      3.524140   130A      3.568681   131A      3.568898
     132A      3.575975   133A      3.666463   134A      3.667075
     135A      3.679039   136A      3.693924   137A      3.693954
     138A      3.776343   139A      3.776430   140A      3.789904
     141A      3.911585   142A      3.911750   143A      4.033985
     144A      4.111320   145A      4.111492   146A      4.148642
     147A      4.148749   148A      4.174915   149A      4.201994
     150A      4.202324   151A      4.202949   152A      4.211981
     153A      4.315998   154A      4.316852   155A      4.357776
     156A      4.425056   157A      4.425313   158A      4.443190
     159A      4.516447   160A      4.518562   161A      4.577385
     162A      4.577805   163A      4.617628   164A      4.710002
     165A      4.773972   166A      4.774993   167A      4.835544
     168A      4.962559   169A      5.003804   170A      5.004692
     171A      5.230803   172A      5.243793   173A      5.243829
     174A      5.357246   175A      5.357753   176A      5.477402

    Beta Occupied:

       1A    -10.167802     2A    -10.167771     3A    -10.167736
       4A    -10.166455     5A     -0.781122     6A     -0.684017
       7A     -0.683952     8A     -0.511709     9A     -0.431081
      10A     -0.430869    11A     -0.421976    12A     -0.377005
      13A     -0.376685    14A     -0.362408    15A     -0.333158
      16A     -0.332985

    Beta Virtual:

      17A     -0.025615    18A      0.076980    19A      0.134946
      20A      0.134995    21A      0.144398    22A      0.144512
      23A      0.163484    24A      0.182539    25A      0.182773
      26A      0.214765    27A      0.218973    28A      0.282301
      29A      0.282406    30A      0.400357    31A      0.400674
      32A      0.419779    33A      0.426669    34A      0.426771
      35A      0.468677    36A      0.497438    37A      0.497487
      38A      0.514006    39A      0.556517    40A      0.584423
      41A      0.584582    42A      0.597965    43A      0.598219
      44A      0.610609    45A      0.627776    46A      0.631545
      47A      0.639094    48A      0.639306    49A      0.667286
      50A      0.667599    51A      0.686101    52A      0.686402
      53A      0.757460    54A      0.830574    55A      0.830597
      56A      0.855540    57A      0.923182    58A      0.923221
      59A      0.945684    60A      0.953349    61A      0.966648
      62A      0.966818    63A      1.008919    64A      1.131709
      65A      1.131996    66A      1.156240    67A      1.168052
      68A      1.168147    69A      1.231899    70A      1.280206
      71A      1.280499    72A      1.285328    73A      1.329243
      74A      1.329771    75A      1.364881    76A      1.370989
      77A      1.371598    78A      1.393541    79A      1.408448
      80A      1.408728    81A      1.420970    82A      1.421502
      83A      1.428385    84A      1.492587    85A      1.510468
      86A      1.547547    87A      1.547606    88A      1.581868
      89A      1.582063    90A      1.673358    91A      1.745635
      92A      1.746434    93A      1.780968    94A      1.833655
      95A      1.834047    96A      1.971584    97A      2.024862
      98A      2.026094    99A      2.039786   100A      2.060238
     101A      2.060972   102A      2.746460   103A      2.746528
     104A      2.811379   105A      2.816492   106A      2.902783
     107A      2.903310   108A      2.925183   109A      2.931738
     110A      2.931797   111A      2.960199   112A      2.969279
     113A      2.969484   114A      3.042433   115A      3.081115
     116A      3.081339   117A      3.084795   118A      3.184538
     119A      3.184743   120A      3.188341   121A      3.290161
     122A      3.290200   123A      3.330199   124A      3.330548
     125A      3.383283   126A      3.492854   127A      3.493482
     128A      3.513596   129A      3.527200   130A      3.575838
     131A      3.581909   132A      3.582003   133A      3.671370
     134A      3.671857   135A      3.692360   136A      3.725418
     137A      3.725720   138A      3.780949   139A      3.781010
     140A      3.818424   141A      3.921329   142A      3.921525
     143A      4.044810   144A      4.118184   145A      4.118252
     146A      4.155813   147A      4.156009   148A      4.188949
     149A      4.207875   150A      4.208213   151A      4.210864
     152A      4.216331   153A      4.323472   154A      4.324377
     155A      4.361185   156A      4.433284   157A      4.433517
     158A      4.446122   159A      4.524208   160A      4.526311
     161A      4.588044   162A      4.588433   163A      4.624914
     164A      4.720229   165A      4.780994   166A      4.781978
     167A      4.838473   168A      4.967343   169A      5.007835
     170A      5.008688   171A      5.236553   172A      5.245591
     173A      5.245628   174A      5.363754   175A      5.364259
     176A      5.479735

    Final Occupation by Irrep:
              A
    DOCC [    16 ]
    SOCC [     1 ]

  @DF-UKS Final Energy:  -157.81305798246314

   => Energetics <=

    Nuclear Repulsion Energy =            125.4000084246289077
    One-Electron Energy =                -458.7596690328358591
    Two-Electron Energy =                 195.8538597161679036
    DFT Exchange-Correlation Energy =     -20.3072570904241232
    Empirical Dispersion Energy =           0.0000000000000000
    VV10 Nonlocal Energy =                  0.0000000000000000
    Total Energy =                       -157.8130579824631354

  UHF NO Occupations:
  HONO-2 :   15  A 1.9996032
  HONO-1 :   16  A 1.9989813
  HONO-0 :   17  A 1.0000000
  LUNO+0 :   18  A 0.0010187
  LUNO+1 :   19  A 0.0003968
  LUNO+2 :   20  A 0.0001977
  LUNO+3 :   21  A 0.0001974

Computation Completed

Properties will be evaluated at   0.000000,   0.000000,   0.000000 [a0]

Properties computed using the SCF density matrix

  Nuclear Dipole Moment: [e a0]
     X:     0.8215      Y:    -0.0000      Z:     0.0012

  Electronic Dipole Moment: [e a0]
     X:    -0.7404      Y:     0.0000      Z:    -0.0011

  Dipole Moment: [e a0]
     X:     0.0811      Y:     0.0000      Z:     0.0001     Total:     0.0811

  Dipole Moment: [D]
     X:     0.2061      Y:     0.0000      Z:     0.0003     Total:     0.2061

*** tstop() called on n021 at Fri Nov  5 12:20:01 2021
Module time:
	user time   =     634.53 seconds =      10.58 minutes
	system time =      12.42 seconds =       0.21 minutes
	total time  =        163 seconds =       2.72 minutes
Total time:
	user time   =     634.53 seconds =      10.58 minutes
	system time =      12.42 seconds =       0.21 minutes
	total time  =        163 seconds =       2.72 minutes
Grab this energy -157.81305798246314
    Psi4 stopped on: Friday, 05 November 2021 12:20PM
    Psi4 wall time for execution: 0:02:42.67

*** Psi4 exiting successfully. Buy a developer a beer!
