                               Psi4 1.4a2.dev629

  ==> Input File <==

--------------------------------------------------------------------------
import os
memory 14 GB

molecule {
 C   -0.3248133836   -0.0000020654    0.0000000000
 C    0.0619037742   -1.4005002851   -2.4257272646
 C    0.0617840190    2.8010049875    0.0000000000
 C    0.0619037742   -1.4005002851    2.4257272646
 H    2.0900424918   -1.6439389435   -2.8471655503
 H   -0.7670942570   -0.3859530704   -4.0270173770
 H   -0.7672577159   -3.2944637185   -2.3477913783
 H    2.0899032976    3.2877852552    0.0000000000
 H   -0.7673351980    3.6804497720    1.6792320871
 H   -0.7673351980    3.6804497720   -1.6792320871
 H    2.0900424918   -1.6439389435    2.8471655503
 H   -0.7672577159   -3.2944637185    2.3477913783
 H   -0.7670942570   -0.3859530704    4.0270173770
units bohr
0 2
}

basis {

assign 6-31g_2dfp_

[ 6-31g_2dfp_ ]

spherical

!----------------------------------------------------------------------
! Basis Set Exchange
! Version v0.8.13
! https://www.basissetexchange.org
!----------------------------------------------------------------------
!   Basis set: 6-31G(2df,p)
! Description: 6-31G(2df,p)
!        Role: orbital
!     Version: 0  (Data from the original Basis Set Exchange)
!----------------------------------------------------------------------

****
H     0
S    3   1.00
     18.7311370              0.03349460
      2.8253937              0.23472695
      0.6401217              0.81375733
S    1   1.00
      0.1612778              1.00000000
P    1   1.00
      1.5000000              1.0000000
P    1   1.00
      0.3750000              1.0000000
****
B     0
S    6   1.00
   2068.8823000              0.0018663
    310.6495700              0.0142515
     70.6830330              0.0695516
     19.8610800              0.2325729
      6.2993048              0.4670787
      2.1270270              0.3634314
SP   3   1.00
      4.7279710             -0.1303938              0.0745976
      1.1903377             -0.1307889              0.3078467
      0.3594117              1.1309444              0.7434568
SP   1   1.00
      0.1267512              1.0000000              1.0000000
D    1   1.00
      0.8020000              1.0000000
D    1   1.00
      0.2005000              1.0000000
F    1   1.00
      0.5000000              1.0000000
****
C     0
S    6   1.00
   3047.5249000              0.0018347
    457.3695100              0.0140373
    103.9486900              0.0688426
     29.2101550              0.2321844
      9.2866630              0.4679413
      3.1639270              0.3623120
SP   3   1.00
      7.8682724             -0.1193324              0.0689991
      1.8812885             -0.1608542              0.3164240
      0.5442493              1.1434564              0.7443083
SP   1   1.00
      0.1687144              1.0000000              1.0000000
D    1   1.00
      1.2520000              1.0000000
D    1   1.00
      0.3130000              1.0000000
F    1   1.00
      0.8000000              1.0000000
****
N     0
S    6   1.00
   4173.5110000              0.0018348
    627.4579000              0.0139950
    142.9021000              0.0685870
     40.2343300              0.2322410
     12.8202100              0.4690700
      4.3904370              0.3604550
SP   3   1.00
     11.6263580             -0.1149610              0.0675800
      2.7162800             -0.1691180              0.3239070
      0.7722180              1.1458520              0.7408950
SP   1   1.00
      0.2120313              1.0000000              1.0000000
D    1   1.00
      1.8260000              1.0000000
D    1   1.00
      0.4565000              1.0000000
F    1   1.00
      1.0000000              1.0000000
****
O     0
S    6   1.00
   5484.6717000              0.0018311
    825.2349500              0.0139501
    188.0469600              0.0684451
     52.9645000              0.2327143
     16.8975700              0.4701930
      5.7996353              0.3585209
SP   3   1.00
     15.5396160             -0.1107775              0.0708743
      3.5999336             -0.1480263              0.3397528
      1.0137618              1.1307670              0.7271586
SP   1   1.00
      0.2700058              1.0000000              1.0000000
D    1   1.00
      2.5840000              1.0000000
D    1   1.00
      0.6460000              1.0000000
F    1   1.00
      1.4000000              1.0000000
****
F     0
S    6   1.00
   7001.7130900              0.0018196169
   1051.3660900              0.0139160796
    239.2856900              0.0684053245
     67.3974453              0.233185760
     21.5199573              0.471267439
      7.40310130             0.356618546
SP   3   1.00
     20.8479528             -0.108506975            0.0716287243
      4.80830834            -0.146451658            0.3459121030
      1.34406986             1.128688580            0.7224699570
SP   1   1.00
      0.358151393            1.0000000              1.0000000
D    1   1.00
      3.5000000              1.0000000
D    1   1.00
      0.8750000              1.0000000
F    1   1.00
      1.8500000              1.0000000
****
Al     0
S    6   1.00
  13983.1000000              0.00194267
   2098.7500000              0.0148599
    477.7050000              0.0728494
    134.3600000              0.2468300
     42.8709000              0.4872580
     14.5189000              0.3234960
SP   6   1.00
    239.6680000             -0.00292619             0.00460285
     57.4419000             -0.0374080              0.0331990
     18.2859000             -0.1144870              0.1362820
      6.5991400              0.1156350              0.3304760
      2.4904900              0.6125950              0.4491460
      0.9445400              0.3937990              0.2657040
SP   3   1.00
      1.2779000             -0.2276060             -0.0175130
      0.3975900              0.00144583             0.2445330
      0.1600950              1.0927900              0.8049340
SP   1   1.00
      0.0556577              1.0000000              1.0000000
D    1   1.00
      0.6500000              1.0000000
D    1   1.00
      0.1625000              1.0000000
F    1   1.00
      0.2500000              1.0000000
****
Si     0
S    6   1.00
  16115.9000000              0.00195948
   2425.5800000              0.01492880
    553.8670000              0.07284780
    156.3400000              0.24613000
     50.0683000              0.48591400
     17.0178000              0.32500200
SP   6   1.00
    292.7180000             -0.00278094             0.00443826
     69.8731000             -0.03571460             0.03266790
     22.3363000             -0.11498500             0.13472100
      8.1503900              0.09356340             0.32867800
      3.1345800              0.60301700             0.44964000
      1.2254300              0.41895900             0.26137200
SP   3   1.00
      1.7273800             -0.24463000            -0.01779510
      0.5729220              0.00431572             0.25353900
      0.2221920              1.09818000             0.80066900
SP   1   1.00
      0.0778369              1.00000000             1.00000000
D    1   1.00
      0.9000000              1.0000000
D    1   1.00
      0.2250000              1.0000000
F    1   1.00
      0.3200000              1.0000000
****
P     0
S    6   1.00
  19413.3000000              0.0018516
   2909.4200000              0.0142062
    661.3640000              0.0699995
    185.7590000              0.2400790
     59.1943000              0.4847620
     20.0310000              0.3352000
SP   6   1.00
    339.4780000             -0.00278217             0.00456462
     81.0101000             -0.0360499              0.03369360
     25.8780000             -0.1166310              0.13975500
      9.4522100              0.0968328              0.33936200
      3.6656600              0.6144180              0.45092100
      1.4674600              0.4037980              0.23858600
SP   3   1.00
      2.1562300             -0.2529230             -0.01776530
      0.7489970              0.0328517              0.27405800
      0.2831450              1.0812500              0.78542100
SP   1   1.00
      0.0998317              1.0000000              1.00000000
D    1   1.00
      1.1000000              1.0000000
D    1   1.00
      0.2750000              1.0000000
F    1   1.00
      0.4500000              1.0000000
****
S     0
S    6   1.00
  21917.1000000              0.0018690
   3301.4900000              0.0142300
    754.1460000              0.0696960
    212.7110000              0.2384870
     67.9896000              0.4833070
     23.0515000              0.3380740
SP   6   1.00
    423.7350000             -0.0023767              0.0040610
    100.7100000             -0.0316930              0.0306810
     32.1599000             -0.1133170              0.1304520
     11.8079000              0.0560900              0.3272050
      4.6311000              0.5922550              0.4528510
      1.8702500              0.4550060              0.2560420
SP   3   1.00
      2.6158400             -0.2503740             -0.0145110
      0.9221670              0.0669570              0.3102630
      0.3412870              1.0545100              0.7544830
SP   1   1.00
      0.1171670              1.0000000              1.0000000
D    1   1.00
      1.3000000              1.0000000
D    1   1.00
      0.3250000              1.0000000
F    1   1.00
      0.5500000              1.0000000
****
Cl     0
S    6   1.00
  25180.1000000              0.0018330
   3780.3500000              0.0140340
    860.4740000              0.0690970
    242.1450000              0.2374520
     77.3349000              0.4830340
     26.2470000              0.3398560
SP   6   1.00
    491.7650000             -0.0022974              0.0039894
    116.9840000             -0.0307140              0.0303180
     37.4153000             -0.1125280              0.1298800
     13.7834000              0.0450160              0.3279510
      5.4521500              0.5893530              0.4535270
      2.2258800              0.4652060              0.2521540
SP   3   1.00
      3.1864900             -0.2518300             -0.0142990
      1.1442700              0.0615890              0.3235720
      0.4203770              1.0601800              0.7435070
SP   1   1.00
      0.1426570              1.0000000              1.0000000
D    1   1.00
      1.5000000              1.0000000
D    1   1.00
      0.3750000              1.0000000
F    1   1.00
      0.7000000              1.0000000
****
}

set {
reference uhf
freeze_core true
e_convergence 10
d_convergence 10
dft_spherical_points 1202
dft_radial_points 99
}

e = energy('b3lyp')

print_out('Grab this energy {0}'.format(e))
--------------------------------------------------------------------------

    Molecular point group: cs

    Geometry (in Bohr), charge = 0, multiplicity = 2:

       Center              X                  Y                   Z               Mass
    ------------   -----------------  -----------------  -----------------  -----------------
         C           -0.324970968772    -0.000002089029     0.000000000000    12.000000000000
         C            0.061746189028    -1.400500308729    -2.425727264600    12.000000000000
         C            0.061626433828     2.801004963871     0.000000000000    12.000000000000
         C            0.061746189028    -1.400500308729     2.425727264600    12.000000000000
         H            2.089884906628    -1.643938967129    -2.847165550300     1.007825032230
         H           -0.767251842172    -0.385953094029    -4.027017377000     1.007825032230
         H           -0.767415301072    -3.294463742129    -2.347791378300     1.007825032230
         H            2.089745712428     3.287785231571     0.000000000000     1.007825032230
         H           -0.767492783172     3.680449748371     1.679232087100     1.007825032230
         H           -0.767492783172     3.680449748371    -1.679232087100     1.007825032230
         H            2.089884906628    -1.643938967129     2.847165550300     1.007825032230
         H           -0.767415301072    -3.294463742129     2.347791378300     1.007825032230
         H           -0.767251842172    -0.385953094029     4.027017377000     1.007825032230

  Charge       = 0
  Multiplicity = 2
  Basis Set: ANONYMOUS767CA8F2
    Blend: 6-31G_2DFP_
  Basis Set: (ANONYMOUS767CA8F2 AUX)
    Blend: DEF2-UNIVERSAL-JKFIT

    Orbital Energies [Eh]
    ---------------------

    Alpha Occupied:

       1Ap   -10.180475     2Ap   -10.167557     1App  -10.167557
       3Ap   -10.167511     4Ap    -0.797790     5Ap    -0.685810
       2App   -0.685810     6Ap    -0.530471     7Ap    -0.441080
       3App   -0.434469     8Ap    -0.434469     9Ap    -0.382448
       4App   -0.382446     5App   -0.363170     6App   -0.337902
      10Ap    -0.337902    11Ap    -0.169206

    Alpha Virtual:

      12Ap     0.075743    13Ap     0.133783     7App    0.133784
      14Ap     0.142196     8App    0.142196    15Ap     0.154660
      16Ap     0.178340     9App    0.178340    17Ap     0.203683
      10App    0.214299    11App    0.275789    18Ap     0.275791
      19Ap     0.399262    12App    0.399266    20Ap     0.403055
      13App    0.423795    21Ap     0.423795    22Ap     0.456552
      23Ap     0.495141    14App    0.495141    15App    0.511937
      24Ap     0.513747    25Ap     0.578606    16App    0.578614
      17App    0.591058    26Ap     0.591060    27Ap     0.602140
      28Ap     0.623710    18App    0.631017    19App    0.635527
      29Ap     0.635530    30Ap     0.663237    20App    0.663237
      31Ap     0.683195    21App    0.683196    32Ap     0.734488
      22App    0.824534    33Ap     0.824537    23App    0.853400
      24App    0.914247    34Ap     0.914253    25App    0.943552
      35Ap     0.943871    26App    0.960646    36Ap     0.960663
      37Ap     1.003356    38Ap     1.127783    27App    1.127795
      39Ap     1.141363    40Ap     1.163438    28App    1.163450
      41Ap     1.222718    42Ap     1.273890    29App    1.273893
      43Ap     1.280046    30App    1.323395    44Ap     1.323398
      45Ap     1.355376    31App    1.365175    46Ap     1.365180
      32App    1.391882    47Ap     1.403068    33App    1.403070
      34App    1.416405    48Ap     1.416412    35App    1.427200
      36App    1.490426    49Ap     1.498116    37App    1.542365
      50Ap     1.542368    51Ap     1.573994    38App    1.573997
      52Ap     1.667397    53Ap     1.737737    39App    1.737748
      54Ap     1.766853    40App    1.828534    55Ap     1.828535
      41App    1.969836    56Ap     2.016207    57Ap     2.018143
      42App    2.018147    58Ap     2.051946    43App    2.051947
      44App    2.737315    59Ap     2.737316    60Ap     2.790908
      45App    2.810884    61Ap     2.889143    46App    2.889149
      62Ap     2.895184    63Ap     2.929129    47App    2.929138
      48App    2.958308    64Ap     2.963610    49App    2.963624
      65Ap     3.033461    50App    3.069488    66Ap     3.069501
      51App    3.083359    67Ap     3.169563    52App    3.169570
      68Ap     3.180252    53App    3.286154    69Ap     3.286155
      70Ap     3.328027    54App    3.328032    71Ap     3.376483
      55App    3.490920    72Ap     3.490940    56App    3.514132
      73Ap     3.526416    57App    3.567899    74Ap     3.567919
      58App    3.577435    75Ap     3.665063    59App    3.665072
      76Ap     3.677602    60App    3.693362    77Ap     3.693379
      78Ap     3.775969    61App    3.775995    79Ap     3.787291
      80Ap     3.911255    62App    3.911261    81Ap     4.031794
      82Ap     4.108666    63App    4.108670    83Ap     4.144775
      64App    4.144784    84Ap     4.170241    85Ap     4.200903
      65App    4.201936    86Ap     4.201940    66App    4.207217
      87Ap     4.313916    67App    4.313936    68App    4.357045
      88Ap     4.421722    69App    4.421724    70App    4.441142
      71App    4.514711    89Ap     4.514712    72App    4.576911
      90Ap     4.576923    91Ap     4.616349    92Ap     4.707743
      93Ap     4.772663    73App    4.772671    74App    4.833362
      94Ap     4.962187    75App    5.002007    95Ap     5.002019
      96Ap     5.222645    97Ap     5.241407    76App    5.241407
      98Ap     5.350631    77App    5.350644    78App    5.475760

    Beta Occupied:

       1Ap   -10.168311     1App  -10.168311     2Ap   -10.168281
       3Ap   -10.166663     4Ap    -0.781092     5Ap    -0.683612
       2App   -0.683612     6Ap    -0.511491     3App   -0.430821
       7Ap    -0.430821     8Ap    -0.421774     9Ap    -0.376535
       4App   -0.376533     5App   -0.362150     6App   -0.333038
      10Ap    -0.333038

    Beta Virtual:

      11Ap    -0.026077    12Ap     0.076751    13Ap     0.134655
       7App    0.134656    14Ap     0.144097     8App    0.144097
      15Ap     0.163172    16Ap     0.182021     9App    0.182022
      10App    0.214531    17Ap     0.219024    11App    0.282140
      18Ap     0.282142    19Ap     0.400435    12App    0.400439
      20Ap     0.419462    13App    0.426606    21Ap     0.426607
      22Ap     0.468492    23Ap     0.497407    14App    0.497407
      15App    0.513673    24Ap     0.556034    25Ap     0.584125
      16App    0.584133    17App    0.597224    26Ap     0.597224
      27Ap     0.609550    28Ap     0.627120    18App    0.631179
      19App    0.638840    29Ap     0.638844    30Ap     0.666797
      20App    0.666798    31Ap     0.685860    21App    0.685861
      32Ap     0.757007    22App    0.829709    33Ap     0.829711
      23App    0.854773    24App    0.922243    34Ap     0.922250
      25App    0.945386    35Ap     0.952772    26App    0.965927
      36Ap     0.965943    37Ap     1.008602    38Ap     1.131831
      27App    1.131843    39Ap     1.154723    40Ap     1.168479
      28App    1.168491    41Ap     1.231704    42Ap     1.279515
      29App    1.279519    43Ap     1.285820    30App    1.328367
      44Ap     1.328369    45Ap     1.364744    31App    1.370415
      46Ap     1.370419    32App    1.392937    47Ap     1.406537
      33App    1.406540    34App    1.421434    48Ap     1.421440
      35App    1.427484    36App    1.491466    49Ap     1.508565
      50Ap     1.546906    37App    1.546906    38App    1.581758
      51Ap     1.581758    52Ap     1.672186    53Ap     1.743490
      39App    1.743501    54Ap     1.777669    40App    1.832411
      55Ap     1.832412    41App    1.970698    56Ap     2.024558
      42App    2.024561    57Ap     2.037612    58Ap     2.058682
      43App    2.058683    44App    2.745638    59Ap     2.745639
      45App    2.811301    60Ap     2.815999    61Ap     2.901831
      46App    2.901837    62Ap     2.924841    63Ap     2.931646
      47App    2.931655    48App    2.959364    64Ap     2.968124
      49App    2.968138    65Ap     3.041436    50App    3.079380
      66Ap     3.079392    51App    3.085165    67Ap     3.185265
      52App    3.185269    68Ap     3.187921    69Ap     3.290969
      53App    3.290969    70Ap     3.331832    54App    3.331837
      71Ap     3.384287    55App    3.493623    72Ap     3.493643
      56App    3.512494    73Ap     3.529455    57App    3.577303
      58App    3.581257    74Ap     3.581279    75Ap     3.669540
      59App    3.669551    76Ap     3.690832    60App    3.725133
      77Ap     3.725149    78Ap     3.780555    61App    3.780581
      79Ap     3.815800    80Ap     3.921048    62App    3.921055
      81Ap     4.042585    82Ap     4.115390    63App    4.115392
      83Ap     4.152036    64App    4.152045    84Ap     4.184409
      65App    4.207877    85Ap     4.207881    86Ap     4.208952
      66App    4.211693    87Ap     4.321459    67App    4.321479
      68App    4.360416    88Ap     4.429925    69App    4.429927
      70App    4.444042    71App    4.522496    89Ap     4.522497
      72App    4.587579    90Ap     4.587591    91Ap     4.623541
      92Ap     4.718119    93Ap     4.779635    73App    4.779642
      74App    4.836284    94Ap     4.967005    75App    5.006052
      95Ap     5.006065    96Ap     5.228388    97Ap     5.243197
      76App    5.243197    98Ap     5.357147    77App    5.357160
      78App    5.478100

    Final Occupation by Irrep:
             Ap   App
    DOCC [    10,    6 ]
    SOCC [     1,    0 ]

  @DF-UKS Final Energy:  -157.81308429056551

   => Energetics <=

    Nuclear Repulsion Energy =            125.3548582059506629
    One-Electron Energy =                -458.6734191771985252
    Two-Electron Energy =                 195.8085301154589501
    DFT Exchange-Correlation Energy =     -20.3030534347766185
    Empirical Dispersion Energy =           0.0000000000000000
    VV10 Nonlocal Energy =                  0.0000000000000000
    Total Energy =                       -157.8130842905655129

  UHF NO Occupations:
  HONO-2 :    9 Ap 1.9995999
  HONO-1 :   10 Ap 1.9989826
  HONO-0 :   11 Ap 1.0000000
  LUNO+0 :   12 Ap 0.0010174
  LUNO+1 :   13 Ap 0.0004001
  LUNO+2 :    7App 0.0001973
  LUNO+3 :   14 Ap 0.0001973

Computation Completed

Properties will be evaluated at   0.000000,   0.000000,   0.000000 [a0]

Properties computed using the SCF density matrix

  Nuclear Dipole Moment: [e a0]
     X:     0.8261      Y:    -0.0000      Z:     0.0000

  Electronic Dipole Moment: [e a0]
     X:    -0.7480      Y:     0.0000      Z:     0.0000

  Dipole Moment: [e a0]
     X:     0.0781      Y:     0.0000      Z:     0.0000     Total:     0.0781

  Dipole Moment: [D]
     X:     0.1984      Y:     0.0000      Z:     0.0000     Total:     0.1984

*** tstop() called on n032 at Fri Nov  5 11:37:31 2021
Module time:
	user time   =     636.50 seconds =      10.61 minutes
	system time =      12.19 seconds =       0.20 minutes
	total time  =        163 seconds =       2.72 minutes
Total time:
	user time   =     636.50 seconds =      10.61 minutes
	system time =      12.19 seconds =       0.20 minutes
	total time  =        163 seconds =       2.72 minutes
Grab this energy -157.8130842905655
    Psi4 stopped on: Friday, 05 November 2021 11:37AM
    Psi4 wall time for execution: 0:02:43.10

*** Psi4 exiting successfully. Buy a developer a beer!
