                               Psi4 1.4a2.dev629

  ==> Input File <==

--------------------------------------------------------------------------
import os
memory 14 GB

molecule {
 C   -0.3233378034   -0.0058387111    0.0000000000
 C    0.0611142309   -1.4019674207   -2.4262756496
 C    0.0610718876    2.8008471235    0.0000000000
 C    0.0611142309   -1.4019674207    2.4262756496
 H    2.0849643962   -1.6433026136   -2.8478373152
 H   -0.7634900186   -0.3892555874   -4.0254520502
 H   -0.7652546253   -3.2887019004   -2.3487557155
 H    2.0907437303    3.2882105055   -0.0000000000
 H   -0.7678768288    3.6816059063    1.6801517158
 H   -0.7678768288    3.6816059063   -1.6801517158
 H    2.0849643962   -1.6433026136    2.8478373152
 H   -0.7652546253   -3.2887019004    2.3487557155
 H   -0.7634900186   -0.3892555874    4.0254520502
units bohr
0 2
}

basis {

assign 6-31g_2dfp_

[ 6-31g_2dfp_ ]

spherical

!----------------------------------------------------------------------
! Basis Set Exchange
! Version v0.8.13
! https://www.basissetexchange.org
!----------------------------------------------------------------------
!   Basis set: 6-31G(2df,p)
! Description: 6-31G(2df,p)
!        Role: orbital
!     Version: 0  (Data from the original Basis Set Exchange)
!----------------------------------------------------------------------

****
H     0
S    3   1.00
     18.7311370              0.03349460
      2.8253937              0.23472695
      0.6401217              0.81375733
S    1   1.00
      0.1612778              1.00000000
P    1   1.00
      1.5000000              1.0000000
P    1   1.00
      0.3750000              1.0000000
****
B     0
S    6   1.00
   2068.8823000              0.0018663
    310.6495700              0.0142515
     70.6830330              0.0695516
     19.8610800              0.2325729
      6.2993048              0.4670787
      2.1270270              0.3634314
SP   3   1.00
      4.7279710             -0.1303938              0.0745976
      1.1903377             -0.1307889              0.3078467
      0.3594117              1.1309444              0.7434568
SP   1   1.00
      0.1267512              1.0000000              1.0000000
D    1   1.00
      0.8020000              1.0000000
D    1   1.00
      0.2005000              1.0000000
F    1   1.00
      0.5000000              1.0000000
****
C     0
S    6   1.00
   3047.5249000              0.0018347
    457.3695100              0.0140373
    103.9486900              0.0688426
     29.2101550              0.2321844
      9.2866630              0.4679413
      3.1639270              0.3623120
SP   3   1.00
      7.8682724             -0.1193324              0.0689991
      1.8812885             -0.1608542              0.3164240
      0.5442493              1.1434564              0.7443083
SP   1   1.00
      0.1687144              1.0000000              1.0000000
D    1   1.00
      1.2520000              1.0000000
D    1   1.00
      0.3130000              1.0000000
F    1   1.00
      0.8000000              1.0000000
****
N     0
S    6   1.00
   4173.5110000              0.0018348
    627.4579000              0.0139950
    142.9021000              0.0685870
     40.2343300              0.2322410
     12.8202100              0.4690700
      4.3904370              0.3604550
SP   3   1.00
     11.6263580             -0.1149610              0.0675800
      2.7162800             -0.1691180              0.3239070
      0.7722180              1.1458520              0.7408950
SP   1   1.00
      0.2120313              1.0000000              1.0000000
D    1   1.00
      1.8260000              1.0000000
D    1   1.00
      0.4565000              1.0000000
F    1   1.00
      1.0000000              1.0000000
****
O     0
S    6   1.00
   5484.6717000              0.0018311
    825.2349500              0.0139501
    188.0469600              0.0684451
     52.9645000              0.2327143
     16.8975700              0.4701930
      5.7996353              0.3585209
SP   3   1.00
     15.5396160             -0.1107775              0.0708743
      3.5999336             -0.1480263              0.3397528
      1.0137618              1.1307670              0.7271586
SP   1   1.00
      0.2700058              1.0000000              1.0000000
D    1   1.00
      2.5840000              1.0000000
D    1   1.00
      0.6460000              1.0000000
F    1   1.00
      1.4000000              1.0000000
****
F     0
S    6   1.00
   7001.7130900              0.0018196169
   1051.3660900              0.0139160796
    239.2856900              0.0684053245
     67.3974453              0.233185760
     21.5199573              0.471267439
      7.40310130             0.356618546
SP   3   1.00
     20.8479528             -0.108506975            0.0716287243
      4.80830834            -0.146451658            0.3459121030
      1.34406986             1.128688580            0.7224699570
SP   1   1.00
      0.358151393            1.0000000              1.0000000
D    1   1.00
      3.5000000              1.0000000
D    1   1.00
      0.8750000              1.0000000
F    1   1.00
      1.8500000              1.0000000
****
Al     0
S    6   1.00
  13983.1000000              0.00194267
   2098.7500000              0.0148599
    477.7050000              0.0728494
    134.3600000              0.2468300
     42.8709000              0.4872580
     14.5189000              0.3234960
SP   6   1.00
    239.6680000             -0.00292619             0.00460285
     57.4419000             -0.0374080              0.0331990
     18.2859000             -0.1144870              0.1362820
      6.5991400              0.1156350              0.3304760
      2.4904900              0.6125950              0.4491460
      0.9445400              0.3937990              0.2657040
SP   3   1.00
      1.2779000             -0.2276060             -0.0175130
      0.3975900              0.00144583             0.2445330
      0.1600950              1.0927900              0.8049340
SP   1   1.00
      0.0556577              1.0000000              1.0000000
D    1   1.00
      0.6500000              1.0000000
D    1   1.00
      0.1625000              1.0000000
F    1   1.00
      0.2500000              1.0000000
****
Si     0
S    6   1.00
  16115.9000000              0.00195948
   2425.5800000              0.01492880
    553.8670000              0.07284780
    156.3400000              0.24613000
     50.0683000              0.48591400
     17.0178000              0.32500200
SP   6   1.00
    292.7180000             -0.00278094             0.00443826
     69.8731000             -0.03571460             0.03266790
     22.3363000             -0.11498500             0.13472100
      8.1503900              0.09356340             0.32867800
      3.1345800              0.60301700             0.44964000
      1.2254300              0.41895900             0.26137200
SP   3   1.00
      1.7273800             -0.24463000            -0.01779510
      0.5729220              0.00431572             0.25353900
      0.2221920              1.09818000             0.80066900
SP   1   1.00
      0.0778369              1.00000000             1.00000000
D    1   1.00
      0.9000000              1.0000000
D    1   1.00
      0.2250000              1.0000000
F    1   1.00
      0.3200000              1.0000000
****
P     0
S    6   1.00
  19413.3000000              0.0018516
   2909.4200000              0.0142062
    661.3640000              0.0699995
    185.7590000              0.2400790
     59.1943000              0.4847620
     20.0310000              0.3352000
SP   6   1.00
    339.4780000             -0.00278217             0.00456462
     81.0101000             -0.0360499              0.03369360
     25.8780000             -0.1166310              0.13975500
      9.4522100              0.0968328              0.33936200
      3.6656600              0.6144180              0.45092100
      1.4674600              0.4037980              0.23858600
SP   3   1.00
      2.1562300             -0.2529230             -0.01776530
      0.7489970              0.0328517              0.27405800
      0.2831450              1.0812500              0.78542100
SP   1   1.00
      0.0998317              1.0000000              1.00000000
D    1   1.00
      1.1000000              1.0000000
D    1   1.00
      0.2750000              1.0000000
F    1   1.00
      0.4500000              1.0000000
****
S     0
S    6   1.00
  21917.1000000              0.0018690
   3301.4900000              0.0142300
    754.1460000              0.0696960
    212.7110000              0.2384870
     67.9896000              0.4833070
     23.0515000              0.3380740
SP   6   1.00
    423.7350000             -0.0023767              0.0040610
    100.7100000             -0.0316930              0.0306810
     32.1599000             -0.1133170              0.1304520
     11.8079000              0.0560900              0.3272050
      4.6311000              0.5922550              0.4528510
      1.8702500              0.4550060              0.2560420
SP   3   1.00
      2.6158400             -0.2503740             -0.0145110
      0.9221670              0.0669570              0.3102630
      0.3412870              1.0545100              0.7544830
SP   1   1.00
      0.1171670              1.0000000              1.0000000
D    1   1.00
      1.3000000              1.0000000
D    1   1.00
      0.3250000              1.0000000
F    1   1.00
      0.5500000              1.0000000
****
Cl     0
S    6   1.00
  25180.1000000              0.0018330
   3780.3500000              0.0140340
    860.4740000              0.0690970
    242.1450000              0.2374520
     77.3349000              0.4830340
     26.2470000              0.3398560
SP   6   1.00
    491.7650000             -0.0022974              0.0039894
    116.9840000             -0.0307140              0.0303180
     37.4153000             -0.1125280              0.1298800
     13.7834000              0.0450160              0.3279510
      5.4521500              0.5893530              0.4535270
      2.2258800              0.4652060              0.2521540
SP   3   1.00
      3.1864900             -0.2518300             -0.0142990
      1.1442700              0.0615890              0.3235720
      0.4203770              1.0601800              0.7435070
SP   1   1.00
      0.1426570              1.0000000              1.0000000
D    1   1.00
      1.5000000              1.0000000
D    1   1.00
      0.3750000              1.0000000
F    1   1.00
      0.7000000              1.0000000
****
}

set {
reference uhf
freeze_core true
e_convergence 10
d_convergence 10
dft_spherical_points 1202
dft_radial_points 99
}

e = energy('b3lyp')

print_out('Grab this energy {0}'.format(e))
--------------------------------------------------------------------------

    Molecular point group: cs

    Geometry (in Bohr), charge = 0, multiplicity = 2:

       Center              X                  Y                   Z               Mass
    ------------   -----------------  -----------------  -----------------  -----------------
         C           -0.323338290859    -0.004118987217     0.000000000000    12.000000000000
         C            0.061113743441    -1.400247696817    -2.426275649600    12.000000000000
         C            0.061071400141     2.802566847383     0.000000000000    12.000000000000
         C            0.061113743441    -1.400247696817     2.426275649600    12.000000000000
         H            2.084963908741    -1.641582889717    -2.847837315200     1.007825032230
         H           -0.763490506059    -0.387535863517    -4.025452050200     1.007825032230
         H           -0.765255112759    -3.286982176517    -2.348755715500     1.007825032230
         H            2.090743242841     3.289930229383     0.000000000000     1.007825032230
         H           -0.767877316259     3.683325630183     1.680151715800     1.007825032230
         H           -0.767877316259     3.683325630183    -1.680151715800     1.007825032230
         H            2.084963908741    -1.641582889717     2.847837315200     1.007825032230
         H           -0.765255112759    -3.286982176517     2.348755715500     1.007825032230
         H           -0.763490506059    -0.387535863517     4.025452050200     1.007825032230

  Charge       = 0
  Multiplicity = 2
  Basis Set: ANONYMOUS55D6C55C
    Blend: 6-31G_2DFP_
  Basis Set: (ANONYMOUS55D6C55C AUX)
    Blend: DEF2-UNIVERSAL-JKFIT

    Orbital Energies [Eh]
    ---------------------

    Alpha Occupied:

       1Ap   -10.180342     2Ap   -10.167718     1App  -10.166678
       3Ap   -10.166647     4Ap    -0.797772     2App   -0.686698
       5Ap    -0.685673     6Ap    -0.530777     7Ap    -0.441136
       8Ap    -0.434964     3App   -0.434374     4App   -0.382943
       9Ap    -0.382258     5App   -0.363608     6App   -0.338483
      10Ap    -0.337509    11Ap    -0.168961

    Alpha Virtual:

      12Ap     0.076071     7App    0.134136    13Ap     0.134167
      14Ap     0.142556     8App    0.142702    15Ap     0.154877
      16Ap     0.178451     9App    0.179106    17Ap     0.203544
      10App    0.214806    18Ap     0.275742    11App    0.276226
      19Ap     0.399023    12App    0.399435    20Ap     0.403344
      13App    0.424001    21Ap     0.424193    22Ap     0.456594
      23Ap     0.495271    14App    0.495507    15App    0.512162
      24Ap     0.513976    25Ap     0.578494    16App    0.579138
      26Ap     0.591311    17App    0.591936    27Ap     0.602601
      28Ap     0.624761    18App    0.631672    19App    0.636122
      29Ap     0.636489    30Ap     0.663298    20App    0.663529
      31Ap     0.683600    21App    0.684120    32Ap     0.734993
      22App    0.825111    33Ap     0.825698    23App    0.853914
      24App    0.914899    34Ap     0.915140    25App    0.944126
      35Ap     0.944617    26App    0.961218    36Ap     0.961381
      37Ap     1.003453    38Ap     1.127510    27App    1.128694
      39Ap     1.142234    40Ap     1.162959    28App    1.163575
      41Ap     1.223330    29App    1.274203    42Ap     1.274782
      43Ap     1.279346    30App    1.324090    44Ap     1.324613
      45Ap     1.355979    46Ap     1.365539    31App    1.366576
      32App    1.392457    47Ap     1.403598    33App    1.404483
      34App    1.417101    48Ap     1.417115    35App    1.427917
      36App    1.491484    49Ap     1.499095    37App    1.542789
      50Ap     1.542887    38App    1.574151    51Ap     1.574760
      52Ap     1.669819    53Ap     1.739274    39App    1.739540
      54Ap     1.768299    55Ap     1.829581    40App    1.833255
      41App    1.971691    56Ap     2.018122    42App    2.018378
      57Ap     2.019892    58Ap     2.052211    43App    2.053152
      44App    2.738282    59Ap     2.738694    60Ap     2.790925
      45App    2.811426    61Ap     2.889081    46App    2.890790
      62Ap     2.894967    63Ap     2.929211    47App    2.929788
      48App    2.958987    64Ap     2.963992    49App    2.964770
      65Ap     3.034018    66Ap     3.070572    50App    3.071996
      51App    3.084372    52App    3.168589    67Ap     3.168862
      68Ap     3.180714    69Ap     3.285082    53App    3.285547
      54App    3.326729    70Ap     3.327584    71Ap     3.375582
      55App    3.489831    72Ap     3.490513    56App    3.514018
      73Ap     3.525313    57App    3.568114    74Ap     3.568591
      58App    3.575248    75Ap     3.665854    59App    3.666805
      76Ap     3.679650    77Ap     3.693736    60App    3.694559
      78Ap     3.775457    61App    3.778159    79Ap     3.789186
      80Ap     3.911330    62App    3.913138    81Ap     4.034383
      82Ap     4.110184    63App    4.112351    64App    4.147079
      83Ap     4.149216    84Ap     4.173352    85Ap     4.200932
      86Ap     4.203823    65App    4.203831    66App    4.211246
      87Ap     4.314695    67App    4.317201    68App    4.358896
      69App    4.424109    88Ap     4.424615    70App    4.443646
      89Ap     4.516445    71App    4.517234    72App    4.577734
      90Ap     4.578458    91Ap     4.617917    92Ap     4.709526
      93Ap     4.773986    73App    4.775273    74App    4.836878
      94Ap     4.962762    95Ap     5.002768    75App    5.003295
      96Ap     5.227791    76App    5.243060    97Ap     5.250528
      98Ap     5.352134    77App    5.359088    78App    5.479460

    Beta Occupied:

       1Ap   -10.168477     1App  -10.167430     2Ap   -10.167418
       3Ap   -10.166516     4Ap    -0.781097     2App   -0.684488
       5Ap    -0.683487     6Ap    -0.511749     7Ap    -0.431356
       3App   -0.430737     8Ap    -0.421820     4App   -0.376997
       9Ap    -0.376375     5App   -0.362590     6App   -0.333624
      10Ap    -0.332615

    Beta Virtual:

      11Ap    -0.025742    12Ap     0.077080     7App    0.134986
      13Ap     0.135098    14Ap     0.144389     8App    0.144610
      15Ap     0.163335    16Ap     0.182119     9App    0.182780
      10App    0.215036    17Ap     0.218927    18Ap     0.282127
      11App    0.282537    19Ap     0.400192    12App    0.400605
      20Ap     0.419791    13App    0.426820    21Ap     0.426996
      22Ap     0.468502    23Ap     0.497529    14App    0.497770
      15App    0.513897    24Ap     0.556318    25Ap     0.584017
      16App    0.584719    26Ap     0.597507    17App    0.598100
      27Ap     0.610018    28Ap     0.628135    18App    0.631875
      19App    0.639399    29Ap     0.639743    30Ap     0.666842
      20App    0.667112    31Ap     0.686272    21App    0.686719
      32Ap     0.757516    22App    0.830248    33Ap     0.830896
      23App    0.855268    24App    0.922845    34Ap     0.923137
      25App    0.945963    35Ap     0.953541    26App    0.966560
      36Ap     0.966655    37Ap     1.008694    38Ap     1.131556
      27App    1.132712    39Ap     1.155601    40Ap     1.168054
      28App    1.168628    41Ap     1.232304    29App    1.279856
      42Ap     1.280324    43Ap     1.285100    30App    1.329020
      44Ap     1.329661    45Ap     1.365378    46Ap     1.370861
      31App    1.371758    32App    1.393514    47Ap     1.406993
      33App    1.408020    48Ap     1.422112    34App    1.422201
      35App    1.428189    36App    1.492533    49Ap     1.509537
      37App    1.547157    50Ap     1.547334    38App    1.582057
      51Ap     1.582597    52Ap     1.674664    53Ap     1.745017
      39App    1.745321    54Ap     1.779078    55Ap     1.833454
      40App    1.837095    41App    1.972555    42App    2.024849
      56Ap     2.025988    57Ap     2.039721    58Ap     2.059002
      43App    2.059797    44App    2.746634    59Ap     2.747013
      45App    2.811838    60Ap     2.816060    61Ap     2.901958
      46App    2.903302    62Ap     2.924654    63Ap     2.931592
      47App    2.932378    48App    2.960056    64Ap     2.968495
      49App    2.969348    65Ap     3.041953    66Ap     3.080503
      50App    3.081835    51App    3.086238    67Ap     3.184324
      52App    3.184396    68Ap     3.188630    69Ap     3.289948
      53App    3.290278    54App    3.330550    70Ap     3.331370
      71Ap     3.383401    55App    3.492597    72Ap     3.493202
      56App    3.512390    73Ap     3.528358    57App    3.574936
      58App    3.581637    74Ap     3.581918    75Ap     3.670483
      59App    3.671682    76Ap     3.692990    77Ap     3.725434
      60App    3.726062    78Ap     3.780053    61App    3.782648
      79Ap     3.817698    80Ap     3.921167    62App    3.922940
      81Ap     4.045265    82Ap     4.117271    63App    4.118883
      64App    4.154483    83Ap     4.156256    84Ap     4.187393
      85Ap     4.207370    65App    4.209768    86Ap     4.211249
      66App    4.215769    87Ap     4.322196    67App    4.324575
      68App    4.362261    69App    4.432279    88Ap     4.432784
      70App    4.446625    89Ap     4.524247    71App    4.525011
      72App    4.588384    90Ap     4.588986    91Ap     4.625129
      92Ap     4.719874    93Ap     4.780872    73App    4.782293
      74App    4.839795    94Ap     4.967555    95Ap     5.006812
      75App    5.007332    96Ap     5.233501    76App    5.244840
      97Ap     5.252323    98Ap     5.358603    77App    5.365580
      78App    5.481781

    Final Occupation by Irrep:
             Ap   App
    DOCC [    10,    6 ]
    SOCC [     1,    0 ]

  @DF-UKS Final Energy:  -157.81304842764462

   => Energetics <=

    Nuclear Repulsion Energy =            125.3947492601319595
    One-Electron Energy =                -458.7491063985169149
    Two-Electron Energy =                 195.8484592443118117
    DFT Exchange-Correlation Energy =     -20.3071505335714626
    Empirical Dispersion Energy =           0.0000000000000000
    VV10 Nonlocal Energy =                  0.0000000000000000
    Total Energy =                       -157.8130484276446168

  UHF NO Occupations:
  HONO-2 :    9 Ap 1.9996009
  HONO-1 :   10 Ap 1.9989805
  HONO-0 :   11 Ap 1.0000000
  LUNO+0 :   12 Ap 0.0010195
  LUNO+1 :   13 Ap 0.0003991
  LUNO+2 :   14 Ap 0.0001987
  LUNO+3 :    7App 0.0001964

Computation Completed

Properties will be evaluated at   0.000000,   0.000000,   0.000000 [a0]

Properties computed using the SCF density matrix

  Nuclear Dipole Moment: [e a0]
     X:     0.8272      Y:     0.0121      Z:     0.0000

  Electronic Dipole Moment: [e a0]
     X:    -0.7493      Y:    -0.0158      Z:     0.0000

  Dipole Moment: [e a0]
     X:     0.0779      Y:    -0.0037      Z:     0.0000     Total:     0.0780

  Dipole Moment: [D]
     X:     0.1980      Y:    -0.0093      Z:     0.0000     Total:     0.1983

*** tstop() called on n083 at Fri Nov  5 13:46:22 2021
Module time:
	user time   =     494.24 seconds =       8.24 minutes
	system time =       4.52 seconds =       0.08 minutes
	total time  =        125 seconds =       2.08 minutes
Total time:
	user time   =     494.24 seconds =       8.24 minutes
	system time =       4.52 seconds =       0.08 minutes
	total time  =        125 seconds =       2.08 minutes
Grab this energy -157.81304842764462
    Psi4 stopped on: Friday, 05 November 2021 01:46PM
    Psi4 wall time for execution: 0:02:05.42

*** Psi4 exiting successfully. Buy a developer a beer!
