                               Psi4 1.4a2.dev629

  ==> Input File <==

--------------------------------------------------------------------------
import os
memory 14 GB

molecule {
 C   -0.3233408849    0.0004909924    0.0024286498
 C    0.0617790043   -1.4017187463   -2.4266541915
 C    0.0611167356    2.8026159684    0.0012511930
 C    0.0604035936   -1.3995476523    2.4254006275
 H    2.0912507626   -1.6421878163   -2.8474342380
 H   -0.7675249292   -0.3887848794   -4.0261731158
 H   -0.7631718979   -3.2975763031   -2.3511204815
 H    2.0826117154    3.2885971682   -0.0033460856
 H   -0.7591195917    3.6826222462    1.6757877105
 H   -0.7678175041    3.6768436736   -1.6691144378
 H    2.0868019425   -1.6457980615    2.8469920318
 H   -0.7699798835   -3.2910988012    2.3457466637
 H   -0.7656169395   -0.3844821023    4.0262356741
units bohr
0 2
}

basis {

assign 6-31g_2dfp_

[ 6-31g_2dfp_ ]

spherical

!----------------------------------------------------------------------
! Basis Set Exchange
! Version v0.8.13
! https://www.basissetexchange.org
!----------------------------------------------------------------------
!   Basis set: 6-31G(2df,p)
! Description: 6-31G(2df,p)
!        Role: orbital
!     Version: 0  (Data from the original Basis Set Exchange)
!----------------------------------------------------------------------

****
H     0
S    3   1.00
     18.7311370              0.03349460
      2.8253937              0.23472695
      0.6401217              0.81375733
S    1   1.00
      0.1612778              1.00000000
P    1   1.00
      1.5000000              1.0000000
P    1   1.00
      0.3750000              1.0000000
****
B     0
S    6   1.00
   2068.8823000              0.0018663
    310.6495700              0.0142515
     70.6830330              0.0695516
     19.8610800              0.2325729
      6.2993048              0.4670787
      2.1270270              0.3634314
SP   3   1.00
      4.7279710             -0.1303938              0.0745976
      1.1903377             -0.1307889              0.3078467
      0.3594117              1.1309444              0.7434568
SP   1   1.00
      0.1267512              1.0000000              1.0000000
D    1   1.00
      0.8020000              1.0000000
D    1   1.00
      0.2005000              1.0000000
F    1   1.00
      0.5000000              1.0000000
****
C     0
S    6   1.00
   3047.5249000              0.0018347
    457.3695100              0.0140373
    103.9486900              0.0688426
     29.2101550              0.2321844
      9.2866630              0.4679413
      3.1639270              0.3623120
SP   3   1.00
      7.8682724             -0.1193324              0.0689991
      1.8812885             -0.1608542              0.3164240
      0.5442493              1.1434564              0.7443083
SP   1   1.00
      0.1687144              1.0000000              1.0000000
D    1   1.00
      1.2520000              1.0000000
D    1   1.00
      0.3130000              1.0000000
F    1   1.00
      0.8000000              1.0000000
****
N     0
S    6   1.00
   4173.5110000              0.0018348
    627.4579000              0.0139950
    142.9021000              0.0685870
     40.2343300              0.2322410
     12.8202100              0.4690700
      4.3904370              0.3604550
SP   3   1.00
     11.6263580             -0.1149610              0.0675800
      2.7162800             -0.1691180              0.3239070
      0.7722180              1.1458520              0.7408950
SP   1   1.00
      0.2120313              1.0000000              1.0000000
D    1   1.00
      1.8260000              1.0000000
D    1   1.00
      0.4565000              1.0000000
F    1   1.00
      1.0000000              1.0000000
****
O     0
S    6   1.00
   5484.6717000              0.0018311
    825.2349500              0.0139501
    188.0469600              0.0684451
     52.9645000              0.2327143
     16.8975700              0.4701930
      5.7996353              0.3585209
SP   3   1.00
     15.5396160             -0.1107775              0.0708743
      3.5999336             -0.1480263              0.3397528
      1.0137618              1.1307670              0.7271586
SP   1   1.00
      0.2700058              1.0000000              1.0000000
D    1   1.00
      2.5840000              1.0000000
D    1   1.00
      0.6460000              1.0000000
F    1   1.00
      1.4000000              1.0000000
****
F     0
S    6   1.00
   7001.7130900              0.0018196169
   1051.3660900              0.0139160796
    239.2856900              0.0684053245
     67.3974453              0.233185760
     21.5199573              0.471267439
      7.40310130             0.356618546
SP   3   1.00
     20.8479528             -0.108506975            0.0716287243
      4.80830834            -0.146451658            0.3459121030
      1.34406986             1.128688580            0.7224699570
SP   1   1.00
      0.358151393            1.0000000              1.0000000
D    1   1.00
      3.5000000              1.0000000
D    1   1.00
      0.8750000              1.0000000
F    1   1.00
      1.8500000              1.0000000
****
Al     0
S    6   1.00
  13983.1000000              0.00194267
   2098.7500000              0.0148599
    477.7050000              0.0728494
    134.3600000              0.2468300
     42.8709000              0.4872580
     14.5189000              0.3234960
SP   6   1.00
    239.6680000             -0.00292619             0.00460285
     57.4419000             -0.0374080              0.0331990
     18.2859000             -0.1144870              0.1362820
      6.5991400              0.1156350              0.3304760
      2.4904900              0.6125950              0.4491460
      0.9445400              0.3937990              0.2657040
SP   3   1.00
      1.2779000             -0.2276060             -0.0175130
      0.3975900              0.00144583             0.2445330
      0.1600950              1.0927900              0.8049340
SP   1   1.00
      0.0556577              1.0000000              1.0000000
D    1   1.00
      0.6500000              1.0000000
D    1   1.00
      0.1625000              1.0000000
F    1   1.00
      0.2500000              1.0000000
****
Si     0
S    6   1.00
  16115.9000000              0.00195948
   2425.5800000              0.01492880
    553.8670000              0.07284780
    156.3400000              0.24613000
     50.0683000              0.48591400
     17.0178000              0.32500200
SP   6   1.00
    292.7180000             -0.00278094             0.00443826
     69.8731000             -0.03571460             0.03266790
     22.3363000             -0.11498500             0.13472100
      8.1503900              0.09356340             0.32867800
      3.1345800              0.60301700             0.44964000
      1.2254300              0.41895900             0.26137200
SP   3   1.00
      1.7273800             -0.24463000            -0.01779510
      0.5729220              0.00431572             0.25353900
      0.2221920              1.09818000             0.80066900
SP   1   1.00
      0.0778369              1.00000000             1.00000000
D    1   1.00
      0.9000000              1.0000000
D    1   1.00
      0.2250000              1.0000000
F    1   1.00
      0.3200000              1.0000000
****
P     0
S    6   1.00
  19413.3000000              0.0018516
   2909.4200000              0.0142062
    661.3640000              0.0699995
    185.7590000              0.2400790
     59.1943000              0.4847620
     20.0310000              0.3352000
SP   6   1.00
    339.4780000             -0.00278217             0.00456462
     81.0101000             -0.0360499              0.03369360
     25.8780000             -0.1166310              0.13975500
      9.4522100              0.0968328              0.33936200
      3.6656600              0.6144180              0.45092100
      1.4674600              0.4037980              0.23858600
SP   3   1.00
      2.1562300             -0.2529230             -0.01776530
      0.7489970              0.0328517              0.27405800
      0.2831450              1.0812500              0.78542100
SP   1   1.00
      0.0998317              1.0000000              1.00000000
D    1   1.00
      1.1000000              1.0000000
D    1   1.00
      0.2750000              1.0000000
F    1   1.00
      0.4500000              1.0000000
****
S     0
S    6   1.00
  21917.1000000              0.0018690
   3301.4900000              0.0142300
    754.1460000              0.0696960
    212.7110000              0.2384870
     67.9896000              0.4833070
     23.0515000              0.3380740
SP   6   1.00
    423.7350000             -0.0023767              0.0040610
    100.7100000             -0.0316930              0.0306810
     32.1599000             -0.1133170              0.1304520
     11.8079000              0.0560900              0.3272050
      4.6311000              0.5922550              0.4528510
      1.8702500              0.4550060              0.2560420
SP   3   1.00
      2.6158400             -0.2503740             -0.0145110
      0.9221670              0.0669570              0.3102630
      0.3412870              1.0545100              0.7544830
SP   1   1.00
      0.1171670              1.0000000              1.0000000
D    1   1.00
      1.3000000              1.0000000
D    1   1.00
      0.3250000              1.0000000
F    1   1.00
      0.5500000              1.0000000
****
Cl     0
S    6   1.00
  25180.1000000              0.0018330
   3780.3500000              0.0140340
    860.4740000              0.0690970
    242.1450000              0.2374520
     77.3349000              0.4830340
     26.2470000              0.3398560
SP   6   1.00
    491.7650000             -0.0022974              0.0039894
    116.9840000             -0.0307140              0.0303180
     37.4153000             -0.1125280              0.1298800
     13.7834000              0.0450160              0.3279510
      5.4521500              0.5893530              0.4535270
      2.2258800              0.4652060              0.2521540
SP   3   1.00
      3.1864900             -0.2518300             -0.0142990
      1.1442700              0.0615890              0.3235720
      0.4203770              1.0601800              0.7435070
SP   1   1.00
      0.1426570              1.0000000              1.0000000
D    1   1.00
      1.5000000              1.0000000
D    1   1.00
      0.3750000              1.0000000
F    1   1.00
      0.7000000              1.0000000
****
}

set {
reference uhf
freeze_core true
e_convergence 10
d_convergence 10
dft_spherical_points 1202
dft_radial_points 99
}

e = energy('b3lyp')

print_out('Grab this energy {0}'.format(e))
--------------------------------------------------------------------------

    Molecular point group: c1

    Geometry (in Bohr), charge = 0, multiplicity = 2:

       Center              X                  Y                   Z               Mass
    ------------   -----------------  -----------------  -----------------  -----------------
         C           -0.323340583168     0.000136916225     0.001961331024    12.000000000000
         C            0.061779306032    -1.402072822475    -2.427121510276    12.000000000000
         C            0.061117037332     2.802261892225     0.000783874224    12.000000000000
         C            0.060403895332    -1.399901728475     2.424933308724    12.000000000000
         H            2.091251064332    -1.642541892475    -2.847901556776     1.007825032230
         H           -0.767524627468    -0.389138955575    -4.026640434576     1.007825032230
         H           -0.763171596168    -3.297930379275    -2.351587800276     1.007825032230
         H            2.082612017132     3.288243092025    -0.003813404376     1.007825032230
         H           -0.759119289968     3.682268170025     1.675320391724     1.007825032230
         H           -0.767817202368     3.676489597425    -1.669581756576     1.007825032230
         H            2.086802244232    -1.646152137675     2.846524713024     1.007825032230
         H           -0.769979581768    -3.291452877375     2.345279344924     1.007825032230
         H           -0.765616637768    -0.384836178475     4.025768355324     1.007825032230

  Charge       = 0
  Multiplicity = 2
  Basis Set: ANONYMOUS28E9E6C9
    Blend: 6-31G_2DFP_
  Basis Set: (ANONYMOUS28E9E6C9 AUX)
    Blend: DEF2-UNIVERSAL-JKFIT

    Orbital Energies [Eh]
    ---------------------

    Alpha Occupied:

       1A    -10.180342     2A    -10.167538     3A    -10.167162
       4A    -10.166344     5A     -0.797768     6A     -0.686541
       7A     -0.685834     8A     -0.530775     9A     -0.441126
      10A     -0.434785    11A     -0.434559    12A     -0.382827
      13A     -0.382371    14A     -0.363611    15A     -0.338151
      16A     -0.337844    17A     -0.168961

    Alpha Virtual:

      18A      0.076071    19A      0.134085    20A      0.134211
      21A      0.142531    22A      0.142735    23A      0.154875
      24A      0.178453    25A      0.179105    26A      0.203547
      27A      0.214805    28A      0.275647    29A      0.276324
      30A      0.399140    31A      0.399304    32A      0.403356
      33A      0.423996    34A      0.424199    35A      0.456593
      36A      0.495304    37A      0.495475    38A      0.512162
      39A      0.513978    40A      0.578592    41A      0.579031
      42A      0.591250    43A      0.592001    44A      0.602594
      45A      0.624765    46A      0.631696    47A      0.635857
      48A      0.636723    49A      0.663140    50A      0.663689
      51A      0.683541    52A      0.684180    53A      0.734995
      54A      0.825008    55A      0.825797    56A      0.853917
      57A      0.914892    58A      0.915163    59A      0.944127
      60A      0.944612    61A      0.961053    62A      0.961541
      63A      1.003456    64A      1.127770    65A      1.128426
      66A      1.142210    67A      1.163122    68A      1.163442
      69A      1.223326    70A      1.274228    71A      1.274747
      72A      1.279358    73A      1.323983    74A      1.324722
      75A      1.355984    76A      1.365654    77A      1.366445
      78A      1.392446    79A      1.403544    80A      1.404548
      81A      1.416687    82A      1.417529    83A      1.427922
      84A      1.491491    85A      1.499088    86A      1.542688
      87A      1.542977    88A      1.574089    89A      1.574810
      90A      1.669805    91A      1.739114    92A      1.739694
      93A      1.768324    94A      1.829757    95A      1.833101
      96A      1.971702    97A      2.017995    98A      2.019078
      99A      2.019289   100A      2.051698   101A      2.053654
     102A      2.738035   103A      2.738931   104A      2.790929
     105A      2.811424   106A      2.889439   107A      2.890359
     108A      2.895043   109A      2.929294   110A      2.929699
     111A      2.959003   112A      2.963804   113A      2.964965
     114A      3.034020   115A      3.070894   116A      3.071668
     117A      3.084378   118A      3.168629   119A      3.168909
     120A      3.180622   121A      3.285234   122A      3.285403
     123A      3.326713   124A      3.327609   125A      3.375611
     126A      3.489302   127A      3.491019   128A      3.514005
     129A      3.525329   130A      3.567524   131A      3.569226
     132A      3.575193   133A      3.665609   134A      3.667040
     135A      3.679677   136A      3.693521   137A      3.694768
     138A      3.775329   139A      3.778260   140A      3.789170
     141A      3.911568   142A      3.912873   143A      4.034435
     144A      4.110055   145A      4.112561   146A      4.146068
     147A      4.150069   148A      4.173319   149A      4.201097
     150A      4.202244   151A      4.205358   152A      4.211210
     153A      4.315091   154A      4.316823   155A      4.358950
     156A      4.423846   157A      4.424965   158A      4.443560
     159A      4.516018   160A      4.517623   161A      4.577461
     162A      4.579098   163A      4.617531   164A      4.709483
     165A      4.773982   166A      4.775252   167A      4.836885
     168A      4.962851   169A      5.002135   170A      5.003827
     171A      5.227820   172A      5.243162   173A      5.250446
     174A      5.352382   175A      5.358828   176A      5.479437

    Beta Occupied:

       1A    -10.168296     2A    -10.167925     3A    -10.167106
       4A    -10.166514     5A     -0.781093     6A     -0.684339
       7A     -0.683641     8A     -0.511746     9A     -0.431168
      10A     -0.430918    11A     -0.421824    12A     -0.376919
      13A     -0.376449    14A     -0.362595    15A     -0.333273
      16A     -0.332968

    Beta Virtual:

      17A     -0.025743    18A      0.077080    19A      0.134950
      20A      0.135127    21A      0.144445    22A      0.144562
      23A      0.163333    24A      0.182135    25A      0.182767
      26A      0.215034    27A      0.218929    28A      0.282005
      29A      0.282662    30A      0.400314    31A      0.400478
      32A      0.419793    33A      0.426800    34A      0.427018
      35A      0.468501    36A      0.497568    37A      0.497732
      38A      0.513897    39A      0.556322    40A      0.584128
      41A      0.584596    42A      0.597460    43A      0.598153
      44A      0.610012    45A      0.628142    46A      0.631887
      47A      0.639159    48A      0.639959    49A      0.666702
      50A      0.667254    51A      0.686212    52A      0.686779
      53A      0.757517    54A      0.830152    55A      0.830990
      56A      0.855271    57A      0.922860    58A      0.923137
      59A      0.945964    60A      0.953539    61A      0.966381
      62A      0.966828    63A      1.008695    64A      1.131774
      65A      1.132483    66A      1.155580    67A      1.168228
      68A      1.168486    69A      1.232299    70A      1.279817
      71A      1.280349    72A      1.285115    73A      1.328932
      74A      1.329753    75A      1.365392    76A      1.370935
      77A      1.371656    78A      1.393505    79A      1.406976
      80A      1.408045    81A      1.421707    82A      1.422608
      83A      1.428194    84A      1.492540    85A      1.509531
      86A      1.547096    87A      1.547383    88A      1.581994
      89A      1.582649    90A      1.674650    91A      1.744870
      92A      1.745465    93A      1.779101    94A      1.833639
      95A      1.836929    96A      1.972565    97A      2.025322
      98A      2.025533    99A      2.039671   100A      2.058440
     101A      2.060353   102A      2.746353   103A      2.747286
     104A      2.811836   105A      2.816063   106A      2.902229
     107A      2.903026   108A      2.924645   109A      2.931811
     110A      2.932168   111A      2.960068   112A      2.968319
     113A      2.969540   114A      3.041954   115A      3.080763
     116A      3.081585   117A      3.086230   118A      3.184260
     119A      3.184702   120A      3.188378   121A      3.290008
     122A      3.290226   123A      3.330526   124A      3.331404
     125A      3.383430   126A      3.492057   127A      3.493726
     128A      3.512374   129A      3.528376   130A      3.574934
     131A      3.580994   132A      3.582546   133A      3.670334
     134A      3.671846   135A      3.692975   136A      3.725236
     137A      3.726277   138A      3.779921   139A      3.782746
     140A      3.817691   141A      3.921428   142A      3.922650
     143A      4.045317   144A      4.116972   145A      4.119253
     146A      4.153512   147A      4.157076   148A      4.187368
     149A      4.208034   150A      4.208215   151A      4.212279
     152A      4.215705   153A      4.322606   154A      4.324183
     155A      4.362315   156A      4.432055   157A      4.433133
     158A      4.446497   159A      4.523834   160A      4.525387
     161A      4.588082   162A      4.589674   163A      4.624727
     164A      4.719827   165A      4.780971   166A      4.782170
     167A      4.839802   168A      4.967647   169A      5.006172
     170A      5.007868   171A      5.233524   172A      5.244961
     173A      5.252231   174A      5.358870   175A      5.365297
     176A      5.481758

    Final Occupation by Irrep:
              A
    DOCC [    16 ]
    SOCC [     1 ]

  @DF-UKS Final Energy:  -157.81305322461643

   => Energetics <=

    Nuclear Repulsion Energy =            125.3946879275359692
    One-Electron Energy =                -458.7489966377510200
    Two-Electron Energy =                 195.8484047584278187
    DFT Exchange-Correlation Energy =     -20.3071492728292071
    Empirical Dispersion Energy =           0.0000000000000000
    VV10 Nonlocal Energy =                  0.0000000000000000
    Total Energy =                       -157.8130532246164250

  UHF NO Occupations:
  HONO-2 :   15  A 1.9996009
  HONO-1 :   16  A 1.9989805
  HONO-0 :   17  A 1.0000000
  LUNO+0 :   18  A 0.0010195
  LUNO+1 :   19  A 0.0003991
  LUNO+2 :   20  A 0.0001981
  LUNO+3 :   21  A 0.0001970

Computation Completed

Properties will be evaluated at   0.000000,   0.000000,   0.000000 [a0]

Properties computed using the SCF density matrix

  Nuclear Dipole Moment: [e a0]
     X:     0.8272      Y:    -0.0025      Z:    -0.0033

  Electronic Dipole Moment: [e a0]
     X:    -0.7493      Y:     0.0050      Z:     0.0033

  Dipole Moment: [e a0]
     X:     0.0779      Y:     0.0024      Z:    -0.0000     Total:     0.0780

  Dipole Moment: [D]
     X:     0.1980      Y:     0.0062      Z:    -0.0001     Total:     0.1981

*** tstop() called on n082 at Fri Nov  5 15:12:38 2021
Module time:
	user time   =     496.35 seconds =       8.27 minutes
	system time =       4.49 seconds =       0.07 minutes
	total time  =        126 seconds =       2.10 minutes
Total time:
	user time   =     496.35 seconds =       8.27 minutes
	system time =       4.49 seconds =       0.07 minutes
	total time  =        126 seconds =       2.10 minutes
Grab this energy -157.81305322461643
    Psi4 stopped on: Friday, 05 November 2021 03:12PM
    Psi4 wall time for execution: 0:02:05.93

*** Psi4 exiting successfully. Buy a developer a beer!
