                               Psi4 1.4a2.dev629

  ==> Input File <==

--------------------------------------------------------------------------
import os
memory 14 GB

molecule {
 C   -0.3201726747   -0.0000019794   -0.0000017733
 C    0.0624656723   -1.4008292069   -2.4261994085
 C    0.0623463865    2.8015790864   -0.0000501507
 C    0.0624666589   -1.4007455067    2.4262495578
 H    2.0865993798   -1.6479970985   -2.8448837717
 H   -0.7624177445   -0.3868533254   -4.0262909487
 H   -0.7706037867   -3.2901480286   -2.3505905610
 H    2.0864623099    3.2878375972   -0.0046518904
 H   -0.7626625907    3.6802696196    1.6780860162
 H   -0.7706761316    3.6807210092   -1.6740988866
 H    2.0866030429   -1.6399331135    2.8495384165
 H   -0.7625793102   -3.2933864818    2.3482108014
 H   -0.7704390885   -0.3905368852    4.0246825990
units bohr
0 2
}

basis {

assign 6-31g_2dfp_

[ 6-31g_2dfp_ ]

spherical

!----------------------------------------------------------------------
! Basis Set Exchange
! Version v0.8.13
! https://www.basissetexchange.org
!----------------------------------------------------------------------
!   Basis set: 6-31G(2df,p)
! Description: 6-31G(2df,p)
!        Role: orbital
!     Version: 0  (Data from the original Basis Set Exchange)
!----------------------------------------------------------------------

****
H     0
S    3   1.00
     18.7311370              0.03349460
      2.8253937              0.23472695
      0.6401217              0.81375733
S    1   1.00
      0.1612778              1.00000000
P    1   1.00
      1.5000000              1.0000000
P    1   1.00
      0.3750000              1.0000000
****
B     0
S    6   1.00
   2068.8823000              0.0018663
    310.6495700              0.0142515
     70.6830330              0.0695516
     19.8610800              0.2325729
      6.2993048              0.4670787
      2.1270270              0.3634314
SP   3   1.00
      4.7279710             -0.1303938              0.0745976
      1.1903377             -0.1307889              0.3078467
      0.3594117              1.1309444              0.7434568
SP   1   1.00
      0.1267512              1.0000000              1.0000000
D    1   1.00
      0.8020000              1.0000000
D    1   1.00
      0.2005000              1.0000000
F    1   1.00
      0.5000000              1.0000000
****
C     0
S    6   1.00
   3047.5249000              0.0018347
    457.3695100              0.0140373
    103.9486900              0.0688426
     29.2101550              0.2321844
      9.2866630              0.4679413
      3.1639270              0.3623120
SP   3   1.00
      7.8682724             -0.1193324              0.0689991
      1.8812885             -0.1608542              0.3164240
      0.5442493              1.1434564              0.7443083
SP   1   1.00
      0.1687144              1.0000000              1.0000000
D    1   1.00
      1.2520000              1.0000000
D    1   1.00
      0.3130000              1.0000000
F    1   1.00
      0.8000000              1.0000000
****
N     0
S    6   1.00
   4173.5110000              0.0018348
    627.4579000              0.0139950
    142.9021000              0.0685870
     40.2343300              0.2322410
     12.8202100              0.4690700
      4.3904370              0.3604550
SP   3   1.00
     11.6263580             -0.1149610              0.0675800
      2.7162800             -0.1691180              0.3239070
      0.7722180              1.1458520              0.7408950
SP   1   1.00
      0.2120313              1.0000000              1.0000000
D    1   1.00
      1.8260000              1.0000000
D    1   1.00
      0.4565000              1.0000000
F    1   1.00
      1.0000000              1.0000000
****
O     0
S    6   1.00
   5484.6717000              0.0018311
    825.2349500              0.0139501
    188.0469600              0.0684451
     52.9645000              0.2327143
     16.8975700              0.4701930
      5.7996353              0.3585209
SP   3   1.00
     15.5396160             -0.1107775              0.0708743
      3.5999336             -0.1480263              0.3397528
      1.0137618              1.1307670              0.7271586
SP   1   1.00
      0.2700058              1.0000000              1.0000000
D    1   1.00
      2.5840000              1.0000000
D    1   1.00
      0.6460000              1.0000000
F    1   1.00
      1.4000000              1.0000000
****
F     0
S    6   1.00
   7001.7130900              0.0018196169
   1051.3660900              0.0139160796
    239.2856900              0.0684053245
     67.3974453              0.233185760
     21.5199573              0.471267439
      7.40310130             0.356618546
SP   3   1.00
     20.8479528             -0.108506975            0.0716287243
      4.80830834            -0.146451658            0.3459121030
      1.34406986             1.128688580            0.7224699570
SP   1   1.00
      0.358151393            1.0000000              1.0000000
D    1   1.00
      3.5000000              1.0000000
D    1   1.00
      0.8750000              1.0000000
F    1   1.00
      1.8500000              1.0000000
****
Al     0
S    6   1.00
  13983.1000000              0.00194267
   2098.7500000              0.0148599
    477.7050000              0.0728494
    134.3600000              0.2468300
     42.8709000              0.4872580
     14.5189000              0.3234960
SP   6   1.00
    239.6680000             -0.00292619             0.00460285
     57.4419000             -0.0374080              0.0331990
     18.2859000             -0.1144870              0.1362820
      6.5991400              0.1156350              0.3304760
      2.4904900              0.6125950              0.4491460
      0.9445400              0.3937990              0.2657040
SP   3   1.00
      1.2779000             -0.2276060             -0.0175130
      0.3975900              0.00144583             0.2445330
      0.1600950              1.0927900              0.8049340
SP   1   1.00
      0.0556577              1.0000000              1.0000000
D    1   1.00
      0.6500000              1.0000000
D    1   1.00
      0.1625000              1.0000000
F    1   1.00
      0.2500000              1.0000000
****
Si     0
S    6   1.00
  16115.9000000              0.00195948
   2425.5800000              0.01492880
    553.8670000              0.07284780
    156.3400000              0.24613000
     50.0683000              0.48591400
     17.0178000              0.32500200
SP   6   1.00
    292.7180000             -0.00278094             0.00443826
     69.8731000             -0.03571460             0.03266790
     22.3363000             -0.11498500             0.13472100
      8.1503900              0.09356340             0.32867800
      3.1345800              0.60301700             0.44964000
      1.2254300              0.41895900             0.26137200
SP   3   1.00
      1.7273800             -0.24463000            -0.01779510
      0.5729220              0.00431572             0.25353900
      0.2221920              1.09818000             0.80066900
SP   1   1.00
      0.0778369              1.00000000             1.00000000
D    1   1.00
      0.9000000              1.0000000
D    1   1.00
      0.2250000              1.0000000
F    1   1.00
      0.3200000              1.0000000
****
P     0
S    6   1.00
  19413.3000000              0.0018516
   2909.4200000              0.0142062
    661.3640000              0.0699995
    185.7590000              0.2400790
     59.1943000              0.4847620
     20.0310000              0.3352000
SP   6   1.00
    339.4780000             -0.00278217             0.00456462
     81.0101000             -0.0360499              0.03369360
     25.8780000             -0.1166310              0.13975500
      9.4522100              0.0968328              0.33936200
      3.6656600              0.6144180              0.45092100
      1.4674600              0.4037980              0.23858600
SP   3   1.00
      2.1562300             -0.2529230             -0.01776530
      0.7489970              0.0328517              0.27405800
      0.2831450              1.0812500              0.78542100
SP   1   1.00
      0.0998317              1.0000000              1.00000000
D    1   1.00
      1.1000000              1.0000000
D    1   1.00
      0.2750000              1.0000000
F    1   1.00
      0.4500000              1.0000000
****
S     0
S    6   1.00
  21917.1000000              0.0018690
   3301.4900000              0.0142300
    754.1460000              0.0696960
    212.7110000              0.2384870
     67.9896000              0.4833070
     23.0515000              0.3380740
SP   6   1.00
    423.7350000             -0.0023767              0.0040610
    100.7100000             -0.0316930              0.0306810
     32.1599000             -0.1133170              0.1304520
     11.8079000              0.0560900              0.3272050
      4.6311000              0.5922550              0.4528510
      1.8702500              0.4550060              0.2560420
SP   3   1.00
      2.6158400             -0.2503740             -0.0145110
      0.9221670              0.0669570              0.3102630
      0.3412870              1.0545100              0.7544830
SP   1   1.00
      0.1171670              1.0000000              1.0000000
D    1   1.00
      1.3000000              1.0000000
D    1   1.00
      0.3250000              1.0000000
F    1   1.00
      0.5500000              1.0000000
****
Cl     0
S    6   1.00
  25180.1000000              0.0018330
   3780.3500000              0.0140340
    860.4740000              0.0690970
    242.1450000              0.2374520
     77.3349000              0.4830340
     26.2470000              0.3398560
SP   6   1.00
    491.7650000             -0.0022974              0.0039894
    116.9840000             -0.0307140              0.0303180
     37.4153000             -0.1125280              0.1298800
     13.7834000              0.0450160              0.3279510
      5.4521500              0.5893530              0.4535270
      2.2258800              0.4652060              0.2521540
SP   3   1.00
      3.1864900             -0.2518300             -0.0142990
      1.1442700              0.0615890              0.3235720
      0.4203770              1.0601800              0.7435070
SP   1   1.00
      0.1426570              1.0000000              1.0000000
D    1   1.00
      1.5000000              1.0000000
D    1   1.00
      0.3750000              1.0000000
F    1   1.00
      0.7000000              1.0000000
****
}

set {
reference uhf
freeze_core true
e_convergence 10
d_convergence 10
dft_spherical_points 1202
dft_radial_points 99
}

e = energy('b3lyp')

print_out('Grab this energy {0}'.format(e))
--------------------------------------------------------------------------

    Molecular point group: c1

    Geometry (in Bohr), charge = 0, multiplicity = 2:

       Center              X                  Y                   Z               Mass
    ------------   -----------------  -----------------  -----------------  -----------------
         C           -0.321549051135    -0.000002011024    -0.000001431480    12.000000000000
         C            0.061089295865    -1.400829238524    -2.426199066680    12.000000000000
         C            0.060970010065     2.801579054776    -0.000049808880    12.000000000000
         C            0.061090282465    -1.400745538324     2.426249899620    12.000000000000
         H            2.085223003365    -1.647997130124    -2.844883429880     1.007825032230
         H           -0.763794120935    -0.386853357024    -4.026290606880     1.007825032230
         H           -0.771980163135    -3.290148060224    -2.350590219180     1.007825032230
         H            2.085085933465     3.287837565576    -0.004651548580     1.007825032230
         H           -0.764038967135     3.680269587976     1.678086358020     1.007825032230
         H           -0.772052508035     3.680720977576    -1.674098544780     1.007825032230
         H            2.085226666465    -1.639933145124     2.849538758320     1.007825032230
         H           -0.763955686635    -3.293386513424     2.348211143220     1.007825032230
         H           -0.771815464935    -0.390536916824     4.024682940820     1.007825032230

  Charge       = 0
  Multiplicity = 2
  Basis Set: ANONYMOUSCC83229A
    Blend: 6-31G_2DFP_
  Basis Set: (ANONYMOUSCC83229A AUX)
    Blend: DEF2-UNIVERSAL-JKFIT

    Orbital Energies [Eh]
    ---------------------

    Alpha Occupied:

       1A    -10.180229     2A    -10.167007     3A    -10.167006
       4A    -10.166961     5A     -0.797819     6A     -0.686199
       7A     -0.686199     8A     -0.530754     9A     -0.441358
      10A     -0.434526    11A     -0.434525    12A     -0.382848
      13A     -0.382846    14A     -0.363329    15A     -0.337950
      16A     -0.337950    17A     -0.168846

    Alpha Virtual:

      18A      0.076056    19A      0.134148    20A      0.134149
      21A      0.142548    22A      0.142548    23A      0.154944
      24A      0.178882    25A      0.178883    26A      0.203592
      27A      0.214670    28A      0.276123    29A      0.276125
      30A      0.399245    31A      0.399249    32A      0.403383
      33A      0.424103    34A      0.424104    35A      0.456597
      36A      0.495338    37A      0.495339    38A      0.512250
      39A      0.513990    40A      0.578723    41A      0.578731
      42A      0.591938    43A      0.591940    44A      0.602879
      45A      0.624620    46A      0.631638    47A      0.636113
      48A      0.636117    49A      0.663583    50A      0.663584
      51A      0.683826    52A      0.683828    53A      0.735123
      54A      0.825580    55A      0.825583    56A      0.853867
      57A      0.915187    58A      0.915193    59A      0.944098
      60A      0.944752    61A      0.961197    62A      0.961213
      63A      1.002585    64A      1.127866    65A      1.127878
      66A      1.142596    67A      1.163420    68A      1.163432
      69A      1.223742    70A      1.274771    71A      1.274774
      72A      1.279500    73A      1.324242    74A      1.324244
      75A      1.357010    76A      1.365702    77A      1.365706
      78A      1.392392    79A      1.404673    80A      1.404676
      81A      1.417718    82A      1.417724    83A      1.428090
      84A      1.491004    85A      1.499604    86A      1.542423
      87A      1.542425    88A      1.574370    89A      1.574372
      90A      1.669292    91A      1.739624    92A      1.739636
      93A      1.768526    94A      1.831071    95A      1.831072
      96A      1.971165    97A      2.018576    98A      2.019340
      99A      2.019343   100A      2.053013   101A      2.053014
     102A      2.738817   103A      2.738818   104A      2.791138
     105A      2.811151   106A      2.890128   107A      2.890134
     108A      2.894907   109A      2.929343   110A      2.929352
     111A      2.958830   112A      2.964398   113A      2.964412
     114A      3.034050   115A      3.071897   116A      3.071911
     117A      3.084289   118A      3.168797   119A      3.168804
     120A      3.180387   121A      3.284963   122A      3.284963
     123A      3.326230   124A      3.326235   125A      3.375917
     126A      3.490344   127A      3.490364   128A      3.514456
     129A      3.525178   130A      3.568802   131A      3.568823
     132A      3.575606   133A      3.666394   134A      3.666402
     135A      3.678623   136A      3.694402   137A      3.694418
     138A      3.777670   139A      3.777695   140A      3.790437
     141A      3.912115   142A      3.912122   143A      4.035631
     144A      4.111000   145A      4.111004   146A      4.147896
     147A      4.147904   148A      4.173375   149A      4.203045
     150A      4.203384   151A      4.203387   152A      4.210942
     153A      4.316160   154A      4.316180   155A      4.358857
     156A      4.425064   157A      4.425067   158A      4.442555
     159A      4.516712   160A      4.516714   161A      4.578176
     162A      4.578188   163A      4.618361   164A      4.709889
     165A      4.774833   166A      4.774840   167A      4.837133
     168A      4.962795   169A      5.003649   170A      5.003661
     171A      5.228126   172A      5.246791   173A      5.246791
     174A      5.355052   175A      5.355065   176A      5.479858

    Beta Occupied:

       1A    -10.167760     2A    -10.167760     3A    -10.167734
       4A    -10.166404     5A     -0.781129     6A     -0.683998
       7A     -0.683997     8A     -0.511720     9A     -0.430885
      10A     -0.430885    11A     -0.422063    12A     -0.376945
      13A     -0.376943    14A     -0.362312    15A     -0.333076
      16A     -0.333075

    Beta Virtual:

      17A     -0.025594    18A      0.077063    19A      0.135005
      20A      0.135006    21A      0.144427    22A      0.144427
      23A      0.163372    24A      0.182564    25A      0.182565
      26A      0.214902    27A      0.218998    28A      0.282459
      29A      0.282462    30A      0.400410    31A      0.400414
      32A      0.419772    33A      0.426917    34A      0.426918
      35A      0.468569    36A      0.497598    37A      0.497599
      38A      0.513995    39A      0.556369    40A      0.584282
      41A      0.584290    42A      0.598102    43A      0.598103
      44A      0.610277    45A      0.628027    46A      0.631794
      47A      0.639416    48A      0.639421    49A      0.667120
      50A      0.667120    51A      0.686464    52A      0.686465
      53A      0.757640    54A      0.830728    55A      0.830730
      56A      0.855218    57A      0.923154    58A      0.923161
      59A      0.946047    60A      0.953604    61A      0.966521
      62A      0.966537    63A      1.007776    64A      1.131999
      65A      1.132011    66A      1.155965    67A      1.168431
      68A      1.168444    69A      1.232722    70A      1.280351
      71A      1.280355    72A      1.285261    73A      1.329174
      74A      1.329176    75A      1.366438    76A      1.370941
      77A      1.370945    78A      1.393444    79A      1.408158
      80A      1.408161    81A      1.422782    82A      1.422788
      83A      1.428377    84A      1.492060    85A      1.510056
      86A      1.546728    87A      1.546729    88A      1.582342
      89A      1.582343    90A      1.674154    91A      1.745377
      92A      1.745388    93A      1.779301    94A      1.834932
      95A      1.834933    96A      1.972027    97A      2.025780
      98A      2.025784    99A      2.039927   100A      2.059703
     101A      2.059705   102A      2.747149   103A      2.747151
     104A      2.811520   105A      2.816369   106A      2.902802
     107A      2.902807   108A      2.924703   109A      2.931848
     110A      2.931857   111A      2.959892   112A      2.968927
     113A      2.968941   114A      3.041945   115A      3.081784
     116A      3.081795   117A      3.086099   118A      3.184630
     119A      3.184634   120A      3.187997   121A      3.289806
     122A      3.289806   123A      3.330018   124A      3.330023
     125A      3.383774   126A      3.493066   127A      3.493086
     128A      3.512823   129A      3.528255   130A      3.575476
     131A      3.582070   132A      3.582093   133A      3.671208
     134A      3.671220   135A      3.691936   136A      3.726009
     137A      3.726024   138A      3.782157   139A      3.782183
     140A      3.818957   141A      3.921930   142A      3.921937
     143A      4.046507   144A      4.117838   145A      4.117841
     146A      4.155087   147A      4.155096   148A      4.187408
     149A      4.209326   150A      4.209330   151A      4.211023
     152A      4.215380   153A      4.323613   154A      4.323633
     155A      4.362205   156A      4.433221   157A      4.433224
     158A      4.445464   159A      4.524501   160A      4.524503
     161A      4.588801   162A      4.588813   163A      4.625628
     164A      4.720143   165A      4.781810   166A      4.781817
     167A      4.840052   168A      4.967573   169A      5.007675
     170A      5.007688   171A      5.233873   172A      5.248584
     173A      5.248585   174A      5.361549   175A      5.361563
     176A      5.482180

    Final Occupation by Irrep:
              A
    DOCC [    16 ]
    SOCC [     1 ]

  @DF-UKS Final Energy:  -157.81307594410018

   => Energetics <=

    Nuclear Repulsion Energy =            125.4033290774849405
    One-Electron Energy =                -458.7664333764376465
    Two-Electron Energy =                 195.8574254598467235
    DFT Exchange-Correlation Energy =     -20.3073971049942088
    Empirical Dispersion Energy =           0.0000000000000000
    VV10 Nonlocal Energy =                  0.0000000000000000
    Total Energy =                       -157.8130759441001771

  UHF NO Occupations:
  HONO-2 :   15  A 1.9996019
  HONO-1 :   16  A 1.9989796
  HONO-0 :   17  A 1.0000000
  LUNO+0 :   18  A 0.0010204
  LUNO+1 :   19  A 0.0003981
  LUNO+2 :   20  A 0.0001975
  LUNO+3 :   21  A 0.0001975

Computation Completed

Properties will be evaluated at   0.000000,   0.000000,   0.000000 [a0]

Properties computed using the SCF density matrix

  Nuclear Dipole Moment: [e a0]
     X:     0.8175      Y:    -0.0000      Z:     0.0000

  Electronic Dipole Moment: [e a0]
     X:    -0.7395      Y:     0.0000      Z:    -0.0000

  Dipole Moment: [e a0]
     X:     0.0780      Y:     0.0000      Z:     0.0000     Total:     0.0780

  Dipole Moment: [D]
     X:     0.1983      Y:     0.0000      Z:     0.0000     Total:     0.1983

*** tstop() called on n073 at Fri Nov  5 13:39:03 2021
Module time:
	user time   =     569.87 seconds =       9.50 minutes
	system time =      12.93 seconds =       0.22 minutes
	total time  =        146 seconds =       2.43 minutes
Total time:
	user time   =     569.87 seconds =       9.50 minutes
	system time =      12.93 seconds =       0.22 minutes
	total time  =        146 seconds =       2.43 minutes
Grab this energy -157.81307594410018
    Psi4 stopped on: Friday, 05 November 2021 01:39PM
    Psi4 wall time for execution: 0:02:26.53

*** Psi4 exiting successfully. Buy a developer a beer!
