                               Psi4 1.4a2.dev629

  ==> Input File <==

--------------------------------------------------------------------------
import os
memory 14 GB

molecule {
 C   -0.3243649470    0.0002459908   -0.0000000000
 C    0.0606362751   -1.4010329903   -2.4263962655
 C    0.0588481450    2.8020388144    0.0000000000
 C    0.0606362751   -1.4010329903    2.4263962655
 H    2.0918692429   -1.6472260186   -2.8496442043
 H   -0.7647059440   -0.3883032993   -4.0218027103
 H   -0.7665347300   -3.2891382208   -2.3498411384
 H    2.0868578051    3.2824235705    0.0000000000
 H   -0.7682392840    3.6833341844    1.6742604815
 H   -0.7682392840    3.6833341844   -1.6742604815
 H    2.0918692429   -1.6472260186    2.8496442043
 H   -0.7665347300   -3.2891382208    2.3498411384
 H   -0.7647059440   -0.3883032993    4.0218027103
units bohr
0 2
}

basis {

assign 6-31g_2dfp_

[ 6-31g_2dfp_ ]

spherical

!----------------------------------------------------------------------
! Basis Set Exchange
! Version v0.8.13
! https://www.basissetexchange.org
!----------------------------------------------------------------------
!   Basis set: 6-31G(2df,p)
! Description: 6-31G(2df,p)
!        Role: orbital
!     Version: 0  (Data from the original Basis Set Exchange)
!----------------------------------------------------------------------

****
H     0
S    3   1.00
     18.7311370              0.03349460
      2.8253937              0.23472695
      0.6401217              0.81375733
S    1   1.00
      0.1612778              1.00000000
P    1   1.00
      1.5000000              1.0000000
P    1   1.00
      0.3750000              1.0000000
****
B     0
S    6   1.00
   2068.8823000              0.0018663
    310.6495700              0.0142515
     70.6830330              0.0695516
     19.8610800              0.2325729
      6.2993048              0.4670787
      2.1270270              0.3634314
SP   3   1.00
      4.7279710             -0.1303938              0.0745976
      1.1903377             -0.1307889              0.3078467
      0.3594117              1.1309444              0.7434568
SP   1   1.00
      0.1267512              1.0000000              1.0000000
D    1   1.00
      0.8020000              1.0000000
D    1   1.00
      0.2005000              1.0000000
F    1   1.00
      0.5000000              1.0000000
****
C     0
S    6   1.00
   3047.5249000              0.0018347
    457.3695100              0.0140373
    103.9486900              0.0688426
     29.2101550              0.2321844
      9.2866630              0.4679413
      3.1639270              0.3623120
SP   3   1.00
      7.8682724             -0.1193324              0.0689991
      1.8812885             -0.1608542              0.3164240
      0.5442493              1.1434564              0.7443083
SP   1   1.00
      0.1687144              1.0000000              1.0000000
D    1   1.00
      1.2520000              1.0000000
D    1   1.00
      0.3130000              1.0000000
F    1   1.00
      0.8000000              1.0000000
****
N     0
S    6   1.00
   4173.5110000              0.0018348
    627.4579000              0.0139950
    142.9021000              0.0685870
     40.2343300              0.2322410
     12.8202100              0.4690700
      4.3904370              0.3604550
SP   3   1.00
     11.6263580             -0.1149610              0.0675800
      2.7162800             -0.1691180              0.3239070
      0.7722180              1.1458520              0.7408950
SP   1   1.00
      0.2120313              1.0000000              1.0000000
D    1   1.00
      1.8260000              1.0000000
D    1   1.00
      0.4565000              1.0000000
F    1   1.00
      1.0000000              1.0000000
****
O     0
S    6   1.00
   5484.6717000              0.0018311
    825.2349500              0.0139501
    188.0469600              0.0684451
     52.9645000              0.2327143
     16.8975700              0.4701930
      5.7996353              0.3585209
SP   3   1.00
     15.5396160             -0.1107775              0.0708743
      3.5999336             -0.1480263              0.3397528
      1.0137618              1.1307670              0.7271586
SP   1   1.00
      0.2700058              1.0000000              1.0000000
D    1   1.00
      2.5840000              1.0000000
D    1   1.00
      0.6460000              1.0000000
F    1   1.00
      1.4000000              1.0000000
****
F     0
S    6   1.00
   7001.7130900              0.0018196169
   1051.3660900              0.0139160796
    239.2856900              0.0684053245
     67.3974453              0.233185760
     21.5199573              0.471267439
      7.40310130             0.356618546
SP   3   1.00
     20.8479528             -0.108506975            0.0716287243
      4.80830834            -0.146451658            0.3459121030
      1.34406986             1.128688580            0.7224699570
SP   1   1.00
      0.358151393            1.0000000              1.0000000
D    1   1.00
      3.5000000              1.0000000
D    1   1.00
      0.8750000              1.0000000
F    1   1.00
      1.8500000              1.0000000
****
Al     0
S    6   1.00
  13983.1000000              0.00194267
   2098.7500000              0.0148599
    477.7050000              0.0728494
    134.3600000              0.2468300
     42.8709000              0.4872580
     14.5189000              0.3234960
SP   6   1.00
    239.6680000             -0.00292619             0.00460285
     57.4419000             -0.0374080              0.0331990
     18.2859000             -0.1144870              0.1362820
      6.5991400              0.1156350              0.3304760
      2.4904900              0.6125950              0.4491460
      0.9445400              0.3937990              0.2657040
SP   3   1.00
      1.2779000             -0.2276060             -0.0175130
      0.3975900              0.00144583             0.2445330
      0.1600950              1.0927900              0.8049340
SP   1   1.00
      0.0556577              1.0000000              1.0000000
D    1   1.00
      0.6500000              1.0000000
D    1   1.00
      0.1625000              1.0000000
F    1   1.00
      0.2500000              1.0000000
****
Si     0
S    6   1.00
  16115.9000000              0.00195948
   2425.5800000              0.01492880
    553.8670000              0.07284780
    156.3400000              0.24613000
     50.0683000              0.48591400
     17.0178000              0.32500200
SP   6   1.00
    292.7180000             -0.00278094             0.00443826
     69.8731000             -0.03571460             0.03266790
     22.3363000             -0.11498500             0.13472100
      8.1503900              0.09356340             0.32867800
      3.1345800              0.60301700             0.44964000
      1.2254300              0.41895900             0.26137200
SP   3   1.00
      1.7273800             -0.24463000            -0.01779510
      0.5729220              0.00431572             0.25353900
      0.2221920              1.09818000             0.80066900
SP   1   1.00
      0.0778369              1.00000000             1.00000000
D    1   1.00
      0.9000000              1.0000000
D    1   1.00
      0.2250000              1.0000000
F    1   1.00
      0.3200000              1.0000000
****
P     0
S    6   1.00
  19413.3000000              0.0018516
   2909.4200000              0.0142062
    661.3640000              0.0699995
    185.7590000              0.2400790
     59.1943000              0.4847620
     20.0310000              0.3352000
SP   6   1.00
    339.4780000             -0.00278217             0.00456462
     81.0101000             -0.0360499              0.03369360
     25.8780000             -0.1166310              0.13975500
      9.4522100              0.0968328              0.33936200
      3.6656600              0.6144180              0.45092100
      1.4674600              0.4037980              0.23858600
SP   3   1.00
      2.1562300             -0.2529230             -0.01776530
      0.7489970              0.0328517              0.27405800
      0.2831450              1.0812500              0.78542100
SP   1   1.00
      0.0998317              1.0000000              1.00000000
D    1   1.00
      1.1000000              1.0000000
D    1   1.00
      0.2750000              1.0000000
F    1   1.00
      0.4500000              1.0000000
****
S     0
S    6   1.00
  21917.1000000              0.0018690
   3301.4900000              0.0142300
    754.1460000              0.0696960
    212.7110000              0.2384870
     67.9896000              0.4833070
     23.0515000              0.3380740
SP   6   1.00
    423.7350000             -0.0023767              0.0040610
    100.7100000             -0.0316930              0.0306810
     32.1599000             -0.1133170              0.1304520
     11.8079000              0.0560900              0.3272050
      4.6311000              0.5922550              0.4528510
      1.8702500              0.4550060              0.2560420
SP   3   1.00
      2.6158400             -0.2503740             -0.0145110
      0.9221670              0.0669570              0.3102630
      0.3412870              1.0545100              0.7544830
SP   1   1.00
      0.1171670              1.0000000              1.0000000
D    1   1.00
      1.3000000              1.0000000
D    1   1.00
      0.3250000              1.0000000
F    1   1.00
      0.5500000              1.0000000
****
Cl     0
S    6   1.00
  25180.1000000              0.0018330
   3780.3500000              0.0140340
    860.4740000              0.0690970
    242.1450000              0.2374520
     77.3349000              0.4830340
     26.2470000              0.3398560
SP   6   1.00
    491.7650000             -0.0022974              0.0039894
    116.9840000             -0.0307140              0.0303180
     37.4153000             -0.1125280              0.1298800
     13.7834000              0.0450160              0.3279510
      5.4521500              0.5893530              0.4535270
      2.2258800              0.4652060              0.2521540
SP   3   1.00
      3.1864900             -0.2518300             -0.0142990
      1.1442700              0.0615890              0.3235720
      0.4203770              1.0601800              0.7435070
SP   1   1.00
      0.1426570              1.0000000              1.0000000
D    1   1.00
      1.5000000              1.0000000
D    1   1.00
      0.3750000              1.0000000
F    1   1.00
      0.7000000              1.0000000
****
}

set {
reference uhf
freeze_core true
e_convergence 10
d_convergence 10
dft_spherical_points 1202
dft_radial_points 99
}

e = energy('b3lyp')

print_out('Grab this energy {0}'.format(e))
--------------------------------------------------------------------------

    Molecular point group: cs

    Geometry (in Bohr), charge = 0, multiplicity = 2:

       Center              X                  Y                   Z               Mass
    ------------   -----------------  -----------------  -----------------  -----------------
         C           -0.323555174899     0.000204272966     0.000000000000    12.000000000000
         C            0.061446047201    -1.401074708134    -2.426396265500    12.000000000000
         C            0.059657917101     2.801997096566     0.000000000000    12.000000000000
         C            0.061446047201    -1.401074708134     2.426396265500    12.000000000000
         H            2.092679015001    -1.647267736434    -2.849644204300     1.007825032230
         H           -0.763896171899    -0.388345017134    -4.021802710300     1.007825032230
         H           -0.765724957899    -3.289179938634    -2.349841138400     1.007825032230
         H            2.087667577201     3.282381852666     0.000000000000     1.007825032230
         H           -0.767429511899     3.683292466566     1.674260481500     1.007825032230
         H           -0.767429511899     3.683292466566    -1.674260481500     1.007825032230
         H            2.092679015001    -1.647267736434     2.849644204300     1.007825032230
         H           -0.765724957899    -3.289179938634     2.349841138400     1.007825032230
         H           -0.763896171899    -0.388345017134     4.021802710300     1.007825032230

  Charge       = 0
  Multiplicity = 2
  Basis Set: ANONYMOUS0E0CDDB5
    Blend: 6-31G_2DFP_
  Basis Set: (ANONYMOUS0E0CDDB5 AUX)
    Blend: DEF2-UNIVERSAL-JKFIT

    Orbital Energies [Eh]
    ---------------------

    Alpha Occupied:

       1Ap   -10.180401     2Ap   -10.167059     1App  -10.167016
       3Ap   -10.166979     4Ap    -0.797730     5Ap    -0.686212
       2App   -0.686154     6Ap    -0.530769     7Ap    -0.441027
       8Ap    -0.434803     3App   -0.434630     9Ap    -0.382685
       4App   -0.382236     5App   -0.363789    10Ap    -0.338206
       6App   -0.337900    11Ap    -0.168999

    Alpha Virtual:

      12Ap     0.076158     7App    0.134097    13Ap     0.134196
       8App    0.142494    14Ap     0.142910    15Ap     0.154713
       9App    0.178473    16Ap     0.178732    17Ap     0.203508
      10App    0.215076    11App    0.275939    18Ap     0.275983
      19Ap     0.398980    12App    0.399237    20Ap     0.403256
      21Ap     0.424184    13App    0.424388    22Ap     0.456519
      23Ap     0.495557    14App    0.495581    15App    0.512044
      24Ap     0.513828    25Ap     0.578510    16App    0.578766
      17App    0.591122    26Ap     0.591597    27Ap     0.601851
      28Ap     0.625275    18App    0.632135    19App    0.636426
      29Ap     0.636841    30Ap     0.662883    20App    0.662972
      31Ap     0.683988    21App    0.684218    32Ap     0.735055
      22App    0.825313    33Ap     0.825432    23App    0.853637
      24App    0.914483    34Ap     0.915120    25App    0.944396
      35Ap     0.944753    26App    0.961130    36Ap     0.961286
      37Ap     1.003264    38Ap     1.127945    27App    1.128775
      39Ap     1.141485    40Ap     1.163383    28App    1.163699
      41Ap     1.223739    42Ap     1.274139    29App    1.274350
      43Ap     1.279206    30App    1.324069    44Ap     1.324207
      45Ap     1.356492    31App    1.365960    46Ap     1.366000
      32App    1.392396    33App    1.402518    47Ap     1.403521
      34App    1.417747    48Ap     1.418422    35App    1.427713
      36App    1.491490    49Ap     1.498136    37App    1.542462
      50Ap     1.542480    38App    1.574336    51Ap     1.575301
      52Ap     1.671092    39App    1.738489    53Ap     1.738649
      54Ap     1.766472    55Ap     1.832371    40App    1.833223
      41App    1.972738    56Ap     2.018216    42App    2.018941
      57Ap     2.019112    43App    2.050956    58Ap     2.051858
      44App    2.738794    59Ap     2.738819    60Ap     2.790536
      45App    2.811884    61Ap     2.889386    46App    2.889746
      62Ap     2.894631    47App    2.929396    63Ap     2.930009
      48App    2.958859    64Ap     2.963769    49App    2.964158
      65Ap     3.033314    50App    3.070604    66Ap     3.071907
      51App    3.085759    67Ap     3.168428    52App    3.168891
      68Ap     3.180534    69Ap     3.285106    53App    3.285335
      70Ap     3.326915    54App    3.328678    71Ap     3.375784
      55App    3.488866    72Ap     3.491004    56App    3.512795
      73Ap     3.526539    74Ap     3.567904    57App    3.567912
      58App    3.574476    59App    3.665578    75Ap     3.666417
      76Ap     3.680265    60App    3.693658    77Ap     3.694966
      78Ap     3.777140    61App    3.777293    79Ap     3.788387
      80Ap     3.912661    62App    3.912923    81Ap     4.034870
      63App    4.111178    82Ap     4.111453    64App    4.147477
      83Ap     4.147523    84Ap     4.171470    85Ap     4.202385
      86Ap     4.203849    65App    4.204294    66App    4.209645
      67App    4.315323    87Ap     4.315741    68App    4.360216
      69App    4.423648    88Ap     4.423833    70App    4.443660
      71App    4.515593    89Ap     4.516752    72App    4.578972
      90Ap     4.578978    91Ap     4.617443    92Ap     4.708886
      73App    4.774138    93Ap     4.775332    74App    4.838268
      94Ap     4.963174    75App    5.001092    95Ap     5.002200
      96Ap     5.225352    76App    5.249256    97Ap     5.250368
      98Ap     5.353485    77App    5.353632    78App    5.481306

    Beta Occupied:

       1Ap   -10.167812     1App  -10.167772     2Ap   -10.167754
       3Ap   -10.166585     4Ap    -0.781062     5Ap    -0.684022
       2App   -0.683974     6Ap    -0.511789     7Ap    -0.431210
       3App   -0.431014     8Ap    -0.421666     9Ap    -0.376751
       4App   -0.376289     5App   -0.362783    10Ap    -0.333314
       6App   -0.333031

    Beta Virtual:

      11Ap    -0.025873    12Ap     0.077184     7App    0.135068
      13Ap     0.135149     8App    0.144359    14Ap     0.144734
      15Ap     0.163192     9App    0.182111    16Ap     0.182381
      10App    0.215298    17Ap     0.218888    11App    0.282286
      18Ap     0.282340    19Ap     0.400155    12App    0.400404
      20Ap     0.419799    21Ap     0.426993    13App    0.427200
      22Ap     0.468327    23Ap     0.497827    14App    0.497852
      15App    0.513786    24Ap     0.556134    25Ap     0.584083
      16App    0.584350    17App    0.597287    26Ap     0.597778
      27Ap     0.609391    28Ap     0.628527    18App    0.632301
      19App    0.639665    29Ap     0.640086    30Ap     0.666468
      20App    0.666574    31Ap     0.686627    21App    0.686825
      32Ap     0.757575    22App    0.830506    33Ap     0.830619
      23App    0.854998    24App    0.922497    34Ap     0.923085
      25App    0.946226    35Ap     0.953728    26App    0.966412
      36Ap     0.966546    37Ap     1.008464    38Ap     1.132054
      27App    1.132793    39Ap     1.154938    40Ap     1.168405
      28App    1.168781    41Ap     1.232695    42Ap     1.279728
      29App    1.279913    43Ap     1.284902    30App    1.329101
      44Ap     1.329247    45Ap     1.365873    31App    1.371294
      46Ap     1.371314    32App    1.393470    33App    1.405915
      47Ap     1.406937    34App    1.422751    48Ap     1.423433
      35App    1.428006    36App    1.492512    49Ap     1.508584
      50Ap     1.546823    37App    1.547004    38App    1.582098
      51Ap     1.583245    52Ap     1.675989    39App    1.744248
      53Ap     1.744404    54Ap     1.777239    55Ap     1.836233
      40App    1.837075    41App    1.973585    42App    2.025217
      56Ap     2.025350    57Ap     2.039580    43App    2.057785
      58Ap     2.058714    44App    2.747126    59Ap     2.747175
      45App    2.812299    60Ap     2.815634    61Ap     2.902049
      46App    2.902432    62Ap     2.924114    47App    2.931888
      63Ap     2.932482    48App    2.959923    64Ap     2.968279
      49App    2.968661    65Ap     3.041464    50App    3.080460
      66Ap     3.081846    51App    3.087574    67Ap     3.184198
      52App    3.184660    68Ap     3.188192    69Ap     3.289898
      53App    3.290203    70Ap     3.330695    54App    3.332435
      71Ap     3.383577    55App    3.491579    72Ap     3.493673
      56App    3.511159    73Ap     3.529570    57App    3.574066
      58App    3.581475    74Ap     3.581626    59App    3.670251
      75Ap     3.671064    76Ap     3.693528    60App    3.725527
      77Ap     3.726360    78Ap     3.781639    61App    3.781729
      79Ap     3.816942    80Ap     3.922527    62App    3.922803
      81Ap     4.045820    63App    4.118027    82Ap     4.118244
      64App    4.154591    83Ap     4.154808    84Ap     4.185552
      85Ap     4.209322    65App    4.210351    86Ap     4.210879
      66App    4.214239    67App    4.322729    87Ap     4.323089
      68App    4.363532    69App    4.431850    88Ap     4.432057
      70App    4.446492    71App    4.523423    89Ap     4.524571
      90Ap     4.589521    72App    4.589548    91Ap     4.624544
      92Ap     4.719346    73App    4.781012    93Ap     4.782267
      74App    4.841173    94Ap     4.967981    75App    5.005173
      95Ap     5.006250    96Ap     5.231032    76App    5.251028
      97Ap     5.252137    98Ap     5.359944    77App    5.360077
      78App    5.483615

    Final Occupation by Irrep:
             Ap   App
    DOCC [    10,    6 ]
    SOCC [     1,    0 ]

  @DF-UKS Final Energy:  -157.81305443942301

   => Energetics <=

    Nuclear Repulsion Energy =            125.3892918639710672
    One-Electron Energy =                -458.7381741925436245
    Two-Electron Energy =                 195.8428652147898390
    DFT Exchange-Correlation Energy =     -20.3070373256402803
    Empirical Dispersion Energy =           0.0000000000000000
    VV10 Nonlocal Energy =                  0.0000000000000000
    Total Energy =                       -157.8130544394230128

  UHF NO Occupations:
  HONO-2 :    9 Ap 1.9995985
  HONO-1 :   10 Ap 1.9989796
  HONO-0 :   11 Ap 1.0000000
  LUNO+0 :   12 Ap 0.0010204
  LUNO+1 :   13 Ap 0.0004015
  LUNO+2 :    7App 0.0001977
  LUNO+3 :   14 Ap 0.0001974

Computation Completed

Properties will be evaluated at   0.000000,   0.000000,   0.000000 [a0]

Properties computed using the SCF density matrix

  Nuclear Dipole Moment: [e a0]
     X:     0.8329      Y:    -0.0003      Z:     0.0000

  Electronic Dipole Moment: [e a0]
     X:    -0.7582      Y:     0.0011      Z:     0.0000

  Dipole Moment: [e a0]
     X:     0.0747      Y:     0.0008      Z:     0.0000     Total:     0.0747

  Dipole Moment: [D]
     X:     0.1899      Y:     0.0020      Z:     0.0000     Total:     0.1899

*** tstop() called on n032 at Fri Nov  5 14:50:30 2021
Module time:
	user time   =     632.72 seconds =      10.55 minutes
	system time =      12.17 seconds =       0.20 minutes
	total time  =        162 seconds =       2.70 minutes
Total time:
	user time   =     632.72 seconds =      10.55 minutes
	system time =      12.17 seconds =       0.20 minutes
	total time  =        162 seconds =       2.70 minutes
Grab this energy -157.813054439423
    Psi4 stopped on: Friday, 05 November 2021 02:50PM
    Psi4 wall time for execution: 0:02:42.17

*** Psi4 exiting successfully. Buy a developer a beer!
