                               Psi4 1.4a2.dev629

  ==> Input File <==

--------------------------------------------------------------------------
import os
memory 14 GB

molecule {
 C   -0.3243568519   -0.0050089502   -0.0000000000
 C    0.0597781238   -1.3982598855   -2.4326252899
 C    0.0605661550    2.7939925410    0.0000000000
 C    0.0597781238   -1.3982598855    2.4326252899
 H    2.0898573408   -1.6382282997   -2.8565818271
 H   -0.7692792441   -0.3816735411   -4.0259452591
 H   -0.7646674192   -3.2880884588   -2.3630831771
 H    2.0908908117    3.2793566502    0.0000000000
 H   -0.7655427970    3.6720679079    1.6739543697
 H   -0.7655427970    3.6720679079   -1.6739543697
 H    2.0898573408   -1.6382282997    2.8565818271
 H   -0.7646674192   -3.2880884588    2.3630831771
 H   -0.7692792441   -0.3816735411    4.0259452591
units bohr
0 2
}

basis {

assign 6-31g_2dfp_

[ 6-31g_2dfp_ ]

spherical

!----------------------------------------------------------------------
! Basis Set Exchange
! Version v0.8.13
! https://www.basissetexchange.org
!----------------------------------------------------------------------
!   Basis set: 6-31G(2df,p)
! Description: 6-31G(2df,p)
!        Role: orbital
!     Version: 0  (Data from the original Basis Set Exchange)
!----------------------------------------------------------------------

****
H     0
S    3   1.00
     18.7311370              0.03349460
      2.8253937              0.23472695
      0.6401217              0.81375733
S    1   1.00
      0.1612778              1.00000000
P    1   1.00
      1.5000000              1.0000000
P    1   1.00
      0.3750000              1.0000000
****
B     0
S    6   1.00
   2068.8823000              0.0018663
    310.6495700              0.0142515
     70.6830330              0.0695516
     19.8610800              0.2325729
      6.2993048              0.4670787
      2.1270270              0.3634314
SP   3   1.00
      4.7279710             -0.1303938              0.0745976
      1.1903377             -0.1307889              0.3078467
      0.3594117              1.1309444              0.7434568
SP   1   1.00
      0.1267512              1.0000000              1.0000000
D    1   1.00
      0.8020000              1.0000000
D    1   1.00
      0.2005000              1.0000000
F    1   1.00
      0.5000000              1.0000000
****
C     0
S    6   1.00
   3047.5249000              0.0018347
    457.3695100              0.0140373
    103.9486900              0.0688426
     29.2101550              0.2321844
      9.2866630              0.4679413
      3.1639270              0.3623120
SP   3   1.00
      7.8682724             -0.1193324              0.0689991
      1.8812885             -0.1608542              0.3164240
      0.5442493              1.1434564              0.7443083
SP   1   1.00
      0.1687144              1.0000000              1.0000000
D    1   1.00
      1.2520000              1.0000000
D    1   1.00
      0.3130000              1.0000000
F    1   1.00
      0.8000000              1.0000000
****
N     0
S    6   1.00
   4173.5110000              0.0018348
    627.4579000              0.0139950
    142.9021000              0.0685870
     40.2343300              0.2322410
     12.8202100              0.4690700
      4.3904370              0.3604550
SP   3   1.00
     11.6263580             -0.1149610              0.0675800
      2.7162800             -0.1691180              0.3239070
      0.7722180              1.1458520              0.7408950
SP   1   1.00
      0.2120313              1.0000000              1.0000000
D    1   1.00
      1.8260000              1.0000000
D    1   1.00
      0.4565000              1.0000000
F    1   1.00
      1.0000000              1.0000000
****
O     0
S    6   1.00
   5484.6717000              0.0018311
    825.2349500              0.0139501
    188.0469600              0.0684451
     52.9645000              0.2327143
     16.8975700              0.4701930
      5.7996353              0.3585209
SP   3   1.00
     15.5396160             -0.1107775              0.0708743
      3.5999336             -0.1480263              0.3397528
      1.0137618              1.1307670              0.7271586
SP   1   1.00
      0.2700058              1.0000000              1.0000000
D    1   1.00
      2.5840000              1.0000000
D    1   1.00
      0.6460000              1.0000000
F    1   1.00
      1.4000000              1.0000000
****
F     0
S    6   1.00
   7001.7130900              0.0018196169
   1051.3660900              0.0139160796
    239.2856900              0.0684053245
     67.3974453              0.233185760
     21.5199573              0.471267439
      7.40310130             0.356618546
SP   3   1.00
     20.8479528             -0.108506975            0.0716287243
      4.80830834            -0.146451658            0.3459121030
      1.34406986             1.128688580            0.7224699570
SP   1   1.00
      0.358151393            1.0000000              1.0000000
D    1   1.00
      3.5000000              1.0000000
D    1   1.00
      0.8750000              1.0000000
F    1   1.00
      1.8500000              1.0000000
****
Al     0
S    6   1.00
  13983.1000000              0.00194267
   2098.7500000              0.0148599
    477.7050000              0.0728494
    134.3600000              0.2468300
     42.8709000              0.4872580
     14.5189000              0.3234960
SP   6   1.00
    239.6680000             -0.00292619             0.00460285
     57.4419000             -0.0374080              0.0331990
     18.2859000             -0.1144870              0.1362820
      6.5991400              0.1156350              0.3304760
      2.4904900              0.6125950              0.4491460
      0.9445400              0.3937990              0.2657040
SP   3   1.00
      1.2779000             -0.2276060             -0.0175130
      0.3975900              0.00144583             0.2445330
      0.1600950              1.0927900              0.8049340
SP   1   1.00
      0.0556577              1.0000000              1.0000000
D    1   1.00
      0.6500000              1.0000000
D    1   1.00
      0.1625000              1.0000000
F    1   1.00
      0.2500000              1.0000000
****
Si     0
S    6   1.00
  16115.9000000              0.00195948
   2425.5800000              0.01492880
    553.8670000              0.07284780
    156.3400000              0.24613000
     50.0683000              0.48591400
     17.0178000              0.32500200
SP   6   1.00
    292.7180000             -0.00278094             0.00443826
     69.8731000             -0.03571460             0.03266790
     22.3363000             -0.11498500             0.13472100
      8.1503900              0.09356340             0.32867800
      3.1345800              0.60301700             0.44964000
      1.2254300              0.41895900             0.26137200
SP   3   1.00
      1.7273800             -0.24463000            -0.01779510
      0.5729220              0.00431572             0.25353900
      0.2221920              1.09818000             0.80066900
SP   1   1.00
      0.0778369              1.00000000             1.00000000
D    1   1.00
      0.9000000              1.0000000
D    1   1.00
      0.2250000              1.0000000
F    1   1.00
      0.3200000              1.0000000
****
P     0
S    6   1.00
  19413.3000000              0.0018516
   2909.4200000              0.0142062
    661.3640000              0.0699995
    185.7590000              0.2400790
     59.1943000              0.4847620
     20.0310000              0.3352000
SP   6   1.00
    339.4780000             -0.00278217             0.00456462
     81.0101000             -0.0360499              0.03369360
     25.8780000             -0.1166310              0.13975500
      9.4522100              0.0968328              0.33936200
      3.6656600              0.6144180              0.45092100
      1.4674600              0.4037980              0.23858600
SP   3   1.00
      2.1562300             -0.2529230             -0.01776530
      0.7489970              0.0328517              0.27405800
      0.2831450              1.0812500              0.78542100
SP   1   1.00
      0.0998317              1.0000000              1.00000000
D    1   1.00
      1.1000000              1.0000000
D    1   1.00
      0.2750000              1.0000000
F    1   1.00
      0.4500000              1.0000000
****
S     0
S    6   1.00
  21917.1000000              0.0018690
   3301.4900000              0.0142300
    754.1460000              0.0696960
    212.7110000              0.2384870
     67.9896000              0.4833070
     23.0515000              0.3380740
SP   6   1.00
    423.7350000             -0.0023767              0.0040610
    100.7100000             -0.0316930              0.0306810
     32.1599000             -0.1133170              0.1304520
     11.8079000              0.0560900              0.3272050
      4.6311000              0.5922550              0.4528510
      1.8702500              0.4550060              0.2560420
SP   3   1.00
      2.6158400             -0.2503740             -0.0145110
      0.9221670              0.0669570              0.3102630
      0.3412870              1.0545100              0.7544830
SP   1   1.00
      0.1171670              1.0000000              1.0000000
D    1   1.00
      1.3000000              1.0000000
D    1   1.00
      0.3250000              1.0000000
F    1   1.00
      0.5500000              1.0000000
****
Cl     0
S    6   1.00
  25180.1000000              0.0018330
   3780.3500000              0.0140340
    860.4740000              0.0690970
    242.1450000              0.2374520
     77.3349000              0.4830340
     26.2470000              0.3398560
SP   6   1.00
    491.7650000             -0.0022974              0.0039894
    116.9840000             -0.0307140              0.0303180
     37.4153000             -0.1125280              0.1298800
     13.7834000              0.0450160              0.3279510
      5.4521500              0.5893530              0.4535270
      2.2258800              0.4652060              0.2521540
SP   3   1.00
      3.1864900             -0.2518300             -0.0142990
      1.1442700              0.0615890              0.3235720
      0.4203770              1.0601800              0.7435070
SP   1   1.00
      0.1426570              1.0000000              1.0000000
D    1   1.00
      1.5000000              1.0000000
D    1   1.00
      0.3750000              1.0000000
F    1   1.00
      0.7000000              1.0000000
****
}

set {
reference uhf
freeze_core true
e_convergence 10
d_convergence 10
dft_spherical_points 1202
dft_radial_points 99
}

e = energy('b3lyp')

print_out('Grab this energy {0}'.format(e))
--------------------------------------------------------------------------

    Molecular point group: cs

    Geometry (in Bohr), charge = 0, multiplicity = 2:

       Center              X                  Y                   Z               Mass
    ------------   -----------------  -----------------  -----------------  -----------------
         C           -0.323548967836    -0.003556998255     0.000000000000    12.000000000000
         C            0.060586007864    -1.396807933555    -2.432625289900    12.000000000000
         C            0.061374039064     2.795444492945     0.000000000000    12.000000000000
         C            0.060586007864    -1.396807933555     2.432625289900    12.000000000000
         H            2.090665224864    -1.636776347755    -2.856581827100     1.007825032230
         H           -0.768471360036    -0.380221589155    -4.025945259100     1.007825032230
         H           -0.763859535136    -3.286636506855    -2.363083177100     1.007825032230
         H            2.091698695764     3.280808602145     0.000000000000     1.007825032230
         H           -0.764734912936     3.673519859845     1.673954369700     1.007825032230
         H           -0.764734912936     3.673519859845    -1.673954369700     1.007825032230
         H            2.090665224864    -1.636776347755     2.856581827100     1.007825032230
         H           -0.763859535136    -3.286636506855     2.363083177100     1.007825032230
         H           -0.768471360036    -0.380221589155     4.025945259100     1.007825032230

  Charge       = 0
  Multiplicity = 2
  Basis Set: ANONYMOUSAD55F899
    Blend: 6-31G_2DFP_
  Basis Set: (ANONYMOUSAD55F899 AUX)
    Blend: DEF2-UNIVERSAL-JKFIT

    Orbital Energies [Eh]
    ---------------------

    Alpha Occupied:

       1Ap   -10.180400     1App  -10.167189     2Ap   -10.167160
       3Ap   -10.166705     4Ap    -0.797732     2App   -0.686401
       5Ap    -0.685962     6Ap    -0.530770     7Ap    -0.441027
       3App   -0.434981     8Ap    -0.434451     4App   -0.382604
       9Ap    -0.382317     5App   -0.363789     6App   -0.338322
      10Ap    -0.337782    11Ap    -0.168999

    Alpha Virtual:

      12Ap     0.076157     7App    0.133911    13Ap     0.134383
       8App    0.142562    14Ap     0.142842    15Ap     0.154713
       9App    0.178384    16Ap     0.178827    17Ap     0.203502
      10App    0.215081    11App    0.275791    18Ap     0.276131
      12App    0.398971    19Ap     0.399179    20Ap     0.403328
      13App    0.424157    21Ap     0.424424    22Ap     0.456520
      14App    0.495165    23Ap     0.495965    15App    0.512054
      24Ap     0.513833    16App    0.578377    25Ap     0.578886
      17App    0.591368    26Ap     0.591379    27Ap     0.601822
      28Ap     0.625279    18App    0.632156    29Ap     0.636403
      19App    0.636841    20App    0.662709    30Ap     0.663146
      21App    0.683869    31Ap     0.684342    32Ap     0.735056
      22App    0.824546    33Ap     0.826188    23App    0.853636
      24App    0.914570    34Ap     0.915039    25App    0.944340
      35Ap     0.944652    36Ap     0.961053    26App    0.961548
      37Ap     1.003282    27App    1.127223    38Ap     1.129516
      39Ap     1.141496    28App    1.163055    40Ap     1.164010
      41Ap     1.223746    29App    1.273734    42Ap     1.274780
      43Ap     1.279192    44Ap     1.324060    30App    1.324216
      45Ap     1.356511    31App    1.365199    46Ap     1.366693
      32App    1.392368    33App    1.402271    47Ap     1.403855
      34App    1.417592    48Ap     1.418616    35App    1.427714
      36App    1.491423    49Ap     1.498139    37App    1.542143
      50Ap     1.542799    38App    1.573024    51Ap     1.576704
      52Ap     1.671083    39App    1.737521    53Ap     1.739592
      54Ap     1.766493    40App    1.832291    55Ap     1.833308
      41App    1.972740    42App    2.017529    56Ap     2.018186
      57Ap     2.020510    43App    2.048989    58Ap     2.053925
      44App    2.738543    59Ap     2.739064    60Ap     2.790530
      45App    2.811895    61Ap     2.889469    46App    2.889682
      62Ap     2.894602    47App    2.929526    63Ap     2.929875
      48App    2.958854    49App    2.963099    64Ap     2.964853
      65Ap     3.033322    50App    3.070219    66Ap     3.072268
      51App    3.085784    52App    3.167927    67Ap     3.169428
      68Ap     3.180514    69Ap     3.284498    53App    3.285928
      54App    3.326854    70Ap     3.328740    71Ap     3.375830
      55App    3.489386    72Ap     3.490411    56App    3.512825
      73Ap     3.526509    57App    3.566679    74Ap     3.569178
      58App    3.574521    59App    3.665912    75Ap     3.666115
      76Ap     3.680262    77Ap     3.693833    60App    3.694771
      78Ap     3.776284    61App    3.778066    79Ap     3.788508
      62App    3.911378    80Ap     3.914204    81Ap     4.034896
      63App    4.109953    82Ap     4.112708    64App    4.145861
      83Ap     4.149116    84Ap     4.171454    65App    4.202165
      85Ap     4.202691    86Ap     4.205615    66App    4.209766
      87Ap     4.315491    67App    4.315550    68App    4.360237
      69App    4.423492    88Ap     4.423854    70App    4.443784
      71App    4.515366    89Ap     4.517038    72App    4.577903
      90Ap     4.580024    91Ap     4.617397    92Ap     4.708928
      73App    4.773423    93Ap     4.776044    74App    4.838297
      94Ap     4.963170    75App    5.000649    95Ap     5.002655
      96Ap     5.225314    97Ap     5.249664    76App    5.249978
      77App    5.352848    98Ap     5.354254    78App    5.481290

    Beta Occupied:

       1App  -10.167943     1Ap   -10.167925     2Ap   -10.167472
       3Ap   -10.166583     4Ap    -0.781065     2App   -0.684220
       5Ap    -0.683773     6Ap    -0.511790     3App   -0.431384
       7Ap    -0.430839     8Ap    -0.421665     4App   -0.376674
       9Ap    -0.376367     5App   -0.362782     6App   -0.333445
      10Ap    -0.332897

    Beta Virtual:

      11Ap    -0.025873    12Ap     0.077183     7App    0.134861
      13Ap     0.135357     8App    0.144414    14Ap     0.144679
      15Ap     0.163192     9App    0.182017    16Ap     0.182479
      10App    0.215303    17Ap     0.218883    11App    0.282132
      18Ap     0.282496    12App    0.400166    19Ap     0.400387
      20Ap     0.419807    13App    0.426951    21Ap     0.427252
      22Ap     0.468331    14App    0.497430    23Ap     0.498243
      15App    0.513797    24Ap     0.556137    16App    0.583984
      25Ap     0.584437    17App    0.597525    26Ap     0.597561
      27Ap     0.609364    28Ap     0.628536    18App    0.632313
      29Ap     0.639633    19App    0.640105    20App    0.666275
      30Ap     0.666767    21App    0.686442    31Ap     0.687016
      32Ap     0.757574    22App    0.829724    33Ap     0.831388
      23App    0.854998    24App    0.922547    34Ap     0.923039
      25App    0.946191    35Ap     0.953613    36Ap     0.966297
      26App    0.966848    37Ap     1.008480    27App    1.131294
      38Ap     1.133577    39Ap     1.154948    28App    1.168071
      40Ap     1.169095    41Ap     1.232700    29App    1.279304
      42Ap     1.280360    43Ap     1.284888    44Ap     1.329079
      30App    1.329270    45Ap     1.365909    31App    1.370406
      46Ap     1.372109    32App    1.393447    33App    1.405711
      47Ap     1.407236    34App    1.422602    48Ap     1.423630
      35App    1.427994    36App    1.492449    49Ap     1.508590
      37App    1.546487    50Ap     1.547330    38App    1.581015
      51Ap     1.584424    52Ap     1.675980    39App    1.743281
      53Ap     1.745346    54Ap     1.777260    40App    1.836130
      55Ap     1.837182    41App    1.973589    42App    2.023718
      56Ap     2.026827    57Ap     2.039552    43App    2.055921
      58Ap     2.060679    44App    2.746842    59Ap     2.747455
      45App    2.812310    60Ap     2.815628    61Ap     2.902167
      46App    2.902308    62Ap     2.924108    47App    2.932100
      63Ap     2.932271    48App    2.959920    49App    2.967631
      64Ap     2.969331    65Ap     3.041472    50App    3.079933
      66Ap     3.082274    51App    3.087684    52App    3.183801
      67Ap     3.185068    68Ap     3.188182    69Ap     3.289400
      53App    3.290690    54App    3.330615    70Ap     3.332519
      71Ap     3.383621    55App    3.492075    72Ap     3.493095
      56App    3.511199    73Ap     3.529548    57App    3.573917
      58App    3.580650    74Ap     3.582683    59App    3.670548
      75Ap     3.670791    76Ap     3.693534    77Ap     3.725497
      60App    3.726350    78Ap     3.780811    61App    3.782544
      79Ap     3.816998    62App    3.921252    80Ap     3.924077
      81Ap     4.045846    63App    4.116777    82Ap     4.119520
      64App    4.153116    83Ap     4.156264    84Ap     4.185539
      65App    4.208170    85Ap     4.210575    86Ap     4.211724
      66App    4.214387    87Ap     4.322847    67App    4.322947
      68App    4.363555    69App    4.431691    88Ap     4.432041
      70App    4.446660    71App    4.523283    89Ap     4.524763
      72App    4.588384    90Ap     4.590663    91Ap     4.624498
      92Ap     4.719389    73App    4.780288    93Ap     4.782986
      74App    4.841204    94Ap     4.967976    75App    5.004715
      95Ap     5.006721    96Ap     5.230993    97Ap     5.251431
      76App    5.251754    77App    5.359283    98Ap     5.360725
      78App    5.483599

    Final Occupation by Irrep:
             Ap   App
    DOCC [    10,    6 ]
    SOCC [     1,    0 ]

  @DF-UKS Final Energy:  -157.81305183280818

   => Energetics <=

    Nuclear Repulsion Energy =            125.3895281275199665
    One-Electron Energy =                -458.7386440762591064
    Two-Electron Energy =                 195.8431037601176570
    DFT Exchange-Correlation Energy =     -20.3070396441866912
    Empirical Dispersion Energy =           0.0000000000000000
    VV10 Nonlocal Energy =                  0.0000000000000000
    Total Energy =                       -157.8130518328081848

  UHF NO Occupations:
  HONO-2 :    9 Ap 1.9995985
  HONO-1 :   10 Ap 1.9989796
  HONO-0 :   11 Ap 1.0000000
  LUNO+0 :   12 Ap 0.0010204
  LUNO+1 :   13 Ap 0.0004015
  LUNO+2 :   14 Ap 0.0001979
  LUNO+3 :    7App 0.0001972

Computation Completed

Properties will be evaluated at   0.000000,   0.000000,   0.000000 [a0]

Properties computed using the SCF density matrix

  Nuclear Dipole Moment: [e a0]
     X:     0.8329      Y:     0.0102      Z:     0.0000

  Electronic Dipole Moment: [e a0]
     X:    -0.7582      Y:    -0.0110      Z:     0.0000

  Dipole Moment: [e a0]
     X:     0.0747      Y:    -0.0007      Z:     0.0000     Total:     0.0747

  Dipole Moment: [D]
     X:     0.1899      Y:    -0.0019      Z:     0.0000     Total:     0.1899

*** tstop() called on n021 at Fri Nov  5 14:55:17 2021
Module time:
	user time   =     640.20 seconds =      10.67 minutes
	system time =      13.17 seconds =       0.22 minutes
	total time  =        164 seconds =       2.73 minutes
Total time:
	user time   =     640.20 seconds =      10.67 minutes
	system time =      13.17 seconds =       0.22 minutes
	total time  =        164 seconds =       2.73 minutes
Grab this energy -157.81305183280818
    Psi4 stopped on: Friday, 05 November 2021 02:55PM
    Psi4 wall time for execution: 0:02:44.29

*** Psi4 exiting successfully. Buy a developer a beer!
