                               Psi4 1.4a2.dev629

  ==> Input File <==

--------------------------------------------------------------------------
import os
memory 14 GB

molecule {
 C   -0.3233092171    0.0049904905    0.0000000000
 C    0.0615353110   -1.4039000105   -2.4208130307
 C    0.0605135327    2.8103260768   -0.0000000000
 C    0.0615353110   -1.4039000105    2.4208130307
 H    2.0841706323   -1.6503326383   -2.8389477757
 H   -0.7609723149   -0.3990132436   -4.0220011521
 H   -0.7658989549   -3.2912033531   -2.3370388528
 H    2.0828702264    3.2976155078   -0.0000000000
 H   -0.7651758828    3.6879710511    1.6739080713
 H   -0.7651758828    3.6879710510   -1.6739080713
 H    2.0841706323   -1.6503326383    2.8389477757
 H   -0.7658989549   -3.2912033531    2.3370388528
 H   -0.7609723149   -0.3990132436    4.0220011521
units bohr
0 2
}

basis {

assign 6-31g_2dfp_

[ 6-31g_2dfp_ ]

spherical

!----------------------------------------------------------------------
! Basis Set Exchange
! Version v0.8.13
! https://www.basissetexchange.org
!----------------------------------------------------------------------
!   Basis set: 6-31G(2df,p)
! Description: 6-31G(2df,p)
!        Role: orbital
!     Version: 0  (Data from the original Basis Set Exchange)
!----------------------------------------------------------------------

****
H     0
S    3   1.00
     18.7311370              0.03349460
      2.8253937              0.23472695
      0.6401217              0.81375733
S    1   1.00
      0.1612778              1.00000000
P    1   1.00
      1.5000000              1.0000000
P    1   1.00
      0.3750000              1.0000000
****
B     0
S    6   1.00
   2068.8823000              0.0018663
    310.6495700              0.0142515
     70.6830330              0.0695516
     19.8610800              0.2325729
      6.2993048              0.4670787
      2.1270270              0.3634314
SP   3   1.00
      4.7279710             -0.1303938              0.0745976
      1.1903377             -0.1307889              0.3078467
      0.3594117              1.1309444              0.7434568
SP   1   1.00
      0.1267512              1.0000000              1.0000000
D    1   1.00
      0.8020000              1.0000000
D    1   1.00
      0.2005000              1.0000000
F    1   1.00
      0.5000000              1.0000000
****
C     0
S    6   1.00
   3047.5249000              0.0018347
    457.3695100              0.0140373
    103.9486900              0.0688426
     29.2101550              0.2321844
      9.2866630              0.4679413
      3.1639270              0.3623120
SP   3   1.00
      7.8682724             -0.1193324              0.0689991
      1.8812885             -0.1608542              0.3164240
      0.5442493              1.1434564              0.7443083
SP   1   1.00
      0.1687144              1.0000000              1.0000000
D    1   1.00
      1.2520000              1.0000000
D    1   1.00
      0.3130000              1.0000000
F    1   1.00
      0.8000000              1.0000000
****
N     0
S    6   1.00
   4173.5110000              0.0018348
    627.4579000              0.0139950
    142.9021000              0.0685870
     40.2343300              0.2322410
     12.8202100              0.4690700
      4.3904370              0.3604550
SP   3   1.00
     11.6263580             -0.1149610              0.0675800
      2.7162800             -0.1691180              0.3239070
      0.7722180              1.1458520              0.7408950
SP   1   1.00
      0.2120313              1.0000000              1.0000000
D    1   1.00
      1.8260000              1.0000000
D    1   1.00
      0.4565000              1.0000000
F    1   1.00
      1.0000000              1.0000000
****
O     0
S    6   1.00
   5484.6717000              0.0018311
    825.2349500              0.0139501
    188.0469600              0.0684451
     52.9645000              0.2327143
     16.8975700              0.4701930
      5.7996353              0.3585209
SP   3   1.00
     15.5396160             -0.1107775              0.0708743
      3.5999336             -0.1480263              0.3397528
      1.0137618              1.1307670              0.7271586
SP   1   1.00
      0.2700058              1.0000000              1.0000000
D    1   1.00
      2.5840000              1.0000000
D    1   1.00
      0.6460000              1.0000000
F    1   1.00
      1.4000000              1.0000000
****
F     0
S    6   1.00
   7001.7130900              0.0018196169
   1051.3660900              0.0139160796
    239.2856900              0.0684053245
     67.3974453              0.233185760
     21.5199573              0.471267439
      7.40310130             0.356618546
SP   3   1.00
     20.8479528             -0.108506975            0.0716287243
      4.80830834            -0.146451658            0.3459121030
      1.34406986             1.128688580            0.7224699570
SP   1   1.00
      0.358151393            1.0000000              1.0000000
D    1   1.00
      3.5000000              1.0000000
D    1   1.00
      0.8750000              1.0000000
F    1   1.00
      1.8500000              1.0000000
****
Al     0
S    6   1.00
  13983.1000000              0.00194267
   2098.7500000              0.0148599
    477.7050000              0.0728494
    134.3600000              0.2468300
     42.8709000              0.4872580
     14.5189000              0.3234960
SP   6   1.00
    239.6680000             -0.00292619             0.00460285
     57.4419000             -0.0374080              0.0331990
     18.2859000             -0.1144870              0.1362820
      6.5991400              0.1156350              0.3304760
      2.4904900              0.6125950              0.4491460
      0.9445400              0.3937990              0.2657040
SP   3   1.00
      1.2779000             -0.2276060             -0.0175130
      0.3975900              0.00144583             0.2445330
      0.1600950              1.0927900              0.8049340
SP   1   1.00
      0.0556577              1.0000000              1.0000000
D    1   1.00
      0.6500000              1.0000000
D    1   1.00
      0.1625000              1.0000000
F    1   1.00
      0.2500000              1.0000000
****
Si     0
S    6   1.00
  16115.9000000              0.00195948
   2425.5800000              0.01492880
    553.8670000              0.07284780
    156.3400000              0.24613000
     50.0683000              0.48591400
     17.0178000              0.32500200
SP   6   1.00
    292.7180000             -0.00278094             0.00443826
     69.8731000             -0.03571460             0.03266790
     22.3363000             -0.11498500             0.13472100
      8.1503900              0.09356340             0.32867800
      3.1345800              0.60301700             0.44964000
      1.2254300              0.41895900             0.26137200
SP   3   1.00
      1.7273800             -0.24463000            -0.01779510
      0.5729220              0.00431572             0.25353900
      0.2221920              1.09818000             0.80066900
SP   1   1.00
      0.0778369              1.00000000             1.00000000
D    1   1.00
      0.9000000              1.0000000
D    1   1.00
      0.2250000              1.0000000
F    1   1.00
      0.3200000              1.0000000
****
P     0
S    6   1.00
  19413.3000000              0.0018516
   2909.4200000              0.0142062
    661.3640000              0.0699995
    185.7590000              0.2400790
     59.1943000              0.4847620
     20.0310000              0.3352000
SP   6   1.00
    339.4780000             -0.00278217             0.00456462
     81.0101000             -0.0360499              0.03369360
     25.8780000             -0.1166310              0.13975500
      9.4522100              0.0968328              0.33936200
      3.6656600              0.6144180              0.45092100
      1.4674600              0.4037980              0.23858600
SP   3   1.00
      2.1562300             -0.2529230             -0.01776530
      0.7489970              0.0328517              0.27405800
      0.2831450              1.0812500              0.78542100
SP   1   1.00
      0.0998317              1.0000000              1.00000000
D    1   1.00
      1.1000000              1.0000000
D    1   1.00
      0.2750000              1.0000000
F    1   1.00
      0.4500000              1.0000000
****
S     0
S    6   1.00
  21917.1000000              0.0018690
   3301.4900000              0.0142300
    754.1460000              0.0696960
    212.7110000              0.2384870
     67.9896000              0.4833070
     23.0515000              0.3380740
SP   6   1.00
    423.7350000             -0.0023767              0.0040610
    100.7100000             -0.0316930              0.0306810
     32.1599000             -0.1133170              0.1304520
     11.8079000              0.0560900              0.3272050
      4.6311000              0.5922550              0.4528510
      1.8702500              0.4550060              0.2560420
SP   3   1.00
      2.6158400             -0.2503740             -0.0145110
      0.9221670              0.0669570              0.3102630
      0.3412870              1.0545100              0.7544830
SP   1   1.00
      0.1171670              1.0000000              1.0000000
D    1   1.00
      1.3000000              1.0000000
D    1   1.00
      0.3250000              1.0000000
F    1   1.00
      0.5500000              1.0000000
****
Cl     0
S    6   1.00
  25180.1000000              0.0018330
   3780.3500000              0.0140340
    860.4740000              0.0690970
    242.1450000              0.2374520
     77.3349000              0.4830340
     26.2470000              0.3398560
SP   6   1.00
    491.7650000             -0.0022974              0.0039894
    116.9840000             -0.0307140              0.0303180
     37.4153000             -0.1125280              0.1298800
     13.7834000              0.0450160              0.3279510
      5.4521500              0.5893530              0.4535270
      2.2258800              0.4652060              0.2521540
SP   3   1.00
      3.1864900             -0.2518300             -0.0142990
      1.1442700              0.0615890              0.3235720
      0.4203770              1.0601800              0.7435070
SP   1   1.00
      0.1426570              1.0000000              1.0000000
D    1   1.00
      1.5000000              1.0000000
D    1   1.00
      0.3750000              1.0000000
F    1   1.00
      0.7000000              1.0000000
****
}

set {
reference uhf
freeze_core true
e_convergence 10
d_convergence 10
dft_spherical_points 1202
dft_radial_points 99
}

e = energy('b3lyp')

print_out('Grab this energy {0}'.format(e))
--------------------------------------------------------------------------

    Molecular point group: cs

    Geometry (in Bohr), charge = 0, multiplicity = 2:

       Center              X                  Y                   Z               Mass
    ------------   -----------------  -----------------  -----------------  -----------------
         C           -0.323369873433     0.003543178909     0.000000000000    12.000000000000
         C            0.061474654667    -1.405347322091    -2.420813030700    12.000000000000
         C            0.060452876367     2.808878765209     0.000000000000    12.000000000000
         C            0.061474654667    -1.405347322091     2.420813030700    12.000000000000
         H            2.084109975967    -1.651779949891    -2.838947775700     1.007825032230
         H           -0.761032971233    -0.400460555191    -4.022001152100     1.007825032230
         H           -0.765959611233    -3.292650664691    -2.337038852800     1.007825032230
         H            2.082809570067     3.296168196209     0.000000000000     1.007825032230
         H           -0.765236539133     3.686523739459     1.673908071300     1.007825032230
         H           -0.765236539133     3.686523739459    -1.673908071300     1.007825032230
         H            2.084109975967    -1.651779949891     2.838947775700     1.007825032230
         H           -0.765959611233    -3.292650664691     2.337038852800     1.007825032230
         H           -0.761032971233    -0.400460555191     4.022001152100     1.007825032230

  Charge       = 0
  Multiplicity = 2
  Basis Set: ANONYMOUS3343FE70
    Blend: 6-31G_2DFP_
  Basis Set: (ANONYMOUS3343FE70 AUX)
    Blend: DEF2-UNIVERSAL-JKFIT

    Orbital Energies [Eh]
    ---------------------

    Alpha Occupied:

       1Ap   -10.180274     2Ap   -10.166793     1App  -10.166338
       3Ap   -10.166307     4Ap    -0.797730     5Ap    -0.686767
       2App   -0.686325     6Ap    -0.531087     7Ap    -0.441227
       8Ap    -0.435075     3App   -0.434545     9Ap    -0.383003
       4App   -0.382711     5App   -0.363926    10Ap    -0.338280
       6App   -0.337727    11Ap    -0.168900

    Alpha Virtual:

      12Ap     0.076403    13Ap     0.134282     7App    0.134760
      14Ap     0.142899     8App    0.143177    15Ap     0.155179
      16Ap     0.179062     9App    0.179509    17Ap     0.203434
      10App    0.215262    18Ap     0.275840    11App    0.276178
      19Ap     0.398972    12App    0.399316    20Ap     0.403614
      21Ap     0.424241    13App    0.424511    22Ap     0.456727
      23Ap     0.495208    14App    0.496011    15App    0.512444
      24Ap     0.514119    25Ap     0.578882    16App    0.579400
      26Ap     0.592209    17App    0.592268    27Ap     0.603227
      28Ap     0.625748    18App    0.632471    19App    0.636594
      29Ap     0.637034    30Ap     0.663533    20App    0.663968
      31Ap     0.684167    21App    0.684650    32Ap     0.735303
      33Ap     0.825398    22App    0.827039    23App    0.854430
      34Ap     0.915493    24App    0.915988    25App    0.944676
      35Ap     0.945309    26App    0.961785    36Ap     0.962319
      37Ap     1.003570    38Ap     1.127371    27App    1.129710
      39Ap     1.143084    40Ap     1.163025    28App    1.164019
      41Ap     1.223775    42Ap     1.274508    29App    1.275557
      43Ap     1.278900    30App    1.324970    44Ap     1.325153
      45Ap     1.356850    46Ap     1.365841    31App    1.367208
      32App    1.393021    47Ap     1.404291    33App    1.405930
      48Ap     1.417563    34App    1.418532    35App    1.428680
      36App    1.492332    49Ap     1.500415    50Ap     1.542903
      37App    1.543738    51Ap     1.572825    38App    1.576573
      52Ap     1.671979    53Ap     1.739752    39App    1.741914
      54Ap     1.769878    55Ap     1.833390    40App    1.834405
      41App    1.973352    56Ap     2.018777    57Ap     2.019381
      42App    2.021684    58Ap     2.051213    43App    2.056327
      59Ap     2.739201    44App    2.739727    60Ap     2.791134
      45App    2.811954    46App    2.890413    61Ap     2.890601
      62Ap     2.895021    63Ap     2.929690    47App    2.930076
      48App    2.959618    64Ap     2.964145    49App    2.965963
      65Ap     3.034925    66Ap     3.071254    50App    3.073195
      51App    3.085313    67Ap     3.167344    52App    3.168954
      68Ap     3.180858    53App    3.284569    69Ap     3.285975
      70Ap     3.325710    54App    3.327618    71Ap     3.374963
      72Ap     3.488673    55App    3.489585    56App    3.513747
      73Ap     3.524688    74Ap     3.567498    57App    3.569387
      58App    3.573833    75Ap     3.666973    59App    3.667199
      76Ap     3.681463    60App    3.694528    77Ap     3.695397
      61App    3.776548    78Ap     3.778045    79Ap     3.789858
      80Ap     3.911735    62App    3.914599    81Ap     4.036808
      82Ap     4.112482    63App    4.115219    83Ap     4.149747
      64App    4.153104    84Ap     4.176218    85Ap     4.202863
      86Ap     4.204128    65App    4.206095    66App    4.214657
      67App    4.318194    87Ap     4.318217    68App    4.361418
      88Ap     4.426882    69App    4.427056    70App    4.445561
      89Ap     4.518411    71App    4.520148    90Ap     4.578671
      72App    4.580823    91Ap     4.618207    92Ap     4.711474
      93Ap     4.775115    73App    4.777633    74App    4.839262
      94Ap     4.963674    95Ap     5.003098    75App    5.005040
      96Ap     5.233317    76App    5.251957    97Ap     5.252279
      98Ap     5.359397    77App    5.360802    78App    5.482576

    Beta Occupied:

       1Ap   -10.167547     1App  -10.167089     2Ap   -10.167083
       3Ap   -10.166429     4Ap    -0.781083     5Ap    -0.684571
       2App   -0.684123     6Ap    -0.512001     7Ap    -0.431464
       3App   -0.430916     8Ap    -0.421959     9Ap    -0.377107
       4App   -0.376795     5App   -0.362913    10Ap    -0.333397
       6App   -0.332837

    Beta Virtual:

      11Ap    -0.025510    12Ap     0.077408    13Ap     0.135169
       7App    0.135669    14Ap     0.144748     8App    0.145014
      15Ap     0.163575    16Ap     0.182714     9App    0.183181
      10App    0.215489    17Ap     0.218836    18Ap     0.282186
      11App    0.282547    19Ap     0.400211    12App    0.400457
      20Ap     0.420020    21Ap     0.427039    13App    0.427339
      22Ap     0.468619    23Ap     0.497467    14App    0.498274
      15App    0.514174    24Ap     0.556519    25Ap     0.584479
      16App    0.584939    26Ap     0.598395    17App    0.598480
      27Ap     0.610634    28Ap     0.629118    18App    0.632623
      19App    0.639839    29Ap     0.640315    30Ap     0.667073
      20App    0.667563    31Ap     0.686716    21App    0.687302
      32Ap     0.757851    33Ap     0.830554    22App    0.832214
      23App    0.855759    34Ap     0.923436    24App    0.923958
      25App    0.946535    35Ap     0.954246    26App    0.967010
      36Ap     0.967687    37Ap     1.008819    38Ap     1.131396
      27App    1.133716    39Ap     1.156446    40Ap     1.168100
      28App    1.169155    41Ap     1.232728    42Ap     1.280091
      29App    1.281145    43Ap     1.284640    30App    1.329970
      44Ap     1.330185    45Ap     1.366290    46Ap     1.370980
      31App    1.372544    32App    1.394077    47Ap     1.407788
      33App    1.409365    48Ap     1.422610    34App    1.423576
      35App    1.428943    36App    1.493389    49Ap     1.510859
      50Ap     1.547069    37App    1.548126    51Ap     1.580961
      38App    1.584395    52Ap     1.676901    53Ap     1.745526
      39App    1.747678    54Ap     1.780598    55Ap     1.837198
      40App    1.838248    41App    1.974210    56Ap     2.025123
      42App    2.028131    57Ap     2.040699    58Ap     2.058026
      43App    2.062947    59Ap     2.747505    44App    2.748120
      45App    2.812369    60Ap     2.816295    46App    2.903177
      61Ap     2.903304    62Ap     2.924764    63Ap     2.932211
      47App    2.932420    48App    2.960689    64Ap     2.968763
      49App    2.970512    65Ap     3.042780    66Ap     3.081113
      50App    3.083114    51App    3.087307    67Ap     3.183161
      52App    3.184530    68Ap     3.188592    53App    3.289380
      69Ap     3.290658    70Ap     3.329516    54App    3.331438
      71Ap     3.382802    72Ap     3.491457    55App    3.492345
      56App    3.512128    73Ap     3.527758    57App    3.573177
      74Ap     3.580850    58App    3.583256    75Ap     3.671979
      59App    3.672262    76Ap     3.694822    60App    3.726030
      77Ap     3.726812    61App    3.781036    78Ap     3.782661
      79Ap     3.818347    80Ap     3.921538    62App    3.924403
      81Ap     4.047820    82Ap     4.119379    63App    4.122103
      83Ap     4.156983    64App    4.160222    84Ap     4.190133
      85Ap     4.208791    86Ap     4.212003    65App    4.212032
      66App    4.219125    67App    4.325533    87Ap     4.325594
      68App    4.364771    88Ap     4.435095    69App    4.435168
      70App    4.448478    89Ap     4.526288    71App    4.527823
      90Ap     4.589160    72App    4.591472    91Ap     4.625392
      92Ap     4.721814    93Ap     4.782029    73App    4.784617
      74App    4.842186    94Ap     4.968441    95Ap     5.007120
      75App    5.009059    96Ap     5.239006    76App    5.253731
      97Ap     5.254065    98Ap     5.365832    77App    5.367273
      78App    5.484885

    Final Occupation by Irrep:
             Ap   App
    DOCC [    10,    6 ]
    SOCC [     1,    0 ]

  @DF-UKS Final Energy:  -157.81301414337267

   => Energetics <=

    Nuclear Repulsion Energy =            125.4322843135469441
    One-Electron Energy =                -458.8202810653067445
    Two-Electron Energy =                 195.8861582808322623
    DFT Exchange-Correlation Energy =     -20.3111756724451133
    Empirical Dispersion Energy =           0.0000000000000000
    VV10 Nonlocal Energy =                  0.0000000000000000
    Total Energy =                       -157.8130141433726692

  UHF NO Occupations:
  HONO-2 :    9 Ap 1.9996034
  HONO-1 :   10 Ap 1.9989797
  HONO-0 :   11 Ap 1.0000000
  LUNO+0 :   12 Ap 0.0010203
  LUNO+1 :   13 Ap 0.0003966
  LUNO+2 :    7App 0.0001982
  LUNO+3 :   14 Ap 0.0001976

Computation Completed

Properties will be evaluated at   0.000000,   0.000000,   0.000000 [a0]

Properties computed using the SCF density matrix

  Nuclear Dipole Moment: [e a0]
     X:     0.8268      Y:    -0.0102      Z:     0.0000

  Electronic Dipole Moment: [e a0]
     X:    -0.7482      Y:     0.0110      Z:     0.0000

  Dipole Moment: [e a0]
     X:     0.0785      Y:     0.0008      Z:     0.0000     Total:     0.0786

  Dipole Moment: [D]
     X:     0.1996      Y:     0.0019      Z:     0.0000     Total:     0.1997

*** tstop() called on n031 at Fri Nov  5 15:03:01 2021
Module time:
	user time   =     811.56 seconds =      13.53 minutes
	system time =      15.96 seconds =       0.27 minutes
	total time  =        208 seconds =       3.47 minutes
Total time:
	user time   =     811.56 seconds =      13.53 minutes
	system time =      15.96 seconds =       0.27 minutes
	total time  =        208 seconds =       3.47 minutes
Grab this energy -157.81301414337267
    Psi4 stopped on: Friday, 05 November 2021 03:03PM
    Psi4 wall time for execution: 0:03:27.84

*** Psi4 exiting successfully. Buy a developer a beer!
