                               Psi4 1.4a2.dev629

  ==> Input File <==

--------------------------------------------------------------------------
import os
memory 14 GB

molecule {
 C   -0.3236395526   -0.0000017873   -0.0010235230
 C    0.0619275400   -1.4042111256   -2.4303514441
 C    0.0611582453    2.8072037641    0.0018049879
 C    0.0606305208   -1.4029871430    2.4318413753
 H    2.0871588228   -1.6471359848   -2.8533992473
 H   -0.7656816024   -0.3908512575   -4.0309230160
 H   -0.7659917348   -3.2951982182   -2.3542021774
 H    2.0870886449    3.2946950455   -0.0006967469
 H   -0.7659585217    3.6863428083    1.6766074926
 H   -0.7656643709    3.6861652115   -1.6771645042
 H    2.0873001122   -1.6476534786    2.8529021263
 H   -0.7654760011   -3.2954670951    2.3537830680
 H   -0.7654599791   -0.3909250530    4.0308216088
units bohr
0 2
}

basis {

assign 6-31g_2dfp_

[ 6-31g_2dfp_ ]

spherical

!----------------------------------------------------------------------
! Basis Set Exchange
! Version v0.8.13
! https://www.basissetexchange.org
!----------------------------------------------------------------------
!   Basis set: 6-31G(2df,p)
! Description: 6-31G(2df,p)
!        Role: orbital
!     Version: 0  (Data from the original Basis Set Exchange)
!----------------------------------------------------------------------

****
H     0
S    3   1.00
     18.7311370              0.03349460
      2.8253937              0.23472695
      0.6401217              0.81375733
S    1   1.00
      0.1612778              1.00000000
P    1   1.00
      1.5000000              1.0000000
P    1   1.00
      0.3750000              1.0000000
****
B     0
S    6   1.00
   2068.8823000              0.0018663
    310.6495700              0.0142515
     70.6830330              0.0695516
     19.8610800              0.2325729
      6.2993048              0.4670787
      2.1270270              0.3634314
SP   3   1.00
      4.7279710             -0.1303938              0.0745976
      1.1903377             -0.1307889              0.3078467
      0.3594117              1.1309444              0.7434568
SP   1   1.00
      0.1267512              1.0000000              1.0000000
D    1   1.00
      0.8020000              1.0000000
D    1   1.00
      0.2005000              1.0000000
F    1   1.00
      0.5000000              1.0000000
****
C     0
S    6   1.00
   3047.5249000              0.0018347
    457.3695100              0.0140373
    103.9486900              0.0688426
     29.2101550              0.2321844
      9.2866630              0.4679413
      3.1639270              0.3623120
SP   3   1.00
      7.8682724             -0.1193324              0.0689991
      1.8812885             -0.1608542              0.3164240
      0.5442493              1.1434564              0.7443083
SP   1   1.00
      0.1687144              1.0000000              1.0000000
D    1   1.00
      1.2520000              1.0000000
D    1   1.00
      0.3130000              1.0000000
F    1   1.00
      0.8000000              1.0000000
****
N     0
S    6   1.00
   4173.5110000              0.0018348
    627.4579000              0.0139950
    142.9021000              0.0685870
     40.2343300              0.2322410
     12.8202100              0.4690700
      4.3904370              0.3604550
SP   3   1.00
     11.6263580             -0.1149610              0.0675800
      2.7162800             -0.1691180              0.3239070
      0.7722180              1.1458520              0.7408950
SP   1   1.00
      0.2120313              1.0000000              1.0000000
D    1   1.00
      1.8260000              1.0000000
D    1   1.00
      0.4565000              1.0000000
F    1   1.00
      1.0000000              1.0000000
****
O     0
S    6   1.00
   5484.6717000              0.0018311
    825.2349500              0.0139501
    188.0469600              0.0684451
     52.9645000              0.2327143
     16.8975700              0.4701930
      5.7996353              0.3585209
SP   3   1.00
     15.5396160             -0.1107775              0.0708743
      3.5999336             -0.1480263              0.3397528
      1.0137618              1.1307670              0.7271586
SP   1   1.00
      0.2700058              1.0000000              1.0000000
D    1   1.00
      2.5840000              1.0000000
D    1   1.00
      0.6460000              1.0000000
F    1   1.00
      1.4000000              1.0000000
****
F     0
S    6   1.00
   7001.7130900              0.0018196169
   1051.3660900              0.0139160796
    239.2856900              0.0684053245
     67.3974453              0.233185760
     21.5199573              0.471267439
      7.40310130             0.356618546
SP   3   1.00
     20.8479528             -0.108506975            0.0716287243
      4.80830834            -0.146451658            0.3459121030
      1.34406986             1.128688580            0.7224699570
SP   1   1.00
      0.358151393            1.0000000              1.0000000
D    1   1.00
      3.5000000              1.0000000
D    1   1.00
      0.8750000              1.0000000
F    1   1.00
      1.8500000              1.0000000
****
Al     0
S    6   1.00
  13983.1000000              0.00194267
   2098.7500000              0.0148599
    477.7050000              0.0728494
    134.3600000              0.2468300
     42.8709000              0.4872580
     14.5189000              0.3234960
SP   6   1.00
    239.6680000             -0.00292619             0.00460285
     57.4419000             -0.0374080              0.0331990
     18.2859000             -0.1144870              0.1362820
      6.5991400              0.1156350              0.3304760
      2.4904900              0.6125950              0.4491460
      0.9445400              0.3937990              0.2657040
SP   3   1.00
      1.2779000             -0.2276060             -0.0175130
      0.3975900              0.00144583             0.2445330
      0.1600950              1.0927900              0.8049340
SP   1   1.00
      0.0556577              1.0000000              1.0000000
D    1   1.00
      0.6500000              1.0000000
D    1   1.00
      0.1625000              1.0000000
F    1   1.00
      0.2500000              1.0000000
****
Si     0
S    6   1.00
  16115.9000000              0.00195948
   2425.5800000              0.01492880
    553.8670000              0.07284780
    156.3400000              0.24613000
     50.0683000              0.48591400
     17.0178000              0.32500200
SP   6   1.00
    292.7180000             -0.00278094             0.00443826
     69.8731000             -0.03571460             0.03266790
     22.3363000             -0.11498500             0.13472100
      8.1503900              0.09356340             0.32867800
      3.1345800              0.60301700             0.44964000
      1.2254300              0.41895900             0.26137200
SP   3   1.00
      1.7273800             -0.24463000            -0.01779510
      0.5729220              0.00431572             0.25353900
      0.2221920              1.09818000             0.80066900
SP   1   1.00
      0.0778369              1.00000000             1.00000000
D    1   1.00
      0.9000000              1.0000000
D    1   1.00
      0.2250000              1.0000000
F    1   1.00
      0.3200000              1.0000000
****
P     0
S    6   1.00
  19413.3000000              0.0018516
   2909.4200000              0.0142062
    661.3640000              0.0699995
    185.7590000              0.2400790
     59.1943000              0.4847620
     20.0310000              0.3352000
SP   6   1.00
    339.4780000             -0.00278217             0.00456462
     81.0101000             -0.0360499              0.03369360
     25.8780000             -0.1166310              0.13975500
      9.4522100              0.0968328              0.33936200
      3.6656600              0.6144180              0.45092100
      1.4674600              0.4037980              0.23858600
SP   3   1.00
      2.1562300             -0.2529230             -0.01776530
      0.7489970              0.0328517              0.27405800
      0.2831450              1.0812500              0.78542100
SP   1   1.00
      0.0998317              1.0000000              1.00000000
D    1   1.00
      1.1000000              1.0000000
D    1   1.00
      0.2750000              1.0000000
F    1   1.00
      0.4500000              1.0000000
****
S     0
S    6   1.00
  21917.1000000              0.0018690
   3301.4900000              0.0142300
    754.1460000              0.0696960
    212.7110000              0.2384870
     67.9896000              0.4833070
     23.0515000              0.3380740
SP   6   1.00
    423.7350000             -0.0023767              0.0040610
    100.7100000             -0.0316930              0.0306810
     32.1599000             -0.1133170              0.1304520
     11.8079000              0.0560900              0.3272050
      4.6311000              0.5922550              0.4528510
      1.8702500              0.4550060              0.2560420
SP   3   1.00
      2.6158400             -0.2503740             -0.0145110
      0.9221670              0.0669570              0.3102630
      0.3412870              1.0545100              0.7544830
SP   1   1.00
      0.1171670              1.0000000              1.0000000
D    1   1.00
      1.3000000              1.0000000
D    1   1.00
      0.3250000              1.0000000
F    1   1.00
      0.5500000              1.0000000
****
Cl     0
S    6   1.00
  25180.1000000              0.0018330
   3780.3500000              0.0140340
    860.4740000              0.0690970
    242.1450000              0.2374520
     77.3349000              0.4830340
     26.2470000              0.3398560
SP   6   1.00
    491.7650000             -0.0022974              0.0039894
    116.9840000             -0.0307140              0.0303180
     37.4153000             -0.1125280              0.1298800
     13.7834000              0.0450160              0.3279510
      5.4521500              0.5893530              0.4535270
      2.2258800              0.4652060              0.2521540
SP   3   1.00
      3.1864900             -0.2518300             -0.0142990
      1.1442700              0.0615890              0.3235720
      0.4203770              1.0601800              0.7435070
SP   1   1.00
      0.1426570              1.0000000              1.0000000
D    1   1.00
      1.5000000              1.0000000
D    1   1.00
      0.3750000              1.0000000
F    1   1.00
      0.7000000              1.0000000
****
}

set {
reference uhf
freeze_core true
e_convergence 10
d_convergence 10
dft_spherical_points 1202
dft_radial_points 99
}

e = energy('b3lyp')

print_out('Grab this energy {0}'.format(e))
--------------------------------------------------------------------------

    Molecular point group: c1

    Geometry (in Bohr), charge = 0, multiplicity = 2:

       Center              X                  Y                   Z               Mass
    ------------   -----------------  -----------------  -----------------  -----------------
         C           -0.323662037248    -0.000002072163    -0.001461010249    12.000000000000
         C            0.061905055352    -1.404211410463    -2.430788931349    12.000000000000
         C            0.061135760652     2.807203479237     0.001367500651    12.000000000000
         C            0.060608036152    -1.402987427863     2.431403888051    12.000000000000
         H            2.087136338152    -1.647136269663    -2.853836734549     1.007825032230
         H           -0.765704087048    -0.390851542363    -4.031360503249     1.007825032230
         H           -0.766014219448    -3.295198503063    -2.354639664649     1.007825032230
         H            2.087066160252     3.294694760637    -0.001134234149     1.007825032230
         H           -0.765981006348     3.686342523437     1.676170005351     1.007825032230
         H           -0.765686855548     3.686164926637    -1.677601991449     1.007825032230
         H            2.087277627552    -1.647653763463     2.852464639051     1.007825032230
         H           -0.765498485748    -3.295467379963     2.353345580751     1.007825032230
         H           -0.765482463748    -0.390925337863     4.030384121551     1.007825032230

  Charge       = 0
  Multiplicity = 2
  Basis Set: ANONYMOUS78326A25
    Blend: 6-31G_2DFP_
  Basis Set: (ANONYMOUS78326A25 AUX)
    Blend: DEF2-UNIVERSAL-JKFIT

    Orbital Energies [Eh]
    ---------------------

    Alpha Occupied:

       1A    -10.181113     2A    -10.167411     3A    -10.167381
       4A    -10.167336     5A     -0.796721     6A     -0.685966
       7A     -0.685808     8A     -0.530778     9A     -0.440532
      10A     -0.434200    11A     -0.434183    12A     -0.382563
      13A     -0.382487    14A     -0.363727    15A     -0.338104
      16A     -0.337518    17A     -0.169285

    Alpha Virtual:

      18A      0.076102    19A      0.134078    20A      0.134152
      21A      0.142361    22A      0.142491    23A      0.154818
      24A      0.178553    25A      0.178652    26A      0.202437
      27A      0.214458    28A      0.275327    29A      0.275580
      30A      0.399139    31A      0.399359    32A      0.403546
      33A      0.424376    34A      0.424390    35A      0.456030
      36A      0.495128    37A      0.495200    38A      0.511826
      39A      0.513570    40A      0.578078    41A      0.578163
      42A      0.591071    43A      0.591109    44A      0.602123
      45A      0.624353    46A      0.631415    47A      0.635451
      48A      0.635460    49A      0.662844    50A      0.663018
      51A      0.683403    52A      0.683422    53A      0.735194
      54A      0.825557    55A      0.825566    56A      0.852911
      57A      0.914195    58A      0.914406    59A      0.942802
      60A      0.945183    61A      0.960272    62A      0.960398
      63A      1.002334    64A      1.127200    65A      1.127239
      66A      1.141871    67A      1.162468    68A      1.162516
      69A      1.222435    70A      1.273399    71A      1.273767
      72A      1.278837    73A      1.323967    74A      1.324076
      75A      1.355822    76A      1.363994    77A      1.364469
      78A      1.390923    79A      1.404097    80A      1.404553
      81A      1.416480    82A      1.417034    83A      1.426489
      84A      1.490298    85A      1.498510    86A      1.541919
      87A      1.542262    88A      1.572968    89A      1.573598
      90A      1.669888    91A      1.738672    92A      1.738884
      93A      1.766825    94A      1.830126    95A      1.830271
      96A      1.970354    97A      2.015953    98A      2.017541
      99A      2.018384   100A      2.047595   101A      2.048777
     102A      2.737832   103A      2.737933   104A      2.789761
     105A      2.808705   106A      2.888114   107A      2.889461
     108A      2.893415   109A      2.929167   110A      2.929489
     111A      2.958756   112A      2.964387   113A      2.964973
     114A      3.034038   115A      3.070210   116A      3.070484
     117A      3.082781   118A      3.167804   119A      3.168040
     120A      3.178753   121A      3.284571   122A      3.285004
     123A      3.326697   124A      3.326787   125A      3.376977
     126A      3.488319   127A      3.488393   128A      3.513234
     129A      3.522978   130A      3.568369   131A      3.568561
     132A      3.573034   133A      3.666218   134A      3.666610
     135A      3.677766   136A      3.692672   137A      3.692725
     138A      3.772324   139A      3.772353   140A      3.788413
     141A      3.909782   142A      3.910485   143A      4.032624
     144A      4.108255   145A      4.108703   146A      4.147234
     147A      4.147621   148A      4.172036   149A      4.200680
     150A      4.200754   151A      4.201283   152A      4.209233
     153A      4.313641   154A      4.315208   155A      4.356478
     156A      4.421827   157A      4.422940   158A      4.441048
     159A      4.513674   160A      4.514053   161A      4.574432
     162A      4.575013   163A      4.610237   164A      4.704692
     165A      4.768017   166A      4.768312   167A      4.832954
     168A      4.959846   169A      5.001055   170A      5.001616
     171A      5.227018   172A      5.245166   173A      5.245649
     174A      5.352887   175A      5.352926   176A      5.473652

    Beta Occupied:

       1A    -10.168165     2A    -10.168137     3A    -10.168106
       4A    -10.167260     5A     -0.780069     6A     -0.683787
       7A     -0.683634     8A     -0.511648     9A     -0.430597
      10A     -0.430567    11A     -0.421324    12A     -0.376693
      13A     -0.376602    14A     -0.362722    15A     -0.333222
      16A     -0.332637

    Beta Virtual:

      17A     -0.025774    18A      0.077099    19A      0.134962
      20A      0.135061    21A      0.144221    22A      0.144315
      23A      0.163233    24A      0.182210    25A      0.182285
      26A      0.214680    27A      0.217999    28A      0.281758
      29A      0.281984    30A      0.400275    31A      0.400496
      32A      0.420089    33A      0.427196    34A      0.427212
      35A      0.467584    36A      0.497377    37A      0.497444
      38A      0.513546    39A      0.555986    40A      0.583622
      41A      0.583708    42A      0.597300    43A      0.597357
      44A      0.609510    45A      0.627670    46A      0.631564
      47A      0.638661    48A      0.638672    49A      0.666444
      50A      0.666627    51A      0.685957    52A      0.685981
      53A      0.757895    54A      0.830711    55A      0.830714
      56A      0.854227    57A      0.922153    58A      0.922365
      59A      0.944635    60A      0.954202    61A      0.965562
      62A      0.965670    63A      1.007653    64A      1.131239
      65A      1.131258    66A      1.155230    67A      1.167531
      68A      1.167602    69A      1.231267    70A      1.278931
      71A      1.279351    72A      1.284658    73A      1.328948
      74A      1.329079    75A      1.365210    76A      1.369217
      77A      1.369745    78A      1.391973    79A      1.407584
      80A      1.408064    81A      1.421495    82A      1.422001
      83A      1.426728    84A      1.491347    85A      1.508890
      86A      1.546370    87A      1.546739    88A      1.580778
      89A      1.581394    90A      1.674727    91A      1.744432
      92A      1.744642    93A      1.777580    94A      1.833966
      95A      1.834106    96A      1.971210    97A      2.023914
      98A      2.024736    99A      2.037323   100A      2.054257
     101A      2.055485   102A      2.746268   103A      2.746358
     104A      2.809112   105A      2.814916   106A      2.901026
     107A      2.902357   108A      2.923058   109A      2.931463
     110A      2.931840   111A      2.959808   112A      2.968885
     113A      2.969447   114A      3.041885   115A      3.080027
     116A      3.080315   117A      3.084579   118A      3.183616
     119A      3.183900   120A      3.186533   121A      3.289224
     122A      3.289597   123A      3.330563   124A      3.330680
     125A      3.384813   126A      3.491050   127A      3.491155
     128A      3.511607   129A      3.526076   130A      3.572860
     131A      3.581738   132A      3.581848   133A      3.670972
     134A      3.671575   135A      3.691065   136A      3.724335
     137A      3.724681   138A      3.776770   139A      3.776880
     140A      3.817091   141A      3.919571   142A      3.920316
     143A      4.043580   144A      4.115341   145A      4.115794
     146A      4.154293   147A      4.154612   148A      4.185983
     149A      4.206648   150A      4.206710   151A      4.209143
     152A      4.213631   153A      4.321017   154A      4.322650
     155A      4.359861   156A      4.429933   157A      4.431043
     158A      4.443926   159A      4.521352   160A      4.521702
     161A      4.585036   162A      4.585572   163A      4.617445
     164A      4.714955   165A      4.774987   166A      4.775243
     167A      4.835872   168A      4.964618   169A      5.005054
     170A      5.005617   171A      5.232694   172A      5.246947
     173A      5.247414   174A      5.359295   175A      5.359371
     176A      5.475951

    Final Occupation by Irrep:
              A
    DOCC [    16 ]
    SOCC [     1 ]

  @DF-UKS Final Energy:  -157.81307157362713

   => Energetics <=

    Nuclear Repulsion Energy =            125.2136558801637563
    One-Electron Energy =                -458.3925859947365780
    Two-Electron Energy =                 195.6692089338926905
    DFT Exchange-Correlation Energy =     -20.3033503929469887
    Empirical Dispersion Energy =           0.0000000000000000
    VV10 Nonlocal Energy =                  0.0000000000000000
    Total Energy =                       -157.8130715736271270

  UHF NO Occupations:
  HONO-2 :   15  A 1.9996026
  HONO-1 :   16  A 1.9989734
  HONO-0 :   17  A 1.0000000
  LUNO+0 :   18  A 0.0010266
  LUNO+1 :   19  A 0.0003974
  LUNO+2 :   20  A 0.0002002
  LUNO+3 :   21  A 0.0001993

Computation Completed

Properties will be evaluated at   0.000000,   0.000000,   0.000000 [a0]

Properties computed using the SCF density matrix

  Nuclear Dipole Moment: [e a0]
     X:     0.8270      Y:    -0.0000      Z:    -0.0031

  Electronic Dipole Moment: [e a0]
     X:    -0.7483      Y:     0.0000      Z:     0.0030

  Dipole Moment: [e a0]
     X:     0.0788      Y:     0.0000      Z:    -0.0001     Total:     0.0788

  Dipole Moment: [D]
     X:     0.2002      Y:     0.0000      Z:    -0.0001     Total:     0.2002

*** tstop() called on n049 at Fri Nov  5 12:11:37 2021
Module time:
	user time   =     543.57 seconds =       9.06 minutes
	system time =      12.06 seconds =       0.20 minutes
	total time  =        140 seconds =       2.33 minutes
Total time:
	user time   =     543.57 seconds =       9.06 minutes
	system time =      12.06 seconds =       0.20 minutes
	total time  =        140 seconds =       2.33 minutes
Grab this energy -157.81307157362713
    Psi4 stopped on: Friday, 05 November 2021 12:11PM
    Psi4 wall time for execution: 0:02:19.84

*** Psi4 exiting successfully. Buy a developer a beer!
