                               Psi4 1.4a2.dev629

  ==> Input File <==

--------------------------------------------------------------------------
import os
memory 14 GB

molecule {
 C   -0.3233383848   -0.0002593849   -0.0053453115
 C    0.0599875011   -1.3998473206   -2.4270386460
 C    0.0630710740    2.8017470411   -0.0011062661
 C    0.0602426878   -1.4007538135    2.4263977635
 H    2.0872444017   -1.6444451330   -2.8466357060
 H   -0.7655732346   -0.3877257572   -4.0244960371
 H   -0.7646637103   -3.2926606878   -2.3482336494
 H    2.0865962116    3.2881056059    0.0009993871
 H   -0.7654538605    3.6810885917    1.6770252629
 H   -0.7671246193    3.6793747622   -1.6755540412
 H    2.0868325710   -1.6440977274    2.8480376933
 H   -0.7655975203   -3.2917288743    2.3494401585
 H   -0.7648309940   -0.3888216158    4.0265093919
units bohr
0 2
}

basis {

assign 6-31g_2dfp_

[ 6-31g_2dfp_ ]

spherical

!----------------------------------------------------------------------
! Basis Set Exchange
! Version v0.8.13
! https://www.basissetexchange.org
!----------------------------------------------------------------------
!   Basis set: 6-31G(2df,p)
! Description: 6-31G(2df,p)
!        Role: orbital
!     Version: 0  (Data from the original Basis Set Exchange)
!----------------------------------------------------------------------

****
H     0
S    3   1.00
     18.7311370              0.03349460
      2.8253937              0.23472695
      0.6401217              0.81375733
S    1   1.00
      0.1612778              1.00000000
P    1   1.00
      1.5000000              1.0000000
P    1   1.00
      0.3750000              1.0000000
****
B     0
S    6   1.00
   2068.8823000              0.0018663
    310.6495700              0.0142515
     70.6830330              0.0695516
     19.8610800              0.2325729
      6.2993048              0.4670787
      2.1270270              0.3634314
SP   3   1.00
      4.7279710             -0.1303938              0.0745976
      1.1903377             -0.1307889              0.3078467
      0.3594117              1.1309444              0.7434568
SP   1   1.00
      0.1267512              1.0000000              1.0000000
D    1   1.00
      0.8020000              1.0000000
D    1   1.00
      0.2005000              1.0000000
F    1   1.00
      0.5000000              1.0000000
****
C     0
S    6   1.00
   3047.5249000              0.0018347
    457.3695100              0.0140373
    103.9486900              0.0688426
     29.2101550              0.2321844
      9.2866630              0.4679413
      3.1639270              0.3623120
SP   3   1.00
      7.8682724             -0.1193324              0.0689991
      1.8812885             -0.1608542              0.3164240
      0.5442493              1.1434564              0.7443083
SP   1   1.00
      0.1687144              1.0000000              1.0000000
D    1   1.00
      1.2520000              1.0000000
D    1   1.00
      0.3130000              1.0000000
F    1   1.00
      0.8000000              1.0000000
****
N     0
S    6   1.00
   4173.5110000              0.0018348
    627.4579000              0.0139950
    142.9021000              0.0685870
     40.2343300              0.2322410
     12.8202100              0.4690700
      4.3904370              0.3604550
SP   3   1.00
     11.6263580             -0.1149610              0.0675800
      2.7162800             -0.1691180              0.3239070
      0.7722180              1.1458520              0.7408950
SP   1   1.00
      0.2120313              1.0000000              1.0000000
D    1   1.00
      1.8260000              1.0000000
D    1   1.00
      0.4565000              1.0000000
F    1   1.00
      1.0000000              1.0000000
****
O     0
S    6   1.00
   5484.6717000              0.0018311
    825.2349500              0.0139501
    188.0469600              0.0684451
     52.9645000              0.2327143
     16.8975700              0.4701930
      5.7996353              0.3585209
SP   3   1.00
     15.5396160             -0.1107775              0.0708743
      3.5999336             -0.1480263              0.3397528
      1.0137618              1.1307670              0.7271586
SP   1   1.00
      0.2700058              1.0000000              1.0000000
D    1   1.00
      2.5840000              1.0000000
D    1   1.00
      0.6460000              1.0000000
F    1   1.00
      1.4000000              1.0000000
****
F     0
S    6   1.00
   7001.7130900              0.0018196169
   1051.3660900              0.0139160796
    239.2856900              0.0684053245
     67.3974453              0.233185760
     21.5199573              0.471267439
      7.40310130             0.356618546
SP   3   1.00
     20.8479528             -0.108506975            0.0716287243
      4.80830834            -0.146451658            0.3459121030
      1.34406986             1.128688580            0.7224699570
SP   1   1.00
      0.358151393            1.0000000              1.0000000
D    1   1.00
      3.5000000              1.0000000
D    1   1.00
      0.8750000              1.0000000
F    1   1.00
      1.8500000              1.0000000
****
Al     0
S    6   1.00
  13983.1000000              0.00194267
   2098.7500000              0.0148599
    477.7050000              0.0728494
    134.3600000              0.2468300
     42.8709000              0.4872580
     14.5189000              0.3234960
SP   6   1.00
    239.6680000             -0.00292619             0.00460285
     57.4419000             -0.0374080              0.0331990
     18.2859000             -0.1144870              0.1362820
      6.5991400              0.1156350              0.3304760
      2.4904900              0.6125950              0.4491460
      0.9445400              0.3937990              0.2657040
SP   3   1.00
      1.2779000             -0.2276060             -0.0175130
      0.3975900              0.00144583             0.2445330
      0.1600950              1.0927900              0.8049340
SP   1   1.00
      0.0556577              1.0000000              1.0000000
D    1   1.00
      0.6500000              1.0000000
D    1   1.00
      0.1625000              1.0000000
F    1   1.00
      0.2500000              1.0000000
****
Si     0
S    6   1.00
  16115.9000000              0.00195948
   2425.5800000              0.01492880
    553.8670000              0.07284780
    156.3400000              0.24613000
     50.0683000              0.48591400
     17.0178000              0.32500200
SP   6   1.00
    292.7180000             -0.00278094             0.00443826
     69.8731000             -0.03571460             0.03266790
     22.3363000             -0.11498500             0.13472100
      8.1503900              0.09356340             0.32867800
      3.1345800              0.60301700             0.44964000
      1.2254300              0.41895900             0.26137200
SP   3   1.00
      1.7273800             -0.24463000            -0.01779510
      0.5729220              0.00431572             0.25353900
      0.2221920              1.09818000             0.80066900
SP   1   1.00
      0.0778369              1.00000000             1.00000000
D    1   1.00
      0.9000000              1.0000000
D    1   1.00
      0.2250000              1.0000000
F    1   1.00
      0.3200000              1.0000000
****
P     0
S    6   1.00
  19413.3000000              0.0018516
   2909.4200000              0.0142062
    661.3640000              0.0699995
    185.7590000              0.2400790
     59.1943000              0.4847620
     20.0310000              0.3352000
SP   6   1.00
    339.4780000             -0.00278217             0.00456462
     81.0101000             -0.0360499              0.03369360
     25.8780000             -0.1166310              0.13975500
      9.4522100              0.0968328              0.33936200
      3.6656600              0.6144180              0.45092100
      1.4674600              0.4037980              0.23858600
SP   3   1.00
      2.1562300             -0.2529230             -0.01776530
      0.7489970              0.0328517              0.27405800
      0.2831450              1.0812500              0.78542100
SP   1   1.00
      0.0998317              1.0000000              1.00000000
D    1   1.00
      1.1000000              1.0000000
D    1   1.00
      0.2750000              1.0000000
F    1   1.00
      0.4500000              1.0000000
****
S     0
S    6   1.00
  21917.1000000              0.0018690
   3301.4900000              0.0142300
    754.1460000              0.0696960
    212.7110000              0.2384870
     67.9896000              0.4833070
     23.0515000              0.3380740
SP   6   1.00
    423.7350000             -0.0023767              0.0040610
    100.7100000             -0.0316930              0.0306810
     32.1599000             -0.1133170              0.1304520
     11.8079000              0.0560900              0.3272050
      4.6311000              0.5922550              0.4528510
      1.8702500              0.4550060              0.2560420
SP   3   1.00
      2.6158400             -0.2503740             -0.0145110
      0.9221670              0.0669570              0.3102630
      0.3412870              1.0545100              0.7544830
SP   1   1.00
      0.1171670              1.0000000              1.0000000
D    1   1.00
      1.3000000              1.0000000
D    1   1.00
      0.3250000              1.0000000
F    1   1.00
      0.5500000              1.0000000
****
Cl     0
S    6   1.00
  25180.1000000              0.0018330
   3780.3500000              0.0140340
    860.4740000              0.0690970
    242.1450000              0.2374520
     77.3349000              0.4830340
     26.2470000              0.3398560
SP   6   1.00
    491.7650000             -0.0022974              0.0039894
    116.9840000             -0.0307140              0.0303180
     37.4153000             -0.1125280              0.1298800
     13.7834000              0.0450160              0.3279510
      5.4521500              0.5893530              0.4535270
      2.2258800              0.4652060              0.2521540
SP   3   1.00
      3.1864900             -0.2518300             -0.0142990
      1.1442700              0.0615890              0.3235720
      0.4203770              1.0601800              0.7435070
SP   1   1.00
      0.1426570              1.0000000              1.0000000
D    1   1.00
      1.5000000              1.0000000
D    1   1.00
      0.3750000              1.0000000
F    1   1.00
      0.7000000              1.0000000
****
}

set {
reference uhf
freeze_core true
e_convergence 10
d_convergence 10
dft_spherical_points 1202
dft_radial_points 99
}

e = energy('b3lyp')

print_out('Grab this energy {0}'.format(e))
--------------------------------------------------------------------------

    Molecular point group: c1

    Geometry (in Bohr), charge = 0, multiplicity = 2:

       Center              X                  Y                   Z               Mass
    ------------   -----------------  -----------------  -----------------  -----------------
         C           -0.323338936225    -0.000429706080    -0.003979252599    12.000000000000
         C            0.059986949675    -1.400017641780    -2.425672587099    12.000000000000
         C            0.063070522575     2.801576719920     0.000259792801    12.000000000000
         C            0.060242136375    -1.400924134680     2.427763822401    12.000000000000
         H            2.087243850275    -1.644615454180    -2.845269647099     1.007825032230
         H           -0.765573786025    -0.387896078380    -4.023129978199     1.007825032230
         H           -0.764664261725    -3.292831008980    -2.346867590499     1.007825032230
         H            2.086595660175     3.287935284720     0.002365446001     1.007825032230
         H           -0.765454411925     3.680918270520     1.678391321801     1.007825032230
         H           -0.767125170725     3.679204441020    -1.674187982299     1.007825032230
         H            2.086832019575    -1.644268048580     2.849403752201     1.007825032230
         H           -0.765598071725    -3.291899195480     2.350806217401     1.007825032230
         H           -0.764831545425    -0.388991936980     4.027875450801     1.007825032230

  Charge       = 0
  Multiplicity = 2
  Basis Set: ANONYMOUS172C9715
    Blend: 6-31G_2DFP_
  Basis Set: (ANONYMOUS172C9715 AUX)
    Blend: DEF2-UNIVERSAL-JKFIT

    Orbital Energies [Eh]
    ---------------------

    Alpha Occupied:

       1A    -10.180341     2A    -10.167065     3A    -10.167010
       4A    -10.166969     5A     -0.797769     6A     -0.686378
       7A     -0.685995     8A     -0.530775     9A     -0.441133
      10A     -0.434903    11A     -0.434433    12A     -0.382793
      13A     -0.382408    14A     -0.363609    15A     -0.338525
      16A     -0.337470    17A     -0.168960

    Alpha Virtual:

      18A      0.076072    19A      0.134120    20A      0.134191
      21A      0.142440    22A      0.142813    23A      0.154880
      24A      0.178665    25A      0.178892    26A      0.203544
      27A      0.214802    28A      0.275691    29A      0.276278
      30A      0.399023    31A      0.399432    32A      0.403348
      33A      0.424049    34A      0.424145    35A      0.456593
      36A      0.495333    37A      0.495445    38A      0.512160
      39A      0.513977    40A      0.578604    41A      0.579025
      42A      0.591522    43A      0.591760    44A      0.602575
      45A      0.624750    46A      0.631773    47A      0.636076
      48A      0.636434    49A      0.663232    50A      0.663596
      51A      0.683695    52A      0.684009    53A      0.734994
      54A      0.825298    55A      0.825515    56A      0.853916
      57A      0.914906    58A      0.915138    59A      0.944126
      60A      0.944619    61A      0.961097    62A      0.961486
      63A      1.003453    64A      1.127819    65A      1.128359
      66A      1.142262    67A      1.162874    68A      1.163662
      69A      1.223327    70A      1.274001    71A      1.274981
      72A      1.279353    73A      1.324082    74A      1.324630
      75A      1.355987    76A      1.365650    77A      1.366464
      78A      1.392439    79A      1.403927    80A      1.404171
      81A      1.416677    82A      1.417553    83A      1.427925
      84A      1.491490    85A      1.499080    86A      1.542785
      87A      1.542874    88A      1.574293    89A      1.574604
      90A      1.669825    91A      1.738979    92A      1.739861
      93A      1.768321    94A      1.831067    95A      1.831715
      96A      1.971733    97A      2.018205    98A      2.018267
      99A      2.019925   100A      2.051998   101A      2.053295
     102A      2.738241   103A      2.738729   104A      2.790927
     105A      2.811423   106A      2.889327   107A      2.890574
     108A      2.894939   109A      2.929104   110A      2.929891
     111A      2.958992   112A      2.964194   113A      2.964562
     114A      3.034001   115A      3.070771   116A      3.071803
     117A      3.084356   118A      3.168600   119A      3.168910
     120A      3.180656   121A      3.285012   122A      3.285613
     123A      3.326747   124A      3.327566   125A      3.375606
     126A      3.489544   127A      3.490753   128A      3.514027
     129A      3.525334   130A      3.568128   131A      3.568646
     132A      3.575146   133A      3.665961   134A      3.666813
     135A      3.679657   136A      3.694093   137A      3.694136
     138A      3.776057   139A      3.777525   140A      3.789171
     141A      3.911753   142A      3.912695   143A      4.034436
     144A      4.111037   145A      4.111697   146A      4.147134
     147A      4.149108   148A      4.173259   149A      4.202173
     150A      4.202784   151A      4.203820   152A      4.210879
     153A      4.315240   154A      4.316686   155A      4.358990
     156A      4.424301   157A      4.424590   158A      4.443430
     159A      4.515781   160A      4.517910   161A      4.577964
     162A      4.578289   163A      4.617837   164A      4.709459
     165A      4.773855   166A      4.775356   167A      4.836899
     168A      4.962823   169A      5.002453   170A      5.003490
     171A      5.228051   172A      5.246784   173A      5.246852
     174A      5.354884   175A      5.356130   176A      5.479348

    Beta Occupied:

       1A    -10.167819     2A    -10.167767     3A    -10.167737
       4A    -10.166519     5A     -0.781094     6A     -0.684169
       7A     -0.683809     8A     -0.511747     9A     -0.431283
      10A     -0.430807    11A     -0.421818    12A     -0.376864
      13A     -0.376507    14A     -0.362592    15A     -0.333658
      16A     -0.332584

    Beta Virtual:

      17A     -0.025742    18A      0.077081    19A      0.135020
      20A      0.135070    21A      0.144322    22A      0.144673
      23A      0.163338    24A      0.182333    25A      0.182567
      26A      0.215032    27A      0.218926    28A      0.282073
      29A      0.282591    30A      0.400196    31A      0.400601
      32A      0.419791    33A      0.426857    34A      0.426959
      35A      0.468500    36A      0.497593    37A      0.497706
      38A      0.513896    39A      0.556320    40A      0.584136
      41A      0.584597    42A      0.597696    43A      0.597944
      44A      0.609999    45A      0.628124    46A      0.631929
      47A      0.639351    48A      0.639733    49A      0.666813
      50A      0.667143    51A      0.686328    52A      0.686647
      53A      0.757517    54A      0.830471    55A      0.830680
      56A      0.855269    57A      0.922851    58A      0.923135
      59A      0.945963    60A      0.953548    61A      0.966393
      62A      0.966802    63A      1.008693    64A      1.131862
      65A      1.132391    66A      1.155623    67A      1.167960
      68A      1.168721    69A      1.232299    70A      1.279651
      71A      1.280528    72A      1.285105    73A      1.329065
      74A      1.329625    75A      1.365401    76A      1.370924
      77A      1.371678    78A      1.393498    79A      1.407353
      80A      1.407672    81A      1.421742    82A      1.422586
      83A      1.428198    84A      1.492538    85A      1.509523
      86A      1.547210    87A      1.547266    88A      1.582220
      89A      1.582420    90A      1.674672    91A      1.744745
      92A      1.745620    93A      1.779100    94A      1.834911
      95A      1.835582    96A      1.972592    97A      2.024601
      98A      2.026288    99A      2.039683   100A      2.058742
     101A      2.059986   102A      2.746548   103A      2.747094
     104A      2.811836   105A      2.816062   106A      2.902097
     107A      2.903181   108A      2.924646   109A      2.931532
     110A      2.932427   111A      2.960056   112A      2.968742
     113A      2.969101   114A      3.041936   115A      3.080751
     116A      3.081631   117A      3.086182   118A      3.184251
     119A      3.184643   120A      3.188456   121A      3.289852
     122A      3.290370   123A      3.330544   124A      3.331379
     125A      3.383425   126A      3.492264   127A      3.493487
     128A      3.512396   129A      3.528380   130A      3.574994
     131A      3.581537   132A      3.581933   133A      3.670801
     134A      3.671459   135A      3.692953   136A      3.725527
     137A      3.725972   138A      3.780600   139A      3.782058
     140A      3.817683   141A      3.921571   142A      3.922517
     143A      4.045323   144A      4.117909   145A      4.118459
     146A      4.154363   147A      4.156294   148A      4.187319
     149A      4.208496   150A      4.209220   151A      4.210897
     152A      4.215358   153A      4.322612   154A      4.324193
     155A      4.362356   156A      4.432524   157A      4.432790
     158A      4.446320   159A      4.523567   160A      4.525704
     161A      4.588562   162A      4.588870   163A      4.625052
     164A      4.719806   165A      4.780793   166A      4.782326
     167A      4.839816   168A      4.967616   169A      5.006517
     170A      5.007506   171A      5.233766   172A      5.248572
     173A      5.248632   174A      5.361341   175A      5.362634
     176A      5.481670

    Final Occupation by Irrep:
              A
    DOCC [    16 ]
    SOCC [     1 ]

  @DF-UKS Final Energy:  -157.81306318760497

   => Energetics <=

    Nuclear Repulsion Energy =            125.3946871762972393
    One-Electron Energy =                -458.7490204346365772
    Two-Electron Energy =                 195.8484158722005759
    DFT Exchange-Correlation Energy =     -20.3071458014661879
    Empirical Dispersion Energy =           0.0000000000000000
    VV10 Nonlocal Energy =                  0.0000000000000000
    Total Energy =                       -157.8130631876049677

  UHF NO Occupations:
  HONO-2 :   15  A 1.9996008
  HONO-1 :   16  A 1.9989805
  HONO-0 :   17  A 1.0000000
  LUNO+0 :   18  A 0.0010195
  LUNO+1 :   19  A 0.0003992
  LUNO+2 :   20  A 0.0001986
  LUNO+3 :   21  A 0.0001965

Computation Completed

Properties will be evaluated at   0.000000,   0.000000,   0.000000 [a0]

Properties computed using the SCF density matrix

  Nuclear Dipole Moment: [e a0]
     X:     0.8272      Y:    -0.0012      Z:     0.0096

  Electronic Dipole Moment: [e a0]
     X:    -0.7493      Y:     0.0011      Z:    -0.0108

  Dipole Moment: [e a0]
     X:     0.0779      Y:    -0.0001      Z:    -0.0012     Total:     0.0779

  Dipole Moment: [D]
     X:     0.1980      Y:    -0.0003      Z:    -0.0031     Total:     0.1981

*** tstop() called on n080 at Fri Nov  5 12:30:23 2021
Module time:
	user time   =     497.42 seconds =       8.29 minutes
	system time =       4.64 seconds =       0.08 minutes
	total time  =        126 seconds =       2.10 minutes
Total time:
	user time   =     497.42 seconds =       8.29 minutes
	system time =       4.64 seconds =       0.08 minutes
	total time  =        126 seconds =       2.10 minutes
Grab this energy -157.81306318760497
    Psi4 stopped on: Friday, 05 November 2021 12:30PM
    Psi4 wall time for execution: 0:02:06.25

*** Psi4 exiting successfully. Buy a developer a beer!
