                               Psi4 1.4a2.dev629

  ==> Input File <==

--------------------------------------------------------------------------
import os
memory 14 GB

molecule {
 C   -0.3233403944   -0.0002581632   -0.0000000000
 C    0.0601150624   -1.4003029943   -2.4267167621
 C    0.0630715046    2.8017511329    0.0000000000
 C    0.0601150624   -1.4003029943    2.4267167621
 H    2.0870389754   -1.6442728962   -2.8473350994
 H   -0.7652029236   -0.3882765689   -4.0255014864
 H   -0.7651300790   -3.2921978969   -2.3488356178
 H    2.0865979618    3.2881087653   -0.0000000000
 H   -0.7662895096    3.6802373321    1.6762892333
 H   -0.7662895096    3.6802373321   -1.6762892333
 H    2.0870389754   -1.6442728962    2.8473350994
 H   -0.7651300790   -3.2921978969    2.3488356178
 H   -0.7652029236   -0.3882765689    4.0255014864
units bohr
0 2
}

basis {

assign 6-31g_2dfp_

[ 6-31g_2dfp_ ]

spherical

!----------------------------------------------------------------------
! Basis Set Exchange
! Version v0.8.13
! https://www.basissetexchange.org
!----------------------------------------------------------------------
!   Basis set: 6-31G(2df,p)
! Description: 6-31G(2df,p)
!        Role: orbital
!     Version: 0  (Data from the original Basis Set Exchange)
!----------------------------------------------------------------------

****
H     0
S    3   1.00
     18.7311370              0.03349460
      2.8253937              0.23472695
      0.6401217              0.81375733
S    1   1.00
      0.1612778              1.00000000
P    1   1.00
      1.5000000              1.0000000
P    1   1.00
      0.3750000              1.0000000
****
B     0
S    6   1.00
   2068.8823000              0.0018663
    310.6495700              0.0142515
     70.6830330              0.0695516
     19.8610800              0.2325729
      6.2993048              0.4670787
      2.1270270              0.3634314
SP   3   1.00
      4.7279710             -0.1303938              0.0745976
      1.1903377             -0.1307889              0.3078467
      0.3594117              1.1309444              0.7434568
SP   1   1.00
      0.1267512              1.0000000              1.0000000
D    1   1.00
      0.8020000              1.0000000
D    1   1.00
      0.2005000              1.0000000
F    1   1.00
      0.5000000              1.0000000
****
C     0
S    6   1.00
   3047.5249000              0.0018347
    457.3695100              0.0140373
    103.9486900              0.0688426
     29.2101550              0.2321844
      9.2866630              0.4679413
      3.1639270              0.3623120
SP   3   1.00
      7.8682724             -0.1193324              0.0689991
      1.8812885             -0.1608542              0.3164240
      0.5442493              1.1434564              0.7443083
SP   1   1.00
      0.1687144              1.0000000              1.0000000
D    1   1.00
      1.2520000              1.0000000
D    1   1.00
      0.3130000              1.0000000
F    1   1.00
      0.8000000              1.0000000
****
N     0
S    6   1.00
   4173.5110000              0.0018348
    627.4579000              0.0139950
    142.9021000              0.0685870
     40.2343300              0.2322410
     12.8202100              0.4690700
      4.3904370              0.3604550
SP   3   1.00
     11.6263580             -0.1149610              0.0675800
      2.7162800             -0.1691180              0.3239070
      0.7722180              1.1458520              0.7408950
SP   1   1.00
      0.2120313              1.0000000              1.0000000
D    1   1.00
      1.8260000              1.0000000
D    1   1.00
      0.4565000              1.0000000
F    1   1.00
      1.0000000              1.0000000
****
O     0
S    6   1.00
   5484.6717000              0.0018311
    825.2349500              0.0139501
    188.0469600              0.0684451
     52.9645000              0.2327143
     16.8975700              0.4701930
      5.7996353              0.3585209
SP   3   1.00
     15.5396160             -0.1107775              0.0708743
      3.5999336             -0.1480263              0.3397528
      1.0137618              1.1307670              0.7271586
SP   1   1.00
      0.2700058              1.0000000              1.0000000
D    1   1.00
      2.5840000              1.0000000
D    1   1.00
      0.6460000              1.0000000
F    1   1.00
      1.4000000              1.0000000
****
F     0
S    6   1.00
   7001.7130900              0.0018196169
   1051.3660900              0.0139160796
    239.2856900              0.0684053245
     67.3974453              0.233185760
     21.5199573              0.471267439
      7.40310130             0.356618546
SP   3   1.00
     20.8479528             -0.108506975            0.0716287243
      4.80830834            -0.146451658            0.3459121030
      1.34406986             1.128688580            0.7224699570
SP   1   1.00
      0.358151393            1.0000000              1.0000000
D    1   1.00
      3.5000000              1.0000000
D    1   1.00
      0.8750000              1.0000000
F    1   1.00
      1.8500000              1.0000000
****
Al     0
S    6   1.00
  13983.1000000              0.00194267
   2098.7500000              0.0148599
    477.7050000              0.0728494
    134.3600000              0.2468300
     42.8709000              0.4872580
     14.5189000              0.3234960
SP   6   1.00
    239.6680000             -0.00292619             0.00460285
     57.4419000             -0.0374080              0.0331990
     18.2859000             -0.1144870              0.1362820
      6.5991400              0.1156350              0.3304760
      2.4904900              0.6125950              0.4491460
      0.9445400              0.3937990              0.2657040
SP   3   1.00
      1.2779000             -0.2276060             -0.0175130
      0.3975900              0.00144583             0.2445330
      0.1600950              1.0927900              0.8049340
SP   1   1.00
      0.0556577              1.0000000              1.0000000
D    1   1.00
      0.6500000              1.0000000
D    1   1.00
      0.1625000              1.0000000
F    1   1.00
      0.2500000              1.0000000
****
Si     0
S    6   1.00
  16115.9000000              0.00195948
   2425.5800000              0.01492880
    553.8670000              0.07284780
    156.3400000              0.24613000
     50.0683000              0.48591400
     17.0178000              0.32500200
SP   6   1.00
    292.7180000             -0.00278094             0.00443826
     69.8731000             -0.03571460             0.03266790
     22.3363000             -0.11498500             0.13472100
      8.1503900              0.09356340             0.32867800
      3.1345800              0.60301700             0.44964000
      1.2254300              0.41895900             0.26137200
SP   3   1.00
      1.7273800             -0.24463000            -0.01779510
      0.5729220              0.00431572             0.25353900
      0.2221920              1.09818000             0.80066900
SP   1   1.00
      0.0778369              1.00000000             1.00000000
D    1   1.00
      0.9000000              1.0000000
D    1   1.00
      0.2250000              1.0000000
F    1   1.00
      0.3200000              1.0000000
****
P     0
S    6   1.00
  19413.3000000              0.0018516
   2909.4200000              0.0142062
    661.3640000              0.0699995
    185.7590000              0.2400790
     59.1943000              0.4847620
     20.0310000              0.3352000
SP   6   1.00
    339.4780000             -0.00278217             0.00456462
     81.0101000             -0.0360499              0.03369360
     25.8780000             -0.1166310              0.13975500
      9.4522100              0.0968328              0.33936200
      3.6656600              0.6144180              0.45092100
      1.4674600              0.4037980              0.23858600
SP   3   1.00
      2.1562300             -0.2529230             -0.01776530
      0.7489970              0.0328517              0.27405800
      0.2831450              1.0812500              0.78542100
SP   1   1.00
      0.0998317              1.0000000              1.00000000
D    1   1.00
      1.1000000              1.0000000
D    1   1.00
      0.2750000              1.0000000
F    1   1.00
      0.4500000              1.0000000
****
S     0
S    6   1.00
  21917.1000000              0.0018690
   3301.4900000              0.0142300
    754.1460000              0.0696960
    212.7110000              0.2384870
     67.9896000              0.4833070
     23.0515000              0.3380740
SP   6   1.00
    423.7350000             -0.0023767              0.0040610
    100.7100000             -0.0316930              0.0306810
     32.1599000             -0.1133170              0.1304520
     11.8079000              0.0560900              0.3272050
      4.6311000              0.5922550              0.4528510
      1.8702500              0.4550060              0.2560420
SP   3   1.00
      2.6158400             -0.2503740             -0.0145110
      0.9221670              0.0669570              0.3102630
      0.3412870              1.0545100              0.7544830
SP   1   1.00
      0.1171670              1.0000000              1.0000000
D    1   1.00
      1.3000000              1.0000000
D    1   1.00
      0.3250000              1.0000000
F    1   1.00
      0.5500000              1.0000000
****
Cl     0
S    6   1.00
  25180.1000000              0.0018330
   3780.3500000              0.0140340
    860.4740000              0.0690970
    242.1450000              0.2374520
     77.3349000              0.4830340
     26.2470000              0.3398560
SP   6   1.00
    491.7650000             -0.0022974              0.0039894
    116.9840000             -0.0307140              0.0303180
     37.4153000             -0.1125280              0.1298800
     13.7834000              0.0450160              0.3279510
      5.4521500              0.5893530              0.4535270
      2.2258800              0.4652060              0.2521540
SP   3   1.00
      3.1864900             -0.2518300             -0.0142990
      1.1442700              0.0615890              0.3235720
      0.4203770              1.0601800              0.7435070
SP   1   1.00
      0.1426570              1.0000000              1.0000000
D    1   1.00
      1.5000000              1.0000000
D    1   1.00
      0.3750000              1.0000000
F    1   1.00
      0.7000000              1.0000000
****
}

set {
reference uhf
freeze_core true
e_convergence 10
d_convergence 10
dft_spherical_points 1202
dft_radial_points 99
}

e = energy('b3lyp')

print_out('Grab this energy {0}'.format(e))
--------------------------------------------------------------------------

    Molecular point group: cs

    Geometry (in Bohr), charge = 0, multiplicity = 2:

       Center              X                  Y                   Z               Mass
    ------------   -----------------  -----------------  -----------------  -----------------
         C           -0.323340629349    -0.000428572790     0.000000000000    12.000000000000
         C            0.060114827451    -1.400473403890    -2.426716762100    12.000000000000
         C            0.063071269651     2.801580723310     0.000000000000    12.000000000000
         C            0.060114827451    -1.400473403890     2.426716762100    12.000000000000
         H            2.087038740451    -1.644443305790    -2.847335099400     1.007825032230
         H           -0.765203158549    -0.388446978490    -4.025501486400     1.007825032230
         H           -0.765130313949    -3.292368306490    -2.348835617800     1.007825032230
         H            2.086597726851     3.287938355710     0.000000000000     1.007825032230
         H           -0.766289744549     3.680066922510     1.676289233300     1.007825032230
         H           -0.766289744549     3.680066922510    -1.676289233300     1.007825032230
         H            2.087038740451    -1.644443305790     2.847335099400     1.007825032230
         H           -0.765130313949    -3.292368306490     2.348835617800     1.007825032230
         H           -0.765203158549    -0.388446978490     4.025501486400     1.007825032230

  Charge       = 0
  Multiplicity = 2
  Basis Set: ANONYMOUS6120535F
    Blend: 6-31G_2DFP_
  Basis Set: (ANONYMOUS6120535F AUX)
    Blend: DEF2-UNIVERSAL-JKFIT

    Orbital Energies [Eh]
    ---------------------

    Alpha Occupied:

       1Ap   -10.180342     1App  -10.167046     2Ap   -10.167027
       3Ap   -10.166972     4Ap    -0.797765     2App   -0.686219
       5Ap    -0.686154     6Ap    -0.530776     7Ap    -0.441126
       8Ap    -0.434770     3App   -0.434570     9Ap    -0.382750
       4App   -0.382448     5App   -0.363612     6App   -0.338083
      10Ap    -0.337914    11Ap    -0.168961

    Alpha Virtual:

      12Ap     0.076072     7App    0.134123    13Ap     0.134189
       8App    0.142566    14Ap     0.142690    15Ap     0.154879
       9App    0.178665    16Ap     0.178892    17Ap     0.203547
      10App    0.214802    18Ap     0.275931    11App    0.276039
      19Ap     0.399066    12App    0.399389    20Ap     0.403347
      21Ap     0.424049    13App    0.424145    22Ap     0.456593
      23Ap     0.495360    14App    0.495419    15App    0.512160
      24Ap     0.513979    16App    0.578736    25Ap     0.578900
      17App    0.591513    26Ap     0.591752    27Ap     0.602572
      28Ap     0.624761    18App    0.631775    19App    0.636138
      29Ap     0.636355    20App    0.663243    30Ap     0.663583
      31Ap     0.683702    21App    0.684001    32Ap     0.734995
      33Ap     0.825395    22App    0.825420    23App    0.853916
      24App    0.915003    34Ap     0.915050    25App    0.944126
      35Ap     0.944614    26App    0.961206    36Ap     0.961377
      37Ap     1.003453    27App    1.128013    38Ap     1.128209
      39Ap     1.142219    28App    1.163180    40Ap     1.163358
      41Ap     1.223323    29App    1.274353    42Ap     1.274629
      43Ap     1.279357    30App    1.324101    44Ap     1.324613
      45Ap     1.355986    46Ap     1.365754    31App    1.366358
      32App    1.392454    33App    1.403938    47Ap     1.404171
      34App    1.416808    48Ap     1.417410    35App    1.427910
      36App    1.491493    49Ap     1.499079    37App    1.542782
      50Ap     1.542869    51Ap     1.574292    38App    1.574603
      52Ap     1.669826    39App    1.739019    53Ap     1.739814
      54Ap     1.768323    55Ap     1.831199    40App    1.831589
      41App    1.971728    56Ap     2.018260    42App    2.018428
      57Ap     2.019700    43App    2.052264    58Ap     2.053009
      44App    2.738444    59Ap     2.738524    60Ap     2.790924
      45App    2.811426    61Ap     2.889679    46App    2.890232
      62Ap     2.894941    63Ap     2.929459    47App    2.929533
      48App    2.958996    49App    2.964276    64Ap     2.964471
      65Ap     3.034008    66Ap     3.071172    50App    3.071390
      51App    3.084356    52App    3.168666    67Ap     3.168898
      68Ap     3.180584    53App    3.285281    69Ap     3.285349
      54App    3.327009    70Ap     3.327312    71Ap     3.375619
      72Ap     3.489865    55App    3.490464    56App    3.514018
      73Ap     3.525327    57App    3.568269    74Ap     3.568509
      58App    3.575140    59App    3.666102    75Ap     3.666688
      76Ap     3.679649    77Ap     3.694117    60App    3.694125
      61App    3.776772    78Ap     3.776834    79Ap     3.789116
      80Ap     3.912137    62App    3.912305    81Ap     4.034457
      82Ap     4.111283    63App    4.111467    83Ap     4.148067
      64App    4.148186    84Ap     4.173242    85Ap     4.202520
      65App    4.202887    86Ap     4.203379    66App    4.210847
      87Ap     4.315523    67App    4.316389    68App    4.358986
      88Ap     4.424331    69App    4.424580    70App    4.443418
      71App    4.515793    89Ap     4.517892    90Ap     4.578074
      72App    4.578481    91Ap     4.617531    92Ap     4.709445
      73App    4.774075    93Ap     4.775100    74App    4.836907
      94Ap     4.962862    75App    5.002487    95Ap     5.003399
      96Ap     5.228049    76App    5.246786    97Ap     5.246830
      98Ap     5.355234    77App    5.355776    78App    5.479349

    Beta Occupied:

       1App  -10.167800     1Ap   -10.167786     2Ap   -10.167738
       3Ap   -10.166519     4Ap    -0.781091     2App   -0.684022
       5Ap    -0.683956     6Ap    -0.511747     7Ap    -0.431149
       3App   -0.430936     8Ap    -0.421821     9Ap    -0.376843
       4App   -0.376524     5App   -0.362596     6App   -0.333208
      10Ap    -0.333036

    Beta Virtual:

      11Ap    -0.025742    12Ap     0.077081     7App    0.135021
      13Ap     0.135070     8App    0.144441    14Ap     0.144556
      15Ap     0.163338     9App    0.182334    16Ap     0.182565
      10App    0.215032    17Ap     0.218930    18Ap     0.282282
      11App    0.282384    19Ap     0.400237    12App    0.400559
      20Ap     0.419791    21Ap     0.426858    13App    0.426958
      22Ap     0.468501    23Ap     0.497625    14App    0.497675
      15App    0.513895    24Ap     0.556325    16App    0.584290
      25Ap     0.584445    17App    0.597689    26Ap     0.597937
      27Ap     0.609996    28Ap     0.628136    18App    0.631931
      19App    0.639423    29Ap     0.639643    20App    0.666822
      30Ap     0.667131    31Ap     0.686335    21App    0.686639
      32Ap     0.757518    33Ap     0.830566    22App    0.830586
      23App    0.855269    24App    0.922975    34Ap     0.923020
      25App    0.945963    35Ap     0.953543    26App    0.966505
      36Ap     0.966689    37Ap     1.008693    27App    1.132002
      38Ap     1.132275    39Ap     1.155599    28App    1.168301
      40Ap     1.168383    41Ap     1.232296    29App    1.279946
      42Ap     1.280231    43Ap     1.285110    30App    1.329080
      44Ap     1.329613    45Ap     1.365402    46Ap     1.370997
      31App    1.371601    32App    1.393512    33App    1.407389
      47Ap     1.407651    34App    1.421874    48Ap     1.422445
      35App    1.428178    36App    1.492541    49Ap     1.509522
      50Ap     1.547205    37App    1.547261    51Ap     1.582219
      38App    1.582420    52Ap     1.674673    39App    1.744788
      53Ap     1.745569    54Ap     1.779102    55Ap     1.835054
      40App    1.835444    41App    1.972587    42App    2.024811
      56Ap     2.026078    57Ap     2.039682    43App    2.059004
      58Ap     2.059696    44App    2.746784    59Ap     2.746856
      45App    2.811838    60Ap     2.816060    61Ap     2.902377
      46App    2.902912    62Ap     2.924652    63Ap     2.931940
      47App    2.932010    48App    2.960057    49App    2.968825
      64Ap     2.969011    65Ap     3.041944    66Ap     3.081087
      50App    3.081284    51App    3.086183    52App    3.184440
      67Ap     3.184622    68Ap     3.188269    53App    3.290088
      69Ap     3.290138    54App    3.330800    70Ap     3.331130
      71Ap     3.383438    72Ap     3.492596    55App    3.493193
      56App    3.512381    73Ap     3.528373    57App    3.574998
      58App    3.581675    74Ap     3.581786    59App    3.670906
      75Ap     3.671372    76Ap     3.692944    60App    3.725602
      77Ap     3.725912    61App    3.781309    78Ap     3.781347
      79Ap     3.817662    80Ap     3.921937    62App    3.922138
      81Ap     4.045344    82Ap     4.118152    63App    4.118228
      83Ap     4.155229    64App    4.155439    84Ap     4.187305
      65App    4.208825    85Ap     4.209136    86Ap     4.210671
      66App    4.215318    87Ap     4.322939    67App    4.323852
      68App    4.362350    88Ap     4.432558    69App    4.432783
      70App    4.446299    71App    4.523588    89Ap     4.525678
      90Ap     4.588690    72App    4.589068    91Ap     4.624723
      92Ap     4.719790    73App    4.781047    93Ap     4.782035
      74App    4.839824    94Ap     4.967657    75App    5.006543
      95Ap     5.007420    96Ap     5.233764    76App    5.248570
      97Ap     5.248615    98Ap     5.361715    77App    5.362255
      78App    5.481670

    Final Occupation by Irrep:
             Ap   App
    DOCC [    10,    6 ]
    SOCC [     1,    0 ]

  @DF-UKS Final Energy:  -157.81307211432954

   => Energetics <=

    Nuclear Repulsion Energy =            125.3945833545062811
    One-Electron Energy =                -458.7488397736932484
    Two-Electron Energy =                 195.8483259819961688
    DFT Exchange-Correlation Energy =     -20.3071416771387447
    Empirical Dispersion Energy =           0.0000000000000000
    VV10 Nonlocal Energy =                  0.0000000000000000
    Total Energy =                       -157.8130721143295432

  UHF NO Occupations:
  HONO-2 :    9 Ap 1.9996009
  HONO-1 :   10 Ap 1.9989805
  HONO-0 :   11 Ap 1.0000000
  LUNO+0 :   12 Ap 0.0010195
  LUNO+1 :   13 Ap 0.0003991
  LUNO+2 :   14 Ap 0.0001977
  LUNO+3 :    7App 0.0001974

Computation Completed

Properties will be evaluated at   0.000000,   0.000000,   0.000000 [a0]

Properties computed using the SCF density matrix

  Nuclear Dipole Moment: [e a0]
     X:     0.8272      Y:    -0.0012      Z:    -0.0000

  Electronic Dipole Moment: [e a0]
     X:    -0.7493      Y:     0.0011      Z:     0.0000

  Dipole Moment: [e a0]
     X:     0.0779      Y:    -0.0001      Z:    -0.0000     Total:     0.0779

  Dipole Moment: [D]
     X:     0.1980      Y:    -0.0003      Z:    -0.0000     Total:     0.1980

*** tstop() called on n071 at Fri Nov  5 12:27:49 2021
Module time:
	user time   =     573.37 seconds =       9.56 minutes
	system time =      13.42 seconds =       0.22 minutes
	total time  =        148 seconds =       2.47 minutes
Total time:
	user time   =     573.37 seconds =       9.56 minutes
	system time =      13.42 seconds =       0.22 minutes
	total time  =        148 seconds =       2.47 minutes
Grab this energy -157.81307211432954
    Psi4 stopped on: Friday, 05 November 2021 12:27PM
    Psi4 wall time for execution: 0:02:27.74

*** Psi4 exiting successfully. Buy a developer a beer!
