                               Psi4 1.4a2.dev629

  ==> Input File <==

--------------------------------------------------------------------------
import os
memory 14 GB

molecule {
 C   -0.3230390460   -0.0000025785    0.0019963147
 C    0.0611349585   -1.3990225650   -2.4220126992
 C    0.0608810290    2.7963141597    0.0011550326
 C    0.0608675348   -1.3972881675    2.4213187299
 H    2.0864485498   -1.6445603118   -2.8441512843
 H   -0.7649908348   -0.3831370805   -4.0180197821
 H   -0.7665285131   -3.2902063687   -2.3461195486
 H    2.0865032460    3.2815122599    0.0040951849
 H   -0.7668505295    3.6798735954    1.6753144615
 H   -0.7641063050    3.6686300500   -1.6768995755
 H    2.0868358440   -1.6370389135    2.8393143241
 H   -0.7642786094   -3.2871241844    2.3418492682
 H   -0.7654852010   -0.3879742087    4.0221595736
units bohr
0 2
}

basis {

assign 6-31g_2dfp_

[ 6-31g_2dfp_ ]

spherical

!----------------------------------------------------------------------
! Basis Set Exchange
! Version v0.8.13
! https://www.basissetexchange.org
!----------------------------------------------------------------------
!   Basis set: 6-31G(2df,p)
! Description: 6-31G(2df,p)
!        Role: orbital
!     Version: 0  (Data from the original Basis Set Exchange)
!----------------------------------------------------------------------

****
H     0
S    3   1.00
     18.7311370              0.03349460
      2.8253937              0.23472695
      0.6401217              0.81375733
S    1   1.00
      0.1612778              1.00000000
P    1   1.00
      1.5000000              1.0000000
P    1   1.00
      0.3750000              1.0000000
****
B     0
S    6   1.00
   2068.8823000              0.0018663
    310.6495700              0.0142515
     70.6830330              0.0695516
     19.8610800              0.2325729
      6.2993048              0.4670787
      2.1270270              0.3634314
SP   3   1.00
      4.7279710             -0.1303938              0.0745976
      1.1903377             -0.1307889              0.3078467
      0.3594117              1.1309444              0.7434568
SP   1   1.00
      0.1267512              1.0000000              1.0000000
D    1   1.00
      0.8020000              1.0000000
D    1   1.00
      0.2005000              1.0000000
F    1   1.00
      0.5000000              1.0000000
****
C     0
S    6   1.00
   3047.5249000              0.0018347
    457.3695100              0.0140373
    103.9486900              0.0688426
     29.2101550              0.2321844
      9.2866630              0.4679413
      3.1639270              0.3623120
SP   3   1.00
      7.8682724             -0.1193324              0.0689991
      1.8812885             -0.1608542              0.3164240
      0.5442493              1.1434564              0.7443083
SP   1   1.00
      0.1687144              1.0000000              1.0000000
D    1   1.00
      1.2520000              1.0000000
D    1   1.00
      0.3130000              1.0000000
F    1   1.00
      0.8000000              1.0000000
****
N     0
S    6   1.00
   4173.5110000              0.0018348
    627.4579000              0.0139950
    142.9021000              0.0685870
     40.2343300              0.2322410
     12.8202100              0.4690700
      4.3904370              0.3604550
SP   3   1.00
     11.6263580             -0.1149610              0.0675800
      2.7162800             -0.1691180              0.3239070
      0.7722180              1.1458520              0.7408950
SP   1   1.00
      0.2120313              1.0000000              1.0000000
D    1   1.00
      1.8260000              1.0000000
D    1   1.00
      0.4565000              1.0000000
F    1   1.00
      1.0000000              1.0000000
****
O     0
S    6   1.00
   5484.6717000              0.0018311
    825.2349500              0.0139501
    188.0469600              0.0684451
     52.9645000              0.2327143
     16.8975700              0.4701930
      5.7996353              0.3585209
SP   3   1.00
     15.5396160             -0.1107775              0.0708743
      3.5999336             -0.1480263              0.3397528
      1.0137618              1.1307670              0.7271586
SP   1   1.00
      0.2700058              1.0000000              1.0000000
D    1   1.00
      2.5840000              1.0000000
D    1   1.00
      0.6460000              1.0000000
F    1   1.00
      1.4000000              1.0000000
****
F     0
S    6   1.00
   7001.7130900              0.0018196169
   1051.3660900              0.0139160796
    239.2856900              0.0684053245
     67.3974453              0.233185760
     21.5199573              0.471267439
      7.40310130             0.356618546
SP   3   1.00
     20.8479528             -0.108506975            0.0716287243
      4.80830834            -0.146451658            0.3459121030
      1.34406986             1.128688580            0.7224699570
SP   1   1.00
      0.358151393            1.0000000              1.0000000
D    1   1.00
      3.5000000              1.0000000
D    1   1.00
      0.8750000              1.0000000
F    1   1.00
      1.8500000              1.0000000
****
Al     0
S    6   1.00
  13983.1000000              0.00194267
   2098.7500000              0.0148599
    477.7050000              0.0728494
    134.3600000              0.2468300
     42.8709000              0.4872580
     14.5189000              0.3234960
SP   6   1.00
    239.6680000             -0.00292619             0.00460285
     57.4419000             -0.0374080              0.0331990
     18.2859000             -0.1144870              0.1362820
      6.5991400              0.1156350              0.3304760
      2.4904900              0.6125950              0.4491460
      0.9445400              0.3937990              0.2657040
SP   3   1.00
      1.2779000             -0.2276060             -0.0175130
      0.3975900              0.00144583             0.2445330
      0.1600950              1.0927900              0.8049340
SP   1   1.00
      0.0556577              1.0000000              1.0000000
D    1   1.00
      0.6500000              1.0000000
D    1   1.00
      0.1625000              1.0000000
F    1   1.00
      0.2500000              1.0000000
****
Si     0
S    6   1.00
  16115.9000000              0.00195948
   2425.5800000              0.01492880
    553.8670000              0.07284780
    156.3400000              0.24613000
     50.0683000              0.48591400
     17.0178000              0.32500200
SP   6   1.00
    292.7180000             -0.00278094             0.00443826
     69.8731000             -0.03571460             0.03266790
     22.3363000             -0.11498500             0.13472100
      8.1503900              0.09356340             0.32867800
      3.1345800              0.60301700             0.44964000
      1.2254300              0.41895900             0.26137200
SP   3   1.00
      1.7273800             -0.24463000            -0.01779510
      0.5729220              0.00431572             0.25353900
      0.2221920              1.09818000             0.80066900
SP   1   1.00
      0.0778369              1.00000000             1.00000000
D    1   1.00
      0.9000000              1.0000000
D    1   1.00
      0.2250000              1.0000000
F    1   1.00
      0.3200000              1.0000000
****
P     0
S    6   1.00
  19413.3000000              0.0018516
   2909.4200000              0.0142062
    661.3640000              0.0699995
    185.7590000              0.2400790
     59.1943000              0.4847620
     20.0310000              0.3352000
SP   6   1.00
    339.4780000             -0.00278217             0.00456462
     81.0101000             -0.0360499              0.03369360
     25.8780000             -0.1166310              0.13975500
      9.4522100              0.0968328              0.33936200
      3.6656600              0.6144180              0.45092100
      1.4674600              0.4037980              0.23858600
SP   3   1.00
      2.1562300             -0.2529230             -0.01776530
      0.7489970              0.0328517              0.27405800
      0.2831450              1.0812500              0.78542100
SP   1   1.00
      0.0998317              1.0000000              1.00000000
D    1   1.00
      1.1000000              1.0000000
D    1   1.00
      0.2750000              1.0000000
F    1   1.00
      0.4500000              1.0000000
****
S     0
S    6   1.00
  21917.1000000              0.0018690
   3301.4900000              0.0142300
    754.1460000              0.0696960
    212.7110000              0.2384870
     67.9896000              0.4833070
     23.0515000              0.3380740
SP   6   1.00
    423.7350000             -0.0023767              0.0040610
    100.7100000             -0.0316930              0.0306810
     32.1599000             -0.1133170              0.1304520
     11.8079000              0.0560900              0.3272050
      4.6311000              0.5922550              0.4528510
      1.8702500              0.4550060              0.2560420
SP   3   1.00
      2.6158400             -0.2503740             -0.0145110
      0.9221670              0.0669570              0.3102630
      0.3412870              1.0545100              0.7544830
SP   1   1.00
      0.1171670              1.0000000              1.0000000
D    1   1.00
      1.3000000              1.0000000
D    1   1.00
      0.3250000              1.0000000
F    1   1.00
      0.5500000              1.0000000
****
Cl     0
S    6   1.00
  25180.1000000              0.0018330
   3780.3500000              0.0140340
    860.4740000              0.0690970
    242.1450000              0.2374520
     77.3349000              0.4830340
     26.2470000              0.3398560
SP   6   1.00
    491.7650000             -0.0022974              0.0039894
    116.9840000             -0.0307140              0.0303180
     37.4153000             -0.1125280              0.1298800
     13.7834000              0.0450160              0.3279510
      5.4521500              0.5893530              0.4535270
      2.2258800              0.4652060              0.2521540
SP   3   1.00
      3.1864900             -0.2518300             -0.0142990
      1.1442700              0.0615890              0.3235720
      0.4203770              1.0601800              0.7435070
SP   1   1.00
      0.1426570              1.0000000              1.0000000
D    1   1.00
      1.5000000              1.0000000
D    1   1.00
      0.3750000              1.0000000
F    1   1.00
      0.7000000              1.0000000
****
}

set {
reference uhf
freeze_core true
e_convergence 10
d_convergence 10
dft_spherical_points 1202
dft_radial_points 99
}

e = energy('b3lyp')

print_out('Grab this energy {0}'.format(e))
--------------------------------------------------------------------------

    Molecular point group: c1

    Geometry (in Bohr), charge = 0, multiplicity = 2:

       Center              X                  Y                   Z               Mass
    ------------   -----------------  -----------------  -----------------  -----------------
         C           -0.323016792384    -0.000002312604     0.001523006001    12.000000000000
         C            0.061157212116    -1.399022299104    -2.422486007899    12.000000000000
         C            0.060903282616     2.796314425596     0.000681723901    12.000000000000
         C            0.060889788416    -1.397287901604     2.420845421201    12.000000000000
         H            2.086470803416    -1.644560045904    -2.844624592999     1.007825032230
         H           -0.764968581184    -0.383136814604    -4.018493090799     1.007825032230
         H           -0.766506259484    -3.290206102804    -2.346592857299     1.007825032230
         H            2.086525499616     3.281512525796     0.003621876201     1.007825032230
         H           -0.766828275884     3.679873861296     1.674841152801     1.007825032230
         H           -0.764084051384     3.668630315896    -1.677372884199     1.007825032230
         H            2.086858097616    -1.637038647604     2.838841015401     1.007825032230
         H           -0.764256355784    -3.287123918504     2.341375959501     1.007825032230
         H           -0.765462947384    -0.387973942804     4.021686264901     1.007825032230

  Charge       = 0
  Multiplicity = 2
  Basis Set: ANONYMOUSDF56ABA9
    Blend: 6-31G_2DFP_
  Basis Set: (ANONYMOUSDF56ABA9 AUX)
    Blend: DEF2-UNIVERSAL-JKFIT

    Orbital Energies [Eh]
    ---------------------

    Alpha Occupied:

       1A    -10.179568     2A    -10.166813     3A    -10.166654
       4A    -10.166493     5A     -0.798817     6A     -0.686611
       7A     -0.686366     8A     -0.530774     9A     -0.441726
      10A     -0.435220    11A     -0.435081    12A     -0.382709
      13A     -0.382638    14A     -0.363493    15A     -0.338252
      16A     -0.338120    17A     -0.168636

    Alpha Virtual:

      18A      0.076043    19A      0.134164    20A      0.134225
      21A      0.142770    22A      0.142890    23A      0.154942
      24A      0.178913    25A      0.178994    26A      0.204642
      27A      0.215150    28A      0.276237    29A      0.276774
      30A      0.399161    31A      0.399236    32A      0.403144
      33A      0.423769    34A      0.423883    35A      0.457176
      36A      0.495560    37A      0.495676    38A      0.512496
      39A      0.514381    40A      0.579213    41A      0.579779
      42A      0.591883    43A      0.592471    44A      0.603039
      45A      0.625164    46A      0.632131    47A      0.637024
      48A      0.637118    49A      0.663852    50A      0.663919
      51A      0.684277    52A      0.684339    53A      0.734787
      54A      0.825034    55A      0.825467    56A      0.854917
      57A      0.915611    58A      0.915886    59A      0.944024
      60A      0.945464    61A      0.961571    62A      0.962946
      63A      1.004593    64A      1.128783    65A      1.129210
      66A      1.142571    67A      1.163940    68A      1.164147
      69A      1.224233    70A      1.275244    71A      1.275547
      72A      1.279863    73A      1.324688    74A      1.324695
      75A      1.356167    76A      1.367729    77A      1.368038
      78A      1.393961    79A      1.403448    80A      1.404080
      81A      1.417087    82A      1.417891    83A      1.429319
      84A      1.492716    85A      1.499658    86A      1.543292
      87A      1.543833    88A      1.575591    89A      1.575611
      90A      1.669771    91A      1.739676    92A      1.740416
      93A      1.769833    94A      1.832100    95A      1.833082
      96A      1.973117    97A      2.019814    98A      2.020175
      99A      2.020963   100A      2.056331   101A      2.057960
     102A      2.738800   103A      2.739356   104A      2.792082
     105A      2.814145   106A      2.890806   107A      2.891335
     108A      2.896499   109A      2.929661   110A      2.929708
     111A      2.959233   112A      2.963917   113A      2.964218
     114A      3.033967   115A      3.072120   116A      3.072375
     117A      3.085937   118A      3.169431   119A      3.169840
     120A      3.182484   121A      3.285760   122A      3.285862
     123A      3.327257   124A      3.327929   125A      3.374230
     126A      3.491766   127A      3.492085   128A      3.514798
     129A      3.527627   130A      3.568013   131A      3.568612
     132A      3.577359   133A      3.666171   134A      3.666478
     135A      3.681597   136A      3.695195   137A      3.696027
     138A      3.780047   139A      3.782532   140A      3.789832
     141A      3.914055   142A      3.914580   143A      4.036298
     144A      4.112967   145A      4.115401   146A      4.147980
     147A      4.149785   148A      4.174498   149A      4.204072
     150A      4.205387   151A      4.205478   152A      4.212435
     153A      4.316696   154A      4.318273   155A      4.361546
     156A      4.426285   157A      4.426775   158A      4.445885
     159A      4.519423   160A      4.520247   161A      4.581490
     162A      4.582165   163A      4.624882   164A      4.714241
     165A      4.779963   166A      4.782090   167A      4.840897
     168A      4.965925   169A      5.004217   170A      5.004923
     171A      5.229057   172A      5.247753   173A      5.248705
     174A      5.357395   175A      5.358853   176A      5.485121

    Beta Occupied:

       1A    -10.167573     2A    -10.167414     3A    -10.167255
       4A    -10.165773     5A     -0.782120     6A     -0.684386
       7A     -0.684156     8A     -0.511845     9A     -0.431566
      10A     -0.431446    11A     -0.422319    12A     -0.376752
      13A     -0.376691    14A     -0.362465    15A     -0.333375
      16A     -0.333251

    Beta Virtual:

      17A     -0.025712    18A      0.077063    19A      0.135056
      20A      0.135101    21A      0.144668    22A      0.144790
      23A      0.163447    24A      0.182630    25A      0.182673
      26A      0.215387    27A      0.219843    28A      0.282525
      29A      0.283043    30A      0.400368    31A      0.400441
      32A      0.419484    33A      0.426570    34A      0.426687
      35A      0.469438    36A      0.497837    37A      0.497948
      38A      0.514247    39A      0.556647    40A      0.584769
      41A      0.585338    42A      0.598016    43A      0.598574
      44A      0.610504    45A      0.628602    46A      0.632296
      47A      0.640363    48A      0.640498    49A      0.667372
      50A      0.667442    51A      0.686971    52A      0.687077
      53A      0.757132    54A      0.830199    55A      0.830675
      56A      0.856307    57A      0.923630    58A      0.923835
      59A      0.947304    60A      0.952856    61A      0.966960
      62A      0.968223    63A      1.009759    64A      1.132737
      65A      1.133314    66A      1.155963    67A      1.169096
      68A      1.169139    69A      1.233343    70A      1.280880
      71A      1.281180    72A      1.285551    73A      1.329666
      74A      1.329693    75A      1.365614    76A      1.372993
      77A      1.373239    78A      1.395029    79A      1.406857
      80A      1.407549    81A      1.422197    82A      1.422986
      83A      1.429621    84A      1.493763    85A      1.510166
      86A      1.547643    87A      1.548185    88A      1.583530
      89A      1.583550    90A      1.674624    91A      1.745433
      92A      1.746191    93A      1.780637    94A      1.835976
      95A      1.836953    96A      1.973980    97A      2.026514
      98A      2.026643    99A      2.042068   100A      2.063044
     101A      2.064724   102A      2.747057   103A      2.747580
     104A      2.814563   105A      2.817196   106A      2.903336
     107A      2.903745   108A      2.926239   109A      2.932331
     110A      2.932351   111A      2.960307   112A      2.968540
     113A      2.968805   114A      3.041990   115A      3.082124
     116A      3.082362   117A      3.087771   118A      3.185042
     119A      3.185518   120A      3.190105   121A      3.290710
     122A      3.290862   123A      3.331003   124A      3.331643
     125A      3.382034   126A      3.494510   127A      3.494787
     128A      3.513156   129A      3.530631   130A      3.577022
     131A      3.581411   132A      3.582103   133A      3.670932
     134A      3.671047   135A      3.694876   136A      3.726928
     137A      3.727167   138A      3.784656   139A      3.787050
     140A      3.818244   141A      3.923895   142A      3.924385
     143A      4.047120   144A      4.119615   145A      4.121821
     146A      4.155359   147A      4.157218   148A      4.188666
     149A      4.211298   150A      4.211414   151A      4.212123
     152A      4.216983   153A      4.324142   154A      4.325763
     155A      4.364893   156A      4.434655   157A      4.435048
     158A      4.448785   159A      4.527350   160A      4.528155
     161A      4.592111   162A      4.592781   163A      4.632058
     164A      4.724669   165A      4.786961   166A      4.789004
     167A      4.843814   168A      4.970743   169A      5.008287
     170A      5.009011   171A      5.234812   172A      5.249542
     173A      5.250509   174A      5.363908   175A      5.365409
     176A      5.487464

    Final Occupation by Irrep:
              A
    DOCC [    16 ]
    SOCC [     1 ]

  @DF-UKS Final Energy:  -157.81303858091138

   => Energetics <=

    Nuclear Repulsion Energy =            125.5761621733715145
    One-Electron Energy =                -459.1062850950328311
    Two-Electron Energy =                 196.0280357951594112
    DFT Exchange-Correlation Energy =     -20.3109514544095013
    Empirical Dispersion Energy =           0.0000000000000000
    VV10 Nonlocal Energy =                  0.0000000000000000
    Total Energy =                       -157.8130385809113818

  UHF NO Occupations:
  HONO-2 :   15  A 1.9995992
  HONO-1 :   16  A 1.9989874
  HONO-0 :   17  A 1.0000000
  LUNO+0 :   18  A 0.0010126
  LUNO+1 :   19  A 0.0004008
  LUNO+2 :   20  A 0.0001957
  LUNO+3 :   21  A 0.0001951

Computation Completed

Properties will be evaluated at   0.000000,   0.000000,   0.000000 [a0]

Properties computed using the SCF density matrix

  Nuclear Dipole Moment: [e a0]
     X:     0.8273      Y:    -0.0000      Z:    -0.0033

  Electronic Dipole Moment: [e a0]
     X:    -0.7503      Y:     0.0000      Z:     0.0034

  Dipole Moment: [e a0]
     X:     0.0770      Y:    -0.0000      Z:     0.0000     Total:     0.0770

  Dipole Moment: [D]
     X:     0.1958      Y:    -0.0000      Z:     0.0001     Total:     0.1958

*** tstop() called on n054 at Fri Nov  5 15:37:24 2021
Module time:
	user time   =     549.50 seconds =       9.16 minutes
	system time =      12.39 seconds =       0.21 minutes
	total time  =        142 seconds =       2.37 minutes
Total time:
	user time   =     549.50 seconds =       9.16 minutes
	system time =      12.39 seconds =       0.21 minutes
	total time  =        142 seconds =       2.37 minutes
Grab this energy -157.81303858091138
    Psi4 stopped on: Friday, 05 November 2021 03:37PM
    Psi4 wall time for execution: 0:02:21.38

*** Psi4 exiting successfully. Buy a developer a beer!
