                               Psi4 1.4a2.dev629

  ==> Input File <==

--------------------------------------------------------------------------
import os
memory 14 GB

molecule {
 C   -0.3233395239    0.0053435651   -0.0000003390
 C    0.0612135699   -1.3993430697   -2.4272321727
 C    0.0608716279    2.8018178511    0.0007963226
 C    0.0612117601   -1.4007254919    2.4264312537
 H    2.0868183965   -1.6436285414   -2.8480566148
 H   -0.7654855709   -0.3901236922   -4.0291221090
 H   -0.7655445013   -3.2898663022   -2.3464330121
 H    2.0870351885    3.2875044490    0.0015822000
 H   -0.7649183566    3.6838618192    1.6778953567
 H   -0.7662621399    3.6749933758   -1.6758764907
 H    2.0868138659   -1.6463715837    2.8464780687
 H   -0.7641948414   -3.2960479312    2.3531048139
 H   -0.7668273515   -0.3874387616    4.0204327228
units bohr
0 2
}

basis {

assign 6-31g_2dfp_

[ 6-31g_2dfp_ ]

spherical

!----------------------------------------------------------------------
! Basis Set Exchange
! Version v0.8.13
! https://www.basissetexchange.org
!----------------------------------------------------------------------
!   Basis set: 6-31G(2df,p)
! Description: 6-31G(2df,p)
!        Role: orbital
!     Version: 0  (Data from the original Basis Set Exchange)
!----------------------------------------------------------------------

****
H     0
S    3   1.00
     18.7311370              0.03349460
      2.8253937              0.23472695
      0.6401217              0.81375733
S    1   1.00
      0.1612778              1.00000000
P    1   1.00
      1.5000000              1.0000000
P    1   1.00
      0.3750000              1.0000000
****
B     0
S    6   1.00
   2068.8823000              0.0018663
    310.6495700              0.0142515
     70.6830330              0.0695516
     19.8610800              0.2325729
      6.2993048              0.4670787
      2.1270270              0.3634314
SP   3   1.00
      4.7279710             -0.1303938              0.0745976
      1.1903377             -0.1307889              0.3078467
      0.3594117              1.1309444              0.7434568
SP   1   1.00
      0.1267512              1.0000000              1.0000000
D    1   1.00
      0.8020000              1.0000000
D    1   1.00
      0.2005000              1.0000000
F    1   1.00
      0.5000000              1.0000000
****
C     0
S    6   1.00
   3047.5249000              0.0018347
    457.3695100              0.0140373
    103.9486900              0.0688426
     29.2101550              0.2321844
      9.2866630              0.4679413
      3.1639270              0.3623120
SP   3   1.00
      7.8682724             -0.1193324              0.0689991
      1.8812885             -0.1608542              0.3164240
      0.5442493              1.1434564              0.7443083
SP   1   1.00
      0.1687144              1.0000000              1.0000000
D    1   1.00
      1.2520000              1.0000000
D    1   1.00
      0.3130000              1.0000000
F    1   1.00
      0.8000000              1.0000000
****
N     0
S    6   1.00
   4173.5110000              0.0018348
    627.4579000              0.0139950
    142.9021000              0.0685870
     40.2343300              0.2322410
     12.8202100              0.4690700
      4.3904370              0.3604550
SP   3   1.00
     11.6263580             -0.1149610              0.0675800
      2.7162800             -0.1691180              0.3239070
      0.7722180              1.1458520              0.7408950
SP   1   1.00
      0.2120313              1.0000000              1.0000000
D    1   1.00
      1.8260000              1.0000000
D    1   1.00
      0.4565000              1.0000000
F    1   1.00
      1.0000000              1.0000000
****
O     0
S    6   1.00
   5484.6717000              0.0018311
    825.2349500              0.0139501
    188.0469600              0.0684451
     52.9645000              0.2327143
     16.8975700              0.4701930
      5.7996353              0.3585209
SP   3   1.00
     15.5396160             -0.1107775              0.0708743
      3.5999336             -0.1480263              0.3397528
      1.0137618              1.1307670              0.7271586
SP   1   1.00
      0.2700058              1.0000000              1.0000000
D    1   1.00
      2.5840000              1.0000000
D    1   1.00
      0.6460000              1.0000000
F    1   1.00
      1.4000000              1.0000000
****
F     0
S    6   1.00
   7001.7130900              0.0018196169
   1051.3660900              0.0139160796
    239.2856900              0.0684053245
     67.3974453              0.233185760
     21.5199573              0.471267439
      7.40310130             0.356618546
SP   3   1.00
     20.8479528             -0.108506975            0.0716287243
      4.80830834            -0.146451658            0.3459121030
      1.34406986             1.128688580            0.7224699570
SP   1   1.00
      0.358151393            1.0000000              1.0000000
D    1   1.00
      3.5000000              1.0000000
D    1   1.00
      0.8750000              1.0000000
F    1   1.00
      1.8500000              1.0000000
****
Al     0
S    6   1.00
  13983.1000000              0.00194267
   2098.7500000              0.0148599
    477.7050000              0.0728494
    134.3600000              0.2468300
     42.8709000              0.4872580
     14.5189000              0.3234960
SP   6   1.00
    239.6680000             -0.00292619             0.00460285
     57.4419000             -0.0374080              0.0331990
     18.2859000             -0.1144870              0.1362820
      6.5991400              0.1156350              0.3304760
      2.4904900              0.6125950              0.4491460
      0.9445400              0.3937990              0.2657040
SP   3   1.00
      1.2779000             -0.2276060             -0.0175130
      0.3975900              0.00144583             0.2445330
      0.1600950              1.0927900              0.8049340
SP   1   1.00
      0.0556577              1.0000000              1.0000000
D    1   1.00
      0.6500000              1.0000000
D    1   1.00
      0.1625000              1.0000000
F    1   1.00
      0.2500000              1.0000000
****
Si     0
S    6   1.00
  16115.9000000              0.00195948
   2425.5800000              0.01492880
    553.8670000              0.07284780
    156.3400000              0.24613000
     50.0683000              0.48591400
     17.0178000              0.32500200
SP   6   1.00
    292.7180000             -0.00278094             0.00443826
     69.8731000             -0.03571460             0.03266790
     22.3363000             -0.11498500             0.13472100
      8.1503900              0.09356340             0.32867800
      3.1345800              0.60301700             0.44964000
      1.2254300              0.41895900             0.26137200
SP   3   1.00
      1.7273800             -0.24463000            -0.01779510
      0.5729220              0.00431572             0.25353900
      0.2221920              1.09818000             0.80066900
SP   1   1.00
      0.0778369              1.00000000             1.00000000
D    1   1.00
      0.9000000              1.0000000
D    1   1.00
      0.2250000              1.0000000
F    1   1.00
      0.3200000              1.0000000
****
P     0
S    6   1.00
  19413.3000000              0.0018516
   2909.4200000              0.0142062
    661.3640000              0.0699995
    185.7590000              0.2400790
     59.1943000              0.4847620
     20.0310000              0.3352000
SP   6   1.00
    339.4780000             -0.00278217             0.00456462
     81.0101000             -0.0360499              0.03369360
     25.8780000             -0.1166310              0.13975500
      9.4522100              0.0968328              0.33936200
      3.6656600              0.6144180              0.45092100
      1.4674600              0.4037980              0.23858600
SP   3   1.00
      2.1562300             -0.2529230             -0.01776530
      0.7489970              0.0328517              0.27405800
      0.2831450              1.0812500              0.78542100
SP   1   1.00
      0.0998317              1.0000000              1.00000000
D    1   1.00
      1.1000000              1.0000000
D    1   1.00
      0.2750000              1.0000000
F    1   1.00
      0.4500000              1.0000000
****
S     0
S    6   1.00
  21917.1000000              0.0018690
   3301.4900000              0.0142300
    754.1460000              0.0696960
    212.7110000              0.2384870
     67.9896000              0.4833070
     23.0515000              0.3380740
SP   6   1.00
    423.7350000             -0.0023767              0.0040610
    100.7100000             -0.0316930              0.0306810
     32.1599000             -0.1133170              0.1304520
     11.8079000              0.0560900              0.3272050
      4.6311000              0.5922550              0.4528510
      1.8702500              0.4550060              0.2560420
SP   3   1.00
      2.6158400             -0.2503740             -0.0145110
      0.9221670              0.0669570              0.3102630
      0.3412870              1.0545100              0.7544830
SP   1   1.00
      0.1171670              1.0000000              1.0000000
D    1   1.00
      1.3000000              1.0000000
D    1   1.00
      0.3250000              1.0000000
F    1   1.00
      0.5500000              1.0000000
****
Cl     0
S    6   1.00
  25180.1000000              0.0018330
   3780.3500000              0.0140340
    860.4740000              0.0690970
    242.1450000              0.2374520
     77.3349000              0.4830340
     26.2470000              0.3398560
SP   6   1.00
    491.7650000             -0.0022974              0.0039894
    116.9840000             -0.0307140              0.0303180
     37.4153000             -0.1125280              0.1298800
     13.7834000              0.0450160              0.3279510
      5.4521500              0.5893530              0.4535270
      2.2258800              0.4652060              0.2521540
SP   3   1.00
      3.1864900             -0.2518300             -0.0142990
      1.1442700              0.0615890              0.3235720
      0.4203770              1.0601800              0.7435070
SP   1   1.00
      0.1426570              1.0000000              1.0000000
D    1   1.00
      1.5000000              1.0000000
D    1   1.00
      0.3750000              1.0000000
F    1   1.00
      0.7000000              1.0000000
****
}

set {
reference uhf
freeze_core true
e_convergence 10
d_convergence 10
dft_spherical_points 1202
dft_radial_points 99
}

e = energy('b3lyp')

print_out('Grab this energy {0}'.format(e))
--------------------------------------------------------------------------

    Molecular point group: c1

    Geometry (in Bohr), charge = 0, multiplicity = 2:

       Center              X                  Y                   Z               Mass
    ------------   -----------------  -----------------  -----------------  -----------------
         C           -0.323339026751     0.003977859580     0.000000611592    12.000000000000
         C            0.061214067049    -1.400708775220    -2.427231222108    12.000000000000
         C            0.060872125049     2.800452145580     0.000797273192    12.000000000000
         C            0.061212257249    -1.402091197420     2.426432204292    12.000000000000
         H            2.086818893649    -1.644994246920    -2.848055664208     1.007825032230
         H           -0.765485073751    -0.391489397720    -4.029121158408     1.007825032230
         H           -0.765544004151    -3.291232007720    -2.346432061508     1.007825032230
         H            2.087035685649     3.286138743480     0.001583150592     1.007825032230
         H           -0.764917859451     3.682496113680     1.677896307292     1.007825032230
         H           -0.766261642751     3.673627670280    -1.675875540108     1.007825032230
         H            2.086814363049    -1.647737289220     2.846479019292     1.007825032230
         H           -0.764194344251    -3.297413636720     2.353105764492     1.007825032230
         H           -0.766826854351    -0.388804467120     4.020433673392     1.007825032230

  Charge       = 0
  Multiplicity = 2
  Basis Set: ANONYMOUSCB7F63C9
    Blend: 6-31G_2DFP_
  Basis Set: (ANONYMOUSCB7F63C9 AUX)
    Blend: DEF2-UNIVERSAL-JKFIT

    Orbital Energies [Eh]
    ---------------------

    Alpha Occupied:

       1A    -10.180342     2A    -10.167047     3A    -10.167026
       4A    -10.166971     5A     -0.797770     6A     -0.686375
       7A     -0.685998     8A     -0.530775     9A     -0.441131
      10A     -0.434888    11A     -0.434453    12A     -0.382715
      13A     -0.382484    14A     -0.363608    15A     -0.338517
      16A     -0.337478    17A     -0.168961

    Alpha Virtual:

      18A      0.076073    19A      0.134139    20A      0.134169
      21A      0.142452    22A      0.142803    23A      0.154880
      24A      0.178772    25A      0.178786    26A      0.203526
      27A      0.214819    28A      0.275694    29A      0.276274
      30A      0.399107    31A      0.399352    32A      0.403344
      33A      0.424096    34A      0.424100    35A      0.456593
      36A      0.495342    37A      0.495437    38A      0.512160
      39A      0.513978    40A      0.578623    41A      0.579004
      42A      0.591641    43A      0.591645    44A      0.602573
      45A      0.624677    46A      0.631851    47A      0.636095
      48A      0.636415    49A      0.663346    50A      0.663478
      51A      0.683802    52A      0.683904    53A      0.734992
      54A      0.825298    55A      0.825516    56A      0.853916
      57A      0.914908    58A      0.915135    59A      0.944021
      60A      0.944708    61A      0.961110    62A      0.961475
      63A      1.003468    64A      1.127868    65A      1.128303
      66A      1.142260    67A      1.162888    68A      1.163648
      69A      1.223329    70A      1.274029    71A      1.274967
      72A      1.279346    73A      1.324259    74A      1.324450
      75A      1.355978    76A      1.365774    77A      1.366327
      78A      1.392451    79A      1.403967    80A      1.404080
      81A      1.416817    82A      1.417449    83A      1.427929
      84A      1.491491    85A      1.499083    86A      1.542830
      87A      1.542838    88A      1.574422    89A      1.574471
      90A      1.669830    91A      1.739225    92A      1.739628
      93A      1.768315    94A      1.831131    95A      1.831655
      96A      1.971732    97A      2.018269    98A      2.018517
      99A      2.019622   100A      2.052111   101A      2.053183
     102A      2.738247   103A      2.738725   104A      2.790922
     105A      2.811426   106A      2.889394   107A      2.890511
     108A      2.894935   109A      2.929112   110A      2.929883
     111A      2.958992   112A      2.964216   113A      2.964544
     114A      3.034006   115A      3.070776   116A      3.071807
     117A      3.084344   118A      3.168655   119A      3.168858
     120A      3.180654   121A      3.285001   122A      3.285599
     123A      3.326785   124A      3.327560   125A      3.375602
     126A      3.489594   127A      3.490681   128A      3.513938
     129A      3.525426   130A      3.568159   131A      3.568611
     132A      3.575151   133A      3.666073   134A      3.666696
     135A      3.679657   136A      3.694072   137A      3.694125
     138A      3.776102   139A      3.777511   140A      3.789171
     141A      3.911779   142A      3.912705   143A      4.034441
     144A      4.111049   145A      4.111681   146A      4.147136
     147A      4.149104   148A      4.173247   149A      4.202342
     150A      4.202623   151A      4.203807   152A      4.210887
     153A      4.315408   154A      4.316525   155A      4.358964
     156A      4.424380   157A      4.424514   158A      4.443449
     159A      4.516720   160A      4.516968   161A      4.577836
     162A      4.578409   163A      4.617845   164A      4.709442
     165A      4.774035   166A      4.775176   167A      4.836905
     168A      4.962850   169A      5.002740   170A      5.003221
     171A      5.228041   172A      5.246791   173A      5.246858
     174A      5.354950   175A      5.356060   176A      5.479348

    Beta Occupied:

       1A    -10.167798     2A    -10.167784     3A    -10.167741
       4A    -10.166519     5A     -0.781095     6A     -0.684166
       7A     -0.683813     8A     -0.511746     9A     -0.431255
      10A     -0.430837    11A     -0.421819    12A     -0.376759
      13A     -0.376611    14A     -0.362591    15A     -0.333650
      16A     -0.332591

    Beta Virtual:

      17A     -0.025743    18A      0.077082    19A      0.135040
      20A      0.135047    21A      0.144334    22A      0.144663
      23A      0.163339    24A      0.182432    25A      0.182469
      26A      0.214983    27A      0.218974    28A      0.282077
      29A      0.282587    30A      0.400279    31A      0.400518
      32A      0.419791    33A      0.426898    34A      0.426920
      35A      0.468500    36A      0.497600    37A      0.497701
      38A      0.513896    39A      0.556321    40A      0.584150
      41A      0.584580    42A      0.597814    43A      0.597829
      44A      0.609996    45A      0.627996    46A      0.632063
      47A      0.639367    48A      0.639716    49A      0.666916
      50A      0.667036    51A      0.686436    52A      0.686540
      53A      0.757515    54A      0.830471    55A      0.830680
      56A      0.855269    57A      0.922852    58A      0.923133
      59A      0.945938    60A      0.953557    61A      0.966408
      62A      0.966789    63A      1.008707    64A      1.131918
      65A      1.132325    66A      1.155620    67A      1.167969
      68A      1.168717    69A      1.232300    70A      1.279680
      71A      1.280511    72A      1.285097    73A      1.329260
      74A      1.329428    75A      1.365391    76A      1.371065
      77A      1.371522    78A      1.393512    79A      1.407381
      80A      1.407603    81A      1.421871    82A      1.422486
      83A      1.428202    84A      1.492541    85A      1.509526
      86A      1.547234    87A      1.547250    88A      1.582314
      89A      1.582322    90A      1.674677    91A      1.744982
      92A      1.745394    93A      1.779095    94A      1.834972
      95A      1.835525    96A      1.972593    97A      2.024890
      98A      2.026011    99A      2.039679   100A      2.058839
     101A      2.059890   102A      2.746551   103A      2.747092
     104A      2.811828   105A      2.816067   106A      2.902168
     107A      2.903111   108A      2.924639   109A      2.931538
     110A      2.932420   111A      2.960061   112A      2.968764
     113A      2.969085   114A      3.041941   115A      3.080763
     116A      3.081639   117A      3.086160   118A      3.184378
     119A      3.184522   120A      3.188452   121A      3.289839
     122A      3.290356   123A      3.330590   124A      3.331367
     125A      3.383420   126A      3.492312   127A      3.493420
     128A      3.512331   129A      3.528448   130A      3.575004
     131A      3.581544   132A      3.581910   133A      3.670892
     134A      3.671364   135A      3.692951   136A      3.725584
     137A      3.725887   138A      3.780638   139A      3.782056
     140A      3.817682   141A      3.921597   142A      3.922526
     143A      4.045328   144A      4.117910   145A      4.118455
     146A      4.154369   147A      4.156285   148A      4.187304
     149A      4.208566   150A      4.209170   151A      4.210869
     152A      4.215372   153A      4.322783   154A      4.324029
     155A      4.362329   156A      4.432594   157A      4.432726
     158A      4.446338   159A      4.524464   160A      4.524804
     161A      4.588417   162A      4.589008   163A      4.625058
     164A      4.719787   165A      4.780952   166A      4.782167
     167A      4.839825   168A      4.967641   169A      5.006797
     170A      5.007245   171A      5.233757   172A      5.248580
     173A      5.248638   174A      5.361404   175A      5.362567
     176A      5.481670

    Final Occupation by Irrep:
              A
    DOCC [    16 ]
    SOCC [     1 ]

  @DF-UKS Final Energy:  -157.81305944985326

   => Energetics <=

    Nuclear Repulsion Energy =            125.3946934576369046
    One-Electron Energy =                -458.7490223662035760
    Two-Electron Energy =                 195.8484154858234092
    DFT Exchange-Correlation Energy =     -20.3071460271099724
    Empirical Dispersion Energy =           0.0000000000000000
    VV10 Nonlocal Energy =                  0.0000000000000000
    Total Energy =                       -157.8130594498532560

  UHF NO Occupations:
  HONO-2 :   15  A 1.9996009
  HONO-1 :   16  A 1.9989804
  HONO-0 :   17  A 1.0000000
  LUNO+0 :   18  A 0.0010196
  LUNO+1 :   19  A 0.0003991
  LUNO+2 :   20  A 0.0001986
  LUNO+3 :   21  A 0.0001965

Computation Completed

Properties will be evaluated at   0.000000,   0.000000,   0.000000 [a0]

Properties computed using the SCF density matrix

  Nuclear Dipole Moment: [e a0]
     X:     0.8272      Y:    -0.0096      Z:     0.0000

  Electronic Dipole Moment: [e a0]
     X:    -0.7493      Y:     0.0109      Z:    -0.0000

  Dipole Moment: [e a0]
     X:     0.0779      Y:     0.0012      Z:     0.0000     Total:     0.0779

  Dipole Moment: [D]
     X:     0.1980      Y:     0.0031      Z:     0.0000     Total:     0.1981

*** tstop() called on n023 at Fri Nov  5 13:47:45 2021
Module time:
	user time   =     633.06 seconds =      10.55 minutes
	system time =      12.10 seconds =       0.20 minutes
	total time  =        162 seconds =       2.70 minutes
Total time:
	user time   =     633.06 seconds =      10.55 minutes
	system time =      12.10 seconds =       0.20 minutes
	total time  =        162 seconds =       2.70 minutes
Grab this energy -157.81305944985326
    Psi4 stopped on: Friday, 05 November 2021 01:47PM
    Psi4 wall time for execution: 0:02:42.20

*** Psi4 exiting successfully. Buy a developer a beer!
