                               Psi4 1.4a2.dev629

  ==> Input File <==

--------------------------------------------------------------------------
import os
memory 14 GB

molecule {
 C   -0.3233303587   -0.0047623256   -0.0000000000
 C    0.0613935995   -1.3982637470   -2.4323755281
 C    0.0605187322    2.7939625869    0.0000000000
 C    0.0613935995   -1.3982637470    2.4323755281
 H    2.0881648818   -1.6409325823   -2.8580676821
 H   -0.7666723839   -0.3779404445   -4.0250400200
 H   -0.7637257992   -3.2895575092   -2.3620327259
 H    2.0843256490    3.2728536704    0.0000000000
 H   -0.7662212479    3.6756551603    1.6764155788
 H   -0.7662212479    3.6756551603   -1.6764155788
 H    2.0881648818   -1.6409325823    2.8580676821
 H   -0.7637257992   -3.2895575092    2.3620327259
 H   -0.7666723839   -0.3779404445    4.0250400200
units bohr
0 2
}

basis {

assign 6-31g_2dfp_

[ 6-31g_2dfp_ ]

spherical

!----------------------------------------------------------------------
! Basis Set Exchange
! Version v0.8.13
! https://www.basissetexchange.org
!----------------------------------------------------------------------
!   Basis set: 6-31G(2df,p)
! Description: 6-31G(2df,p)
!        Role: orbital
!     Version: 0  (Data from the original Basis Set Exchange)
!----------------------------------------------------------------------

****
H     0
S    3   1.00
     18.7311370              0.03349460
      2.8253937              0.23472695
      0.6401217              0.81375733
S    1   1.00
      0.1612778              1.00000000
P    1   1.00
      1.5000000              1.0000000
P    1   1.00
      0.3750000              1.0000000
****
B     0
S    6   1.00
   2068.8823000              0.0018663
    310.6495700              0.0142515
     70.6830330              0.0695516
     19.8610800              0.2325729
      6.2993048              0.4670787
      2.1270270              0.3634314
SP   3   1.00
      4.7279710             -0.1303938              0.0745976
      1.1903377             -0.1307889              0.3078467
      0.3594117              1.1309444              0.7434568
SP   1   1.00
      0.1267512              1.0000000              1.0000000
D    1   1.00
      0.8020000              1.0000000
D    1   1.00
      0.2005000              1.0000000
F    1   1.00
      0.5000000              1.0000000
****
C     0
S    6   1.00
   3047.5249000              0.0018347
    457.3695100              0.0140373
    103.9486900              0.0688426
     29.2101550              0.2321844
      9.2866630              0.4679413
      3.1639270              0.3623120
SP   3   1.00
      7.8682724             -0.1193324              0.0689991
      1.8812885             -0.1608542              0.3164240
      0.5442493              1.1434564              0.7443083
SP   1   1.00
      0.1687144              1.0000000              1.0000000
D    1   1.00
      1.2520000              1.0000000
D    1   1.00
      0.3130000              1.0000000
F    1   1.00
      0.8000000              1.0000000
****
N     0
S    6   1.00
   4173.5110000              0.0018348
    627.4579000              0.0139950
    142.9021000              0.0685870
     40.2343300              0.2322410
     12.8202100              0.4690700
      4.3904370              0.3604550
SP   3   1.00
     11.6263580             -0.1149610              0.0675800
      2.7162800             -0.1691180              0.3239070
      0.7722180              1.1458520              0.7408950
SP   1   1.00
      0.2120313              1.0000000              1.0000000
D    1   1.00
      1.8260000              1.0000000
D    1   1.00
      0.4565000              1.0000000
F    1   1.00
      1.0000000              1.0000000
****
O     0
S    6   1.00
   5484.6717000              0.0018311
    825.2349500              0.0139501
    188.0469600              0.0684451
     52.9645000              0.2327143
     16.8975700              0.4701930
      5.7996353              0.3585209
SP   3   1.00
     15.5396160             -0.1107775              0.0708743
      3.5999336             -0.1480263              0.3397528
      1.0137618              1.1307670              0.7271586
SP   1   1.00
      0.2700058              1.0000000              1.0000000
D    1   1.00
      2.5840000              1.0000000
D    1   1.00
      0.6460000              1.0000000
F    1   1.00
      1.4000000              1.0000000
****
F     0
S    6   1.00
   7001.7130900              0.0018196169
   1051.3660900              0.0139160796
    239.2856900              0.0684053245
     67.3974453              0.233185760
     21.5199573              0.471267439
      7.40310130             0.356618546
SP   3   1.00
     20.8479528             -0.108506975            0.0716287243
      4.80830834            -0.146451658            0.3459121030
      1.34406986             1.128688580            0.7224699570
SP   1   1.00
      0.358151393            1.0000000              1.0000000
D    1   1.00
      3.5000000              1.0000000
D    1   1.00
      0.8750000              1.0000000
F    1   1.00
      1.8500000              1.0000000
****
Al     0
S    6   1.00
  13983.1000000              0.00194267
   2098.7500000              0.0148599
    477.7050000              0.0728494
    134.3600000              0.2468300
     42.8709000              0.4872580
     14.5189000              0.3234960
SP   6   1.00
    239.6680000             -0.00292619             0.00460285
     57.4419000             -0.0374080              0.0331990
     18.2859000             -0.1144870              0.1362820
      6.5991400              0.1156350              0.3304760
      2.4904900              0.6125950              0.4491460
      0.9445400              0.3937990              0.2657040
SP   3   1.00
      1.2779000             -0.2276060             -0.0175130
      0.3975900              0.00144583             0.2445330
      0.1600950              1.0927900              0.8049340
SP   1   1.00
      0.0556577              1.0000000              1.0000000
D    1   1.00
      0.6500000              1.0000000
D    1   1.00
      0.1625000              1.0000000
F    1   1.00
      0.2500000              1.0000000
****
Si     0
S    6   1.00
  16115.9000000              0.00195948
   2425.5800000              0.01492880
    553.8670000              0.07284780
    156.3400000              0.24613000
     50.0683000              0.48591400
     17.0178000              0.32500200
SP   6   1.00
    292.7180000             -0.00278094             0.00443826
     69.8731000             -0.03571460             0.03266790
     22.3363000             -0.11498500             0.13472100
      8.1503900              0.09356340             0.32867800
      3.1345800              0.60301700             0.44964000
      1.2254300              0.41895900             0.26137200
SP   3   1.00
      1.7273800             -0.24463000            -0.01779510
      0.5729220              0.00431572             0.25353900
      0.2221920              1.09818000             0.80066900
SP   1   1.00
      0.0778369              1.00000000             1.00000000
D    1   1.00
      0.9000000              1.0000000
D    1   1.00
      0.2250000              1.0000000
F    1   1.00
      0.3200000              1.0000000
****
P     0
S    6   1.00
  19413.3000000              0.0018516
   2909.4200000              0.0142062
    661.3640000              0.0699995
    185.7590000              0.2400790
     59.1943000              0.4847620
     20.0310000              0.3352000
SP   6   1.00
    339.4780000             -0.00278217             0.00456462
     81.0101000             -0.0360499              0.03369360
     25.8780000             -0.1166310              0.13975500
      9.4522100              0.0968328              0.33936200
      3.6656600              0.6144180              0.45092100
      1.4674600              0.4037980              0.23858600
SP   3   1.00
      2.1562300             -0.2529230             -0.01776530
      0.7489970              0.0328517              0.27405800
      0.2831450              1.0812500              0.78542100
SP   1   1.00
      0.0998317              1.0000000              1.00000000
D    1   1.00
      1.1000000              1.0000000
D    1   1.00
      0.2750000              1.0000000
F    1   1.00
      0.4500000              1.0000000
****
S     0
S    6   1.00
  21917.1000000              0.0018690
   3301.4900000              0.0142300
    754.1460000              0.0696960
    212.7110000              0.2384870
     67.9896000              0.4833070
     23.0515000              0.3380740
SP   6   1.00
    423.7350000             -0.0023767              0.0040610
    100.7100000             -0.0316930              0.0306810
     32.1599000             -0.1133170              0.1304520
     11.8079000              0.0560900              0.3272050
      4.6311000              0.5922550              0.4528510
      1.8702500              0.4550060              0.2560420
SP   3   1.00
      2.6158400             -0.2503740             -0.0145110
      0.9221670              0.0669570              0.3102630
      0.3412870              1.0545100              0.7544830
SP   1   1.00
      0.1171670              1.0000000              1.0000000
D    1   1.00
      1.3000000              1.0000000
D    1   1.00
      0.3250000              1.0000000
F    1   1.00
      0.5500000              1.0000000
****
Cl     0
S    6   1.00
  25180.1000000              0.0018330
   3780.3500000              0.0140340
    860.4740000              0.0690970
    242.1450000              0.2374520
     77.3349000              0.4830340
     26.2470000              0.3398560
SP   6   1.00
    491.7650000             -0.0022974              0.0039894
    116.9840000             -0.0307140              0.0303180
     37.4153000             -0.1125280              0.1298800
     13.7834000              0.0450160              0.3279510
      5.4521500              0.5893530              0.4535270
      2.2258800              0.4652060              0.2521540
SP   3   1.00
      3.1864900             -0.2518300             -0.0142990
      1.1442700              0.0615890              0.3235720
      0.4203770              1.0601800              0.7435070
SP   1   1.00
      0.1426570              1.0000000              1.0000000
D    1   1.00
      1.5000000              1.0000000
D    1   1.00
      0.3750000              1.0000000
F    1   1.00
      0.7000000              1.0000000
****
}

set {
reference uhf
freeze_core true
e_convergence 10
d_convergence 10
dft_spherical_points 1202
dft_radial_points 99
}

e = energy('b3lyp')

print_out('Grab this energy {0}'.format(e))
--------------------------------------------------------------------------

    Molecular point group: cs

    Geometry (in Bohr), charge = 0, multiplicity = 2:

       Center              X                  Y                   Z               Mass
    ------------   -----------------  -----------------  -----------------  -----------------
         C           -0.323333355153    -0.003350618443     0.000000000000    12.000000000000
         C            0.061390603047    -1.396852039843    -2.432375528100    12.000000000000
         C            0.060515735747     2.795374294057     0.000000000000    12.000000000000
         C            0.061390603047    -1.396852039843     2.432375528100    12.000000000000
         H            2.088161885347    -1.639520875143    -2.858067682100     1.007825032230
         H           -0.766675380353    -0.376528737343    -4.025040020000     1.007825032230
         H           -0.763728795653    -3.288145802043    -2.362032725900     1.007825032230
         H            2.084322652547     3.274265377557     0.000000000000     1.007825032230
         H           -0.766224244353     3.677066867457     1.676415578800     1.007825032230
         H           -0.766224244353     3.677066867457    -1.676415578800     1.007825032230
         H            2.088161885347    -1.639520875143     2.858067682100     1.007825032230
         H           -0.763728795653    -3.288145802043     2.362032725900     1.007825032230
         H           -0.766675380353    -0.376528737343     4.025040020000     1.007825032230

  Charge       = 0
  Multiplicity = 2
  Basis Set: ANONYMOUSB054C945
    Blend: 6-31G_2DFP_
  Basis Set: (ANONYMOUSB054C945 AUX)
    Blend: DEF2-UNIVERSAL-JKFIT

    Orbital Energies [Eh]
    ---------------------

    Alpha Occupied:

       1Ap   -10.180342     1App  -10.167169     2Ap   -10.167141
       3Ap   -10.166736     4Ap    -0.797770     2App   -0.686376
       5Ap    -0.685996     6Ap    -0.530776     7Ap    -0.441130
       3App   -0.434851     8Ap    -0.434492     9Ap    -0.382676
       4App   -0.382517     5App   -0.363611     6App   -0.338114
      10Ap    -0.337880    11Ap    -0.168961

    Alpha Virtual:

      12Ap     0.076073     7App    0.133868    13Ap     0.134442
       8App    0.142286    14Ap     0.142971    15Ap     0.154879
       9App    0.178421    16Ap     0.179134    17Ap     0.203544
      10App    0.214806    11App    0.275795    18Ap     0.276179
      19Ap     0.399168    12App    0.399219    20Ap     0.403422
      13App    0.424066    21Ap     0.424132    22Ap     0.456592
      14App    0.494995    23Ap     0.495768    15App    0.512175
      24Ap     0.513995    16App    0.578677    25Ap     0.578916
      17App    0.591375    26Ap     0.591896    27Ap     0.602599
      28Ap     0.624764    18App    0.631767    29Ap     0.636251
      19App    0.636252    20App    0.663238    30Ap     0.663593
      21App    0.683729    31Ap     0.683979    32Ap     0.734993
      22App    0.824516    33Ap     0.826287    23App    0.853916
      24App    0.914471    34Ap     0.915583    25App    0.944114
      35Ap     0.944477    36Ap     0.961250    26App    0.961512
      37Ap     1.003469    27App    1.127383    38Ap     1.128858
      39Ap     1.142199    28App    1.162942    40Ap     1.163602
      41Ap     1.223339    29App    1.274074    42Ap     1.274931
      43Ap     1.279325    44Ap     1.324351    30App    1.324361
      45Ap     1.355983    31App    1.365289    46Ap     1.366796
      32App    1.392391    33App    1.402804    47Ap     1.405368
      34App    1.416266    48Ap     1.417962    35App    1.427930
      36App    1.491460    49Ap     1.499042    37App    1.542526
      50Ap     1.543216    38App    1.572153    51Ap     1.576804
      52Ap     1.669819    39App    1.738270    53Ap     1.740481
      54Ap     1.768406    40App    1.831321    55Ap     1.831490
      41App    1.971745    42App    2.017534    56Ap     2.018284
      57Ap     2.020539    43App    2.049688    58Ap     2.055678
      44App    2.738210    59Ap     2.738771    60Ap     2.790922
      45App    2.811437    61Ap     2.889684    46App    2.890216
      62Ap     2.894947    47App    2.929017    63Ap     2.929973
      48App    2.958949    49App    2.963735    64Ap     2.965088
      65Ap     3.034006    50App    3.069599    66Ap     3.072930
      51App    3.084399    52App    3.168274    67Ap     3.169323
      68Ap     3.180561    69Ap     3.284466    53App    3.286131
      54App    3.327097    70Ap     3.327237    71Ap     3.375667
      55App    3.488543    72Ap     3.491671    56App    3.514017
      73Ap     3.525296    57App    3.567353    74Ap     3.569511
      58App    3.575172    59App    3.665860    75Ap     3.666960
      76Ap     3.679659    60App    3.693918    77Ap     3.694251
      78Ap     3.775730    61App    3.777704    79Ap     3.789400
      62App    3.910948    80Ap     3.913530    81Ap     4.034467
      63App    4.109884    82Ap     4.112857    64App    4.146422
      83Ap     4.149788    84Ap     4.173239    65App    4.201715
      85Ap     4.202374    86Ap     4.204720    66App    4.210905
      67App    4.315794    87Ap     4.316108    68App    4.358973
      69App    4.424155    88Ap     4.424650    70App    4.443572
      71App    4.515395    89Ap     4.518234    72App    4.577224
      90Ap     4.579303    91Ap     4.617598    92Ap     4.709479
      73App    4.772635    93Ap     4.776495    74App    4.836979
      94Ap     4.962861    75App    5.001410    95Ap     5.004537
      96Ap     5.228025    76App    5.246428    97Ap     5.247222
      77App    5.354854    98Ap     5.356168    78App    5.479330

    Beta Occupied:

       1App  -10.167923     1Ap   -10.167906     2Ap   -10.167496
       3Ap   -10.166519     4Ap    -0.781096     2App   -0.684188
       5Ap    -0.683789     6Ap    -0.511748     3App   -0.431219
       7Ap    -0.430868     8Ap    -0.421826     9Ap    -0.376757
       4App   -0.376606     5App   -0.362594     6App   -0.333253
      10Ap    -0.332988

    Beta Virtual:

      11Ap    -0.025743    12Ap     0.077082     7App    0.134754
      13Ap     0.135336     8App    0.144184    14Ap     0.144814
      15Ap     0.163339     9App    0.182079    16Ap     0.182820
      10App    0.215036    17Ap     0.218927    11App    0.282126
      18Ap     0.282544    19Ap     0.400379    12App    0.400408
      20Ap     0.419805    13App    0.426863    21Ap     0.426958
      22Ap     0.468501    14App    0.497253    23Ap     0.498042
      15App    0.513910    24Ap     0.556331    16App    0.584264
      25Ap     0.584434    17App    0.597534    26Ap     0.598100
      27Ap     0.610006    28Ap     0.628146    18App    0.631926
      29Ap     0.639522    19App    0.639555    20App    0.666783
      30Ap     0.667172    21App    0.686297    31Ap     0.686683
      32Ap     0.757515    22App    0.829676    33Ap     0.831462
      23App    0.855270    24App    0.922456    34Ap     0.923542
      25App    0.945962    35Ap     0.953372    36Ap     0.966529
      26App    0.966872    37Ap     1.008706    27App    1.131373
      38Ap     1.132930    39Ap     1.155550    28App    1.168015
      40Ap     1.168698    41Ap     1.232308    29App    1.279653
      42Ap     1.280545    43Ap     1.285080    44Ap     1.329327
      30App    1.329362    45Ap     1.365393    31App    1.370445
      46Ap     1.372130    32App    1.393455    33App    1.406295
      47Ap     1.408809    34App    1.421311    48Ap     1.423009
      35App    1.428202    36App    1.492512    49Ap     1.509484
      37App    1.546936    50Ap     1.547619    38App    1.580075
      51Ap     1.584629    52Ap     1.674664    39App    1.744039
      53Ap     1.746245    54Ap     1.779176    40App    1.835155
      55Ap     1.835368    41App    1.972606    42App    2.023893
      56Ap     2.026982    57Ap     2.039660    43App    2.056478
      58Ap     2.062316    44App    2.746488    59Ap     2.747165
      45App    2.811849    60Ap     2.816056    61Ap     2.902390
      46App    2.902890    62Ap     2.924649    47App    2.931602
      63Ap     2.932354    48App    2.960035    49App    2.968286
      64Ap     2.969601    65Ap     3.041941    50App    3.079261
      66Ap     3.082992    51App    3.086322    52App    3.184133
      67Ap     3.184952    68Ap     3.188240    69Ap     3.289299
      53App    3.290901    54App    3.330883    70Ap     3.331060
      71Ap     3.383486    55App    3.491296    72Ap     3.494373
      56App    3.512396    73Ap     3.528350    57App    3.575004
      58App    3.580507    74Ap     3.583054    59App    3.670594
      75Ap     3.671710    76Ap     3.692955    77Ap     3.725683
      60App    3.725753    78Ap     3.780391    61App    3.782219
      79Ap     3.817821    62App    3.920771    80Ap     3.923340
      81Ap     4.045353    63App    4.116732    82Ap     4.119642
      64App    4.153604    83Ap     4.157026    84Ap     4.187294
      65App    4.207615    85Ap     4.209701    86Ap     4.211327
      66App    4.215390    67App    4.323282    87Ap     4.323501
      68App    4.362334    69App    4.432345    88Ap     4.432852
      70App    4.446494    71App    4.523290    89Ap     4.525916
      72App    4.587761    90Ap     4.589968    91Ap     4.624793
      92Ap     4.719823    73App    4.779517    93Ap     4.783516
      74App    4.839900    94Ap     4.967655    75App    5.005465
      95Ap     5.008562    96Ap     5.233736    76App    5.248219
      97Ap     5.249003    77App    5.361309    98Ap     5.362674
      78App    5.481651

    Final Occupation by Irrep:
             Ap   App
    DOCC [    10,    6 ]
    SOCC [     1,    0 ]

  @DF-UKS Final Energy:  -157.81305954678734

   => Energetics <=

    Nuclear Repulsion Energy =            125.3948487165503565
    One-Electron Energy =                -458.7493317178182792
    Two-Electron Energy =                 195.8485697780270982
    DFT Exchange-Correlation Energy =     -20.3071463235465295
    Empirical Dispersion Energy =           0.0000000000000000
    VV10 Nonlocal Energy =                  0.0000000000000000
    Total Energy =                       -157.8130595467873434

  UHF NO Occupations:
  HONO-2 :    9 Ap 1.9996009
  HONO-1 :   10 Ap 1.9989804
  HONO-0 :   11 Ap 1.0000000
  LUNO+0 :   12 Ap 0.0010196
  LUNO+1 :   13 Ap 0.0003991
  LUNO+2 :   14 Ap 0.0001977
  LUNO+3 :    7App 0.0001974

Computation Completed

Properties will be evaluated at   0.000000,   0.000000,   0.000000 [a0]

Properties computed using the SCF density matrix

  Nuclear Dipole Moment: [e a0]
     X:     0.8272      Y:     0.0099      Z:     0.0000

  Electronic Dipole Moment: [e a0]
     X:    -0.7493      Y:    -0.0099      Z:     0.0000

  Dipole Moment: [e a0]
     X:     0.0779      Y:     0.0000      Z:     0.0000     Total:     0.0779

  Dipole Moment: [D]
     X:     0.1980      Y:     0.0000      Z:     0.0000     Total:     0.1980

*** tstop() called on n065 at Fri Nov  5 15:26:06 2021
Module time:
	user time   =     540.72 seconds =       9.01 minutes
	system time =      12.01 seconds =       0.20 minutes
	total time  =        139 seconds =       2.32 minutes
Total time:
	user time   =     540.72 seconds =       9.01 minutes
	system time =      12.01 seconds =       0.20 minutes
	total time  =        139 seconds =       2.32 minutes
Grab this energy -157.81305954678734
    Psi4 stopped on: Friday, 05 November 2021 03:26PM
    Psi4 wall time for execution: 0:02:19.13

*** Psi4 exiting successfully. Buy a developer a beer!
