                               Psi4 1.4a2.dev629

  ==> Input File <==

--------------------------------------------------------------------------
import os
memory 14 GB

molecule {
 C   -0.3233408926   -0.0020003140   -0.0024287508
 C    0.0603728263   -1.4004478491   -2.4248876710
 C    0.0611742757    2.8026051481   -0.0012502478
 C    0.0617514894   -1.4026170876    2.4261410160
 H    2.0848174588   -1.6478235403   -2.8434646357
 H   -0.7630099466   -0.3834344700   -4.0215394112
 H   -0.7699026322   -3.2903210222   -2.3511541362
 H    2.0865645138    3.2926896210    0.0033554705
 H   -0.7705089356    3.6771363839    1.6739172558
 H   -0.7617898111    3.6829290124   -1.6806001562
 H    2.0892719317   -1.6442233000    2.8438999865
 H   -0.7630955521   -3.2967839984    2.3565290078
 H   -0.7649126023   -0.3877328974    4.0214822722
units bohr
0 2
}

basis {

assign 6-31g_2dfp_

[ 6-31g_2dfp_ ]

spherical

!----------------------------------------------------------------------
! Basis Set Exchange
! Version v0.8.13
! https://www.basissetexchange.org
!----------------------------------------------------------------------
!   Basis set: 6-31G(2df,p)
! Description: 6-31G(2df,p)
!        Role: orbital
!     Version: 0  (Data from the original Basis Set Exchange)
!----------------------------------------------------------------------

****
H     0
S    3   1.00
     18.7311370              0.03349460
      2.8253937              0.23472695
      0.6401217              0.81375733
S    1   1.00
      0.1612778              1.00000000
P    1   1.00
      1.5000000              1.0000000
P    1   1.00
      0.3750000              1.0000000
****
B     0
S    6   1.00
   2068.8823000              0.0018663
    310.6495700              0.0142515
     70.6830330              0.0695516
     19.8610800              0.2325729
      6.2993048              0.4670787
      2.1270270              0.3634314
SP   3   1.00
      4.7279710             -0.1303938              0.0745976
      1.1903377             -0.1307889              0.3078467
      0.3594117              1.1309444              0.7434568
SP   1   1.00
      0.1267512              1.0000000              1.0000000
D    1   1.00
      0.8020000              1.0000000
D    1   1.00
      0.2005000              1.0000000
F    1   1.00
      0.5000000              1.0000000
****
C     0
S    6   1.00
   3047.5249000              0.0018347
    457.3695100              0.0140373
    103.9486900              0.0688426
     29.2101550              0.2321844
      9.2866630              0.4679413
      3.1639270              0.3623120
SP   3   1.00
      7.8682724             -0.1193324              0.0689991
      1.8812885             -0.1608542              0.3164240
      0.5442493              1.1434564              0.7443083
SP   1   1.00
      0.1687144              1.0000000              1.0000000
D    1   1.00
      1.2520000              1.0000000
D    1   1.00
      0.3130000              1.0000000
F    1   1.00
      0.8000000              1.0000000
****
N     0
S    6   1.00
   4173.5110000              0.0018348
    627.4579000              0.0139950
    142.9021000              0.0685870
     40.2343300              0.2322410
     12.8202100              0.4690700
      4.3904370              0.3604550
SP   3   1.00
     11.6263580             -0.1149610              0.0675800
      2.7162800             -0.1691180              0.3239070
      0.7722180              1.1458520              0.7408950
SP   1   1.00
      0.2120313              1.0000000              1.0000000
D    1   1.00
      1.8260000              1.0000000
D    1   1.00
      0.4565000              1.0000000
F    1   1.00
      1.0000000              1.0000000
****
O     0
S    6   1.00
   5484.6717000              0.0018311
    825.2349500              0.0139501
    188.0469600              0.0684451
     52.9645000              0.2327143
     16.8975700              0.4701930
      5.7996353              0.3585209
SP   3   1.00
     15.5396160             -0.1107775              0.0708743
      3.5999336             -0.1480263              0.3397528
      1.0137618              1.1307670              0.7271586
SP   1   1.00
      0.2700058              1.0000000              1.0000000
D    1   1.00
      2.5840000              1.0000000
D    1   1.00
      0.6460000              1.0000000
F    1   1.00
      1.4000000              1.0000000
****
F     0
S    6   1.00
   7001.7130900              0.0018196169
   1051.3660900              0.0139160796
    239.2856900              0.0684053245
     67.3974453              0.233185760
     21.5199573              0.471267439
      7.40310130             0.356618546
SP   3   1.00
     20.8479528             -0.108506975            0.0716287243
      4.80830834            -0.146451658            0.3459121030
      1.34406986             1.128688580            0.7224699570
SP   1   1.00
      0.358151393            1.0000000              1.0000000
D    1   1.00
      3.5000000              1.0000000
D    1   1.00
      0.8750000              1.0000000
F    1   1.00
      1.8500000              1.0000000
****
Al     0
S    6   1.00
  13983.1000000              0.00194267
   2098.7500000              0.0148599
    477.7050000              0.0728494
    134.3600000              0.2468300
     42.8709000              0.4872580
     14.5189000              0.3234960
SP   6   1.00
    239.6680000             -0.00292619             0.00460285
     57.4419000             -0.0374080              0.0331990
     18.2859000             -0.1144870              0.1362820
      6.5991400              0.1156350              0.3304760
      2.4904900              0.6125950              0.4491460
      0.9445400              0.3937990              0.2657040
SP   3   1.00
      1.2779000             -0.2276060             -0.0175130
      0.3975900              0.00144583             0.2445330
      0.1600950              1.0927900              0.8049340
SP   1   1.00
      0.0556577              1.0000000              1.0000000
D    1   1.00
      0.6500000              1.0000000
D    1   1.00
      0.1625000              1.0000000
F    1   1.00
      0.2500000              1.0000000
****
Si     0
S    6   1.00
  16115.9000000              0.00195948
   2425.5800000              0.01492880
    553.8670000              0.07284780
    156.3400000              0.24613000
     50.0683000              0.48591400
     17.0178000              0.32500200
SP   6   1.00
    292.7180000             -0.00278094             0.00443826
     69.8731000             -0.03571460             0.03266790
     22.3363000             -0.11498500             0.13472100
      8.1503900              0.09356340             0.32867800
      3.1345800              0.60301700             0.44964000
      1.2254300              0.41895900             0.26137200
SP   3   1.00
      1.7273800             -0.24463000            -0.01779510
      0.5729220              0.00431572             0.25353900
      0.2221920              1.09818000             0.80066900
SP   1   1.00
      0.0778369              1.00000000             1.00000000
D    1   1.00
      0.9000000              1.0000000
D    1   1.00
      0.2250000              1.0000000
F    1   1.00
      0.3200000              1.0000000
****
P     0
S    6   1.00
  19413.3000000              0.0018516
   2909.4200000              0.0142062
    661.3640000              0.0699995
    185.7590000              0.2400790
     59.1943000              0.4847620
     20.0310000              0.3352000
SP   6   1.00
    339.4780000             -0.00278217             0.00456462
     81.0101000             -0.0360499              0.03369360
     25.8780000             -0.1166310              0.13975500
      9.4522100              0.0968328              0.33936200
      3.6656600              0.6144180              0.45092100
      1.4674600              0.4037980              0.23858600
SP   3   1.00
      2.1562300             -0.2529230             -0.01776530
      0.7489970              0.0328517              0.27405800
      0.2831450              1.0812500              0.78542100
SP   1   1.00
      0.0998317              1.0000000              1.00000000
D    1   1.00
      1.1000000              1.0000000
D    1   1.00
      0.2750000              1.0000000
F    1   1.00
      0.4500000              1.0000000
****
S     0
S    6   1.00
  21917.1000000              0.0018690
   3301.4900000              0.0142300
    754.1460000              0.0696960
    212.7110000              0.2384870
     67.9896000              0.4833070
     23.0515000              0.3380740
SP   6   1.00
    423.7350000             -0.0023767              0.0040610
    100.7100000             -0.0316930              0.0306810
     32.1599000             -0.1133170              0.1304520
     11.8079000              0.0560900              0.3272050
      4.6311000              0.5922550              0.4528510
      1.8702500              0.4550060              0.2560420
SP   3   1.00
      2.6158400             -0.2503740             -0.0145110
      0.9221670              0.0669570              0.3102630
      0.3412870              1.0545100              0.7544830
SP   1   1.00
      0.1171670              1.0000000              1.0000000
D    1   1.00
      1.3000000              1.0000000
D    1   1.00
      0.3250000              1.0000000
F    1   1.00
      0.5500000              1.0000000
****
Cl     0
S    6   1.00
  25180.1000000              0.0018330
   3780.3500000              0.0140340
    860.4740000              0.0690970
    242.1450000              0.2374520
     77.3349000              0.4830340
     26.2470000              0.3398560
SP   6   1.00
    491.7650000             -0.0022974              0.0039894
    116.9840000             -0.0307140              0.0303180
     37.4153000             -0.1125280              0.1298800
     13.7834000              0.0450160              0.3279510
      5.4521500              0.5893530              0.4535270
      2.2258800              0.4652060              0.2521540
SP   3   1.00
      3.1864900             -0.2518300             -0.0142990
      1.1442700              0.0615890              0.3235720
      0.4203770              1.0601800              0.7435070
SP   1   1.00
      0.1426570              1.0000000              1.0000000
D    1   1.00
      1.5000000              1.0000000
D    1   1.00
      0.3750000              1.0000000
F    1   1.00
      0.7000000              1.0000000
****
}

set {
reference uhf
freeze_core true
e_convergence 10
d_convergence 10
dft_spherical_points 1202
dft_radial_points 99
}

e = energy('b3lyp')

print_out('Grab this energy {0}'.format(e))
--------------------------------------------------------------------------

    Molecular point group: c1

    Geometry (in Bohr), charge = 0, multiplicity = 2:

       Center              X                  Y                   Z               Mass
    ------------   -----------------  -----------------  -----------------  -----------------
         C           -0.323340446451    -0.001526051158    -0.001961552444    12.000000000000
         C            0.060373272449    -1.399973586258    -2.424420472644    12.000000000000
         C            0.061174721849     2.803079410942    -0.000783049444    12.000000000000
         C            0.061751935549    -1.402142824758     2.426608214356    12.000000000000
         H            2.084817904949    -1.647349277458    -2.842997437344     1.007825032230
         H           -0.763009500451    -0.382960207158    -4.021072212844     1.007825032230
         H           -0.769902186051    -3.289846759358    -2.350686937844     1.007825032230
         H            2.086564959949     3.293163883842     0.003822668856     1.007825032230
         H           -0.770508489451     3.677610646742     1.674384454156     1.007825032230
         H           -0.761789364951     3.683403275242    -1.680132957844     1.007825032230
         H            2.089272377849    -1.643749037158     2.844367184856     1.007825032230
         H           -0.763095105951    -3.296309735558     2.356996206156     1.007825032230
         H           -0.764912156151    -0.387258634558     4.021949470556     1.007825032230

  Charge       = 0
  Multiplicity = 2
  Basis Set: ANONYMOUS99C24340
    Blend: 6-31G_2DFP_
  Basis Set: (ANONYMOUS99C24340 AUX)
    Blend: DEF2-UNIVERSAL-JKFIT

    Orbital Energies [Eh]
    ---------------------

    Alpha Occupied:

       1A    -10.180342     2A    -10.167200     3A    -10.167109
       4A    -10.166735     5A     -0.797768     6A     -0.686373
       7A     -0.686000     8A     -0.530776     9A     -0.441130
      10A     -0.434773    11A     -0.434567    12A     -0.382654
      13A     -0.382544    14A     -0.363611    15A     -0.338161
      16A     -0.337833    17A     -0.168960

    Alpha Virtual:

      18A      0.076073    19A      0.134085    20A      0.134227
      21A      0.142563    22A      0.142687    23A      0.154879
      24A      0.178737    25A      0.178818    26A      0.203548
      27A      0.214804    28A      0.275557    29A      0.276414
      30A      0.399182    31A      0.399256    32A      0.403364
      33A      0.424033    34A      0.424165    35A      0.456594
      36A      0.495312    37A      0.495467    38A      0.512159
      39A      0.513979    40A      0.578464    41A      0.579163
      42A      0.591264    43A      0.592003    44A      0.602579
      45A      0.624758    46A      0.631771    47A      0.636160
      48A      0.636351    49A      0.663205    50A      0.663619
      51A      0.683816    52A      0.683890    53A      0.734994
      54A      0.825188    55A      0.825625    56A      0.853916
      57A      0.914826    58A      0.915215    59A      0.944121
      60A      0.944613    61A      0.960599    62A      0.961994
      63A      1.003464    64A      1.127873    65A      1.128308
      66A      1.142210    67A      1.163135    68A      1.163448
      69A      1.223328    70A      1.274241    71A      1.274733
      72A      1.279356    73A      1.324242    74A      1.324473
      75A      1.355999    76A      1.365704    77A      1.366392
      78A      1.392444    79A      1.403607    80A      1.404501
      81A      1.416645    82A      1.417583    83A      1.427918
      84A      1.491494    85A      1.499081    86A      1.542526
      87A      1.543133    88A      1.574223    89A      1.574665
      90A      1.669837    91A      1.738955    92A      1.739887
      93A      1.768310    94A      1.830752    95A      1.832042
      96A      1.971729    97A      2.017960    98A      2.018991
      99A      2.019430   100A      2.051386   101A      2.053914
     102A      2.738201   103A      2.738760   104A      2.790934
     105A      2.811411   106A      2.889465   107A      2.890344
     108A      2.895055   109A      2.929327   110A      2.929673
     111A      2.958992   112A      2.964076   113A      2.964675
     114A      3.034008   115A      3.070958   116A      3.071609
     117A      3.084347   118A      3.168572   119A      3.168972
     120A      3.180613   121A      3.285250   122A      3.285380
     123A      3.326609   124A      3.327704   125A      3.375621
     126A      3.489873   127A      3.490422   128A      3.514012
     129A      3.525294   130A      3.567508   131A      3.569202
     132A      3.575254   133A      3.666057   134A      3.666633
     135A      3.679650   136A      3.693609   137A      3.694688
     138A      3.774971   139A      3.778603   140A      3.789199
     141A      3.911677   142A      3.912796   143A      4.034446
     144A      4.109731   145A      4.112983   146A      4.147038
     147A      4.149173   148A      4.173285   149A      4.202270
     150A      4.202915   151A      4.203596   152A      4.210885
     153A      4.315000   154A      4.316877   155A      4.359033
     156A      4.423905   157A      4.425002   158A      4.443456
     159A      4.515969   160A      4.517685   161A      4.577533
     162A      4.578959   163A      4.617524   164A      4.709453
     165A      4.773403   166A      4.775827   167A      4.836962
     168A      4.962845   169A      5.002237   170A      5.003685
     171A      5.228024   172A      5.246331   173A      5.247300
     174A      5.354303   175A      5.356712   176A      5.479358

    Beta Occupied:

       1A    -10.167958     2A    -10.167868     3A    -10.167498
       4A    -10.166518     5A     -0.781093     6A     -0.684163
       7A     -0.683816     8A     -0.511747     9A     -0.431143
      10A     -0.430946    11A     -0.421819    12A     -0.376728
      13A     -0.376641    14A     -0.362595    15A     -0.333283
      16A     -0.332958

    Beta Virtual:

      17A     -0.025742    18A      0.077082    19A      0.134974
      20A      0.135117    21A      0.144430    22A      0.144563
      23A      0.163338    24A      0.182427    25A      0.182471
      26A      0.215033    27A      0.218929    28A      0.281920
      29A      0.282747    30A      0.400360    31A      0.400433
      32A      0.419791    33A      0.426835    34A      0.426988
      35A      0.468502    36A      0.497579    37A      0.497721
      38A      0.513894    39A      0.556322    40A      0.584007
      41A      0.584721    42A      0.597466    43A      0.598160
      44A      0.609999    45A      0.628136    46A      0.631930
      47A      0.639417    48A      0.639665    49A      0.666779
      50A      0.667172    51A      0.686436    52A      0.686541
      53A      0.757517    54A      0.830337    55A      0.830813
      56A      0.855269    57A      0.922817    58A      0.923165
      59A      0.945958    60A      0.953536    61A      0.965959
      62A      0.967253    63A      1.008705    64A      1.131819
      65A      1.132423    66A      1.155583    67A      1.168301
      68A      1.168428    69A      1.232300    70A      1.279833
      71A      1.280332    72A      1.285114    73A      1.329243
      74A      1.329450    75A      1.365415    76A      1.370994
      77A      1.371586    78A      1.393505    79A      1.407032
      80A      1.408003    81A      1.421703    82A      1.422625
      83A      1.428189    84A      1.492542    85A      1.509525
      86A      1.546945    87A      1.547528    88A      1.582139
      89A      1.582494    90A      1.674683    91A      1.744702
      92A      1.745663    93A      1.779089    94A      1.834605
      95A      1.835900    96A      1.972589    97A      2.025349
      98A      2.025515    99A      2.039693   100A      2.058108
     101A      2.060625   102A      2.746547   103A      2.747088
     104A      2.811825   105A      2.816066   106A      2.902236
     107A      2.903039   108A      2.924652   109A      2.931824
     110A      2.932158   111A      2.960055   112A      2.968644
     113A      2.969198   114A      3.041943   115A      3.080909
     116A      3.081477   117A      3.086164   118A      3.184270
     119A      3.184714   120A      3.188356   121A      3.290028
     122A      3.290198   123A      3.330430   124A      3.331492
     125A      3.383440   126A      3.492592   127A      3.493161
     128A      3.512384   129A      3.528348   130A      3.574911
     131A      3.580873   132A      3.582699   133A      3.671012
     134A      3.671233   135A      3.692928   136A      3.725554
     137A      3.725969   138A      3.779578   139A      3.783069
     140A      3.817724   141A      3.921540   142A      3.922568
     143A      4.045333   144A      4.116634   145A      4.119714
     146A      4.154266   147A      4.156368   148A      4.187336
     149A      4.208446   150A      4.209468   151A      4.210706
     152A      4.215364   153A      4.322400   154A      4.324349
     155A      4.362402   156A      4.432163   157A      4.433167
     158A      4.446350   159A      4.523773   160A      4.525459
     161A      4.588132   162A      4.589555   163A      4.624725
     164A      4.719798   165A      4.780413   166A      4.782724
     167A      4.839882   168A      4.967639   169A      5.006255
     170A      5.007745   171A      5.233739   172A      5.248105
     173A      5.249095   174A      5.360753   175A      5.363223
     176A      5.481679

    Final Occupation by Irrep:
              A
    DOCC [    16 ]
    SOCC [     1 ]

  @DF-UKS Final Energy:  -157.81306429748236

   => Energetics <=

    Nuclear Repulsion Energy =            125.3946574172575197
    One-Electron Energy =                -458.7489666806077366
    Two-Electron Energy =                 195.8483897268319822
    DFT Exchange-Correlation Energy =     -20.3071447609641140
    Empirical Dispersion Energy =           0.0000000000000000
    VV10 Nonlocal Energy =                  0.0000000000000000
    Total Energy =                       -157.8130642974823559

  UHF NO Occupations:
  HONO-2 :   15  A 1.9996009
  HONO-1 :   16  A 1.9989804
  HONO-0 :   17  A 1.0000000
  LUNO+0 :   18  A 0.0010196
  LUNO+1 :   19  A 0.0003991
  LUNO+2 :   20  A 0.0001982
  LUNO+3 :   21  A 0.0001969

Computation Completed

Properties will be evaluated at   0.000000,   0.000000,   0.000000 [a0]

Properties computed using the SCF density matrix

  Nuclear Dipole Moment: [e a0]
     X:     0.8272      Y:     0.0033      Z:     0.0033

  Electronic Dipole Moment: [e a0]
     X:    -0.7493      Y:    -0.0033      Z:    -0.0033

  Dipole Moment: [e a0]
     X:     0.0779      Y:    -0.0000      Z:     0.0000     Total:     0.0779

  Dipole Moment: [D]
     X:     0.1980      Y:    -0.0001      Z:     0.0001     Total:     0.1980

*** tstop() called on n036 at Fri Nov  5 15:34:16 2021
Module time:
	user time   =     637.45 seconds =      10.62 minutes
	system time =      12.03 seconds =       0.20 minutes
	total time  =        163 seconds =       2.72 minutes
Total time:
	user time   =     637.45 seconds =      10.62 minutes
	system time =      12.03 seconds =       0.20 minutes
	total time  =        163 seconds =       2.72 minutes
Grab this energy -157.81306429748236
    Psi4 stopped on: Friday, 05 November 2021 03:34PM
    Psi4 wall time for execution: 0:02:43.40

*** Psi4 exiting successfully. Buy a developer a beer!
