                               Psi4 1.4a2.dev629

  ==> Input File <==

--------------------------------------------------------------------------
import os
memory 14 GB

molecule {
 C   -0.3201719037   -0.0000017088    0.0010216289
 C    0.0618170626   -1.4001763487   -2.4269697907
 C    0.0623454813    2.8015781636   -0.0018017281
 C    0.0631149705   -1.4013962389    2.4254792908
 H    2.0866756524   -1.6442259678   -2.8469629915
 H   -0.7663187742   -0.3887281548   -4.0254397521
 H   -0.7663376172   -3.2919073658   -2.3491892631
 H    2.0864655532    3.2878347487    0.0006992113
 H   -0.7665270191    3.6804053494    1.6763792263
 H   -0.7668152274    3.6805809855   -1.6758171239
 H    2.0865365312   -1.6437033359    2.8474561422
 H   -0.7668497987   -3.2916326113    2.3496060158
 H   -0.7665427876   -0.3886518287    4.0255391342
units bohr
0 2
}

basis {

assign 6-31g_2dfp_

[ 6-31g_2dfp_ ]

spherical

!----------------------------------------------------------------------
! Basis Set Exchange
! Version v0.8.13
! https://www.basissetexchange.org
!----------------------------------------------------------------------
!   Basis set: 6-31G(2df,p)
! Description: 6-31G(2df,p)
!        Role: orbital
!     Version: 0  (Data from the original Basis Set Exchange)
!----------------------------------------------------------------------

****
H     0
S    3   1.00
     18.7311370              0.03349460
      2.8253937              0.23472695
      0.6401217              0.81375733
S    1   1.00
      0.1612778              1.00000000
P    1   1.00
      1.5000000              1.0000000
P    1   1.00
      0.3750000              1.0000000
****
B     0
S    6   1.00
   2068.8823000              0.0018663
    310.6495700              0.0142515
     70.6830330              0.0695516
     19.8610800              0.2325729
      6.2993048              0.4670787
      2.1270270              0.3634314
SP   3   1.00
      4.7279710             -0.1303938              0.0745976
      1.1903377             -0.1307889              0.3078467
      0.3594117              1.1309444              0.7434568
SP   1   1.00
      0.1267512              1.0000000              1.0000000
D    1   1.00
      0.8020000              1.0000000
D    1   1.00
      0.2005000              1.0000000
F    1   1.00
      0.5000000              1.0000000
****
C     0
S    6   1.00
   3047.5249000              0.0018347
    457.3695100              0.0140373
    103.9486900              0.0688426
     29.2101550              0.2321844
      9.2866630              0.4679413
      3.1639270              0.3623120
SP   3   1.00
      7.8682724             -0.1193324              0.0689991
      1.8812885             -0.1608542              0.3164240
      0.5442493              1.1434564              0.7443083
SP   1   1.00
      0.1687144              1.0000000              1.0000000
D    1   1.00
      1.2520000              1.0000000
D    1   1.00
      0.3130000              1.0000000
F    1   1.00
      0.8000000              1.0000000
****
N     0
S    6   1.00
   4173.5110000              0.0018348
    627.4579000              0.0139950
    142.9021000              0.0685870
     40.2343300              0.2322410
     12.8202100              0.4690700
      4.3904370              0.3604550
SP   3   1.00
     11.6263580             -0.1149610              0.0675800
      2.7162800             -0.1691180              0.3239070
      0.7722180              1.1458520              0.7408950
SP   1   1.00
      0.2120313              1.0000000              1.0000000
D    1   1.00
      1.8260000              1.0000000
D    1   1.00
      0.4565000              1.0000000
F    1   1.00
      1.0000000              1.0000000
****
O     0
S    6   1.00
   5484.6717000              0.0018311
    825.2349500              0.0139501
    188.0469600              0.0684451
     52.9645000              0.2327143
     16.8975700              0.4701930
      5.7996353              0.3585209
SP   3   1.00
     15.5396160             -0.1107775              0.0708743
      3.5999336             -0.1480263              0.3397528
      1.0137618              1.1307670              0.7271586
SP   1   1.00
      0.2700058              1.0000000              1.0000000
D    1   1.00
      2.5840000              1.0000000
D    1   1.00
      0.6460000              1.0000000
F    1   1.00
      1.4000000              1.0000000
****
F     0
S    6   1.00
   7001.7130900              0.0018196169
   1051.3660900              0.0139160796
    239.2856900              0.0684053245
     67.3974453              0.233185760
     21.5199573              0.471267439
      7.40310130             0.356618546
SP   3   1.00
     20.8479528             -0.108506975            0.0716287243
      4.80830834            -0.146451658            0.3459121030
      1.34406986             1.128688580            0.7224699570
SP   1   1.00
      0.358151393            1.0000000              1.0000000
D    1   1.00
      3.5000000              1.0000000
D    1   1.00
      0.8750000              1.0000000
F    1   1.00
      1.8500000              1.0000000
****
Al     0
S    6   1.00
  13983.1000000              0.00194267
   2098.7500000              0.0148599
    477.7050000              0.0728494
    134.3600000              0.2468300
     42.8709000              0.4872580
     14.5189000              0.3234960
SP   6   1.00
    239.6680000             -0.00292619             0.00460285
     57.4419000             -0.0374080              0.0331990
     18.2859000             -0.1144870              0.1362820
      6.5991400              0.1156350              0.3304760
      2.4904900              0.6125950              0.4491460
      0.9445400              0.3937990              0.2657040
SP   3   1.00
      1.2779000             -0.2276060             -0.0175130
      0.3975900              0.00144583             0.2445330
      0.1600950              1.0927900              0.8049340
SP   1   1.00
      0.0556577              1.0000000              1.0000000
D    1   1.00
      0.6500000              1.0000000
D    1   1.00
      0.1625000              1.0000000
F    1   1.00
      0.2500000              1.0000000
****
Si     0
S    6   1.00
  16115.9000000              0.00195948
   2425.5800000              0.01492880
    553.8670000              0.07284780
    156.3400000              0.24613000
     50.0683000              0.48591400
     17.0178000              0.32500200
SP   6   1.00
    292.7180000             -0.00278094             0.00443826
     69.8731000             -0.03571460             0.03266790
     22.3363000             -0.11498500             0.13472100
      8.1503900              0.09356340             0.32867800
      3.1345800              0.60301700             0.44964000
      1.2254300              0.41895900             0.26137200
SP   3   1.00
      1.7273800             -0.24463000            -0.01779510
      0.5729220              0.00431572             0.25353900
      0.2221920              1.09818000             0.80066900
SP   1   1.00
      0.0778369              1.00000000             1.00000000
D    1   1.00
      0.9000000              1.0000000
D    1   1.00
      0.2250000              1.0000000
F    1   1.00
      0.3200000              1.0000000
****
P     0
S    6   1.00
  19413.3000000              0.0018516
   2909.4200000              0.0142062
    661.3640000              0.0699995
    185.7590000              0.2400790
     59.1943000              0.4847620
     20.0310000              0.3352000
SP   6   1.00
    339.4780000             -0.00278217             0.00456462
     81.0101000             -0.0360499              0.03369360
     25.8780000             -0.1166310              0.13975500
      9.4522100              0.0968328              0.33936200
      3.6656600              0.6144180              0.45092100
      1.4674600              0.4037980              0.23858600
SP   3   1.00
      2.1562300             -0.2529230             -0.01776530
      0.7489970              0.0328517              0.27405800
      0.2831450              1.0812500              0.78542100
SP   1   1.00
      0.0998317              1.0000000              1.00000000
D    1   1.00
      1.1000000              1.0000000
D    1   1.00
      0.2750000              1.0000000
F    1   1.00
      0.4500000              1.0000000
****
S     0
S    6   1.00
  21917.1000000              0.0018690
   3301.4900000              0.0142300
    754.1460000              0.0696960
    212.7110000              0.2384870
     67.9896000              0.4833070
     23.0515000              0.3380740
SP   6   1.00
    423.7350000             -0.0023767              0.0040610
    100.7100000             -0.0316930              0.0306810
     32.1599000             -0.1133170              0.1304520
     11.8079000              0.0560900              0.3272050
      4.6311000              0.5922550              0.4528510
      1.8702500              0.4550060              0.2560420
SP   3   1.00
      2.6158400             -0.2503740             -0.0145110
      0.9221670              0.0669570              0.3102630
      0.3412870              1.0545100              0.7544830
SP   1   1.00
      0.1171670              1.0000000              1.0000000
D    1   1.00
      1.3000000              1.0000000
D    1   1.00
      0.3250000              1.0000000
F    1   1.00
      0.5500000              1.0000000
****
Cl     0
S    6   1.00
  25180.1000000              0.0018330
   3780.3500000              0.0140340
    860.4740000              0.0690970
    242.1450000              0.2374520
     77.3349000              0.4830340
     26.2470000              0.3398560
SP   6   1.00
    491.7650000             -0.0022974              0.0039894
    116.9840000             -0.0307140              0.0303180
     37.4153000             -0.1125280              0.1298800
     13.7834000              0.0450160              0.3279510
      5.4521500              0.5893530              0.4535270
      2.2258800              0.4652060              0.2521540
SP   3   1.00
      3.1864900             -0.2518300             -0.0142990
      1.1442700              0.0615890              0.3235720
      0.4203770              1.0601800              0.7435070
SP   1   1.00
      0.1426570              1.0000000              1.0000000
D    1   1.00
      1.5000000              1.0000000
D    1   1.00
      0.3750000              1.0000000
F    1   1.00
      0.7000000              1.0000000
****
}

set {
reference uhf
freeze_core true
e_convergence 10
d_convergence 10
dft_spherical_points 1202
dft_radial_points 99
}

e = energy('b3lyp')

print_out('Grab this energy {0}'.format(e))
--------------------------------------------------------------------------

    Molecular point group: c1

    Geometry (in Bohr), charge = 0, multiplicity = 2:

       Center              X                  Y                   Z               Mass
    ------------   -----------------  -----------------  -----------------  -----------------
         C           -0.321548196869    -0.000002024291     0.001458962639    12.000000000000
         C            0.060440769431    -1.400176664191    -2.426532456961    12.000000000000
         C            0.060969188131     2.801577848109    -0.001364394361    12.000000000000
         C            0.061738677331    -1.401396554391     2.425916624539    12.000000000000
         H            2.085299359231    -1.644226283291    -2.846525657761     1.007825032230
         H           -0.767695067369    -0.388728470291    -4.025002418361     1.007825032230
         H           -0.767713910369    -3.291907681291    -2.348751929361     1.007825032230
         H            2.085089260031     3.287834433209     0.001136545039     1.007825032230
         H           -0.767903312269     3.680405033909     1.676816560039     1.007825032230
         H           -0.768191520569     3.680580670009    -1.675379790161     1.007825032230
         H            2.085160238031    -1.643703651391     2.847893475939     1.007825032230
         H           -0.768226091869    -3.291632926791     2.350043349539     1.007825032230
         H           -0.767919080769    -0.388652144191     4.025976467939     1.007825032230

  Charge       = 0
  Multiplicity = 2
  Basis Set: ANONYMOUS685C876D
    Blend: 6-31G_2DFP_
  Basis Set: (ANONYMOUS685C876D AUX)
    Blend: DEF2-UNIVERSAL-JKFIT

    Orbital Energies [Eh]
    ---------------------

    Alpha Occupied:

       1A    -10.180229     2A    -10.167025     3A    -10.166997
       4A    -10.166951     5A     -0.797820     6A     -0.686279
       7A     -0.686120     8A     -0.530754     9A     -0.441360
      10A     -0.434534    11A     -0.434517    12A     -0.382886
      13A     -0.382809    14A     -0.363328    15A     -0.338243
      16A     -0.337656    17A     -0.168846

    Alpha Virtual:

      18A      0.076055    19A      0.134108    20A      0.134187
      21A      0.142486    22A      0.142609    23A      0.154944
      24A      0.178833    25A      0.178933    26A      0.203593
      27A      0.214670    28A      0.275999    29A      0.276249
      30A      0.399138    31A      0.399355    32A      0.403382
      33A      0.424099    34A      0.424108    35A      0.456597
      36A      0.495304    37A      0.495373    38A      0.512265
      39A      0.513976    40A      0.578685    41A      0.578769
      42A      0.591919    43A      0.591958    44A      0.602882
      45A      0.624618    46A      0.631629    47A      0.636116
      48A      0.636124    49A      0.663494    50A      0.663673
      51A      0.683817    52A      0.683840    53A      0.735123
      54A      0.825577    55A      0.825584    56A      0.853869
      57A      0.915087    58A      0.915298    59A      0.944230
      60A      0.944630    61A      0.961136    62A      0.961263
      63A      1.002573    64A      1.127854    65A      1.127890
      66A      1.142584    67A      1.163406    68A      1.163451
      69A      1.223742    70A      1.274596    71A      1.274954
      72A      1.279504    73A      1.324186    74A      1.324300
      75A      1.357026    76A      1.365463    77A      1.365950
      78A      1.392359    79A      1.404442    80A      1.404916
      81A      1.417449    82A      1.417992    83A      1.428101
      84A      1.491029    85A      1.499584    86A      1.542253
      87A      1.542599    88A      1.574059    89A      1.574693
      90A      1.669282    91A      1.739519    92A      1.739730
      93A      1.768545    94A      1.831007    95A      1.831141
      96A      1.971165    97A      2.018421    98A      2.019027
      99A      2.019815   100A      2.052416   101A      2.053616
     102A      2.738769   103A      2.738864   104A      2.791145
     105A      2.811151   106A      2.889462   107A      2.890798
     108A      2.894902   109A      2.929181   110A      2.929515
     111A      2.958830   112A      2.964117   113A      2.964701
     114A      3.034051   115A      3.071771   116A      3.072040
     117A      3.084289   118A      3.168670   119A      3.168910
     120A      3.180408   121A      3.284743   122A      3.285182
     123A      3.326186   124A      3.326276   125A      3.375917
     126A      3.490307   127A      3.490388   128A      3.514475
     129A      3.525170   130A      3.568704   131A      3.568915
     132A      3.575603   133A      3.666176   134A      3.666585
     135A      3.678658   136A      3.694391   137A      3.694435
     138A      3.777671   139A      3.777701   140A      3.790436
     141A      3.911763   142A      3.912472   143A      4.035632
     144A      4.110780   145A      4.111223   146A      4.147709
     147A      4.148085   148A      4.173380   149A      4.202971
     150A      4.203384   151A      4.203461   152A      4.210942
     153A      4.315377   154A      4.316955   155A      4.358853
     156A      4.424492   157A      4.425596   158A      4.442592
     159A      4.516535   160A      4.516893   161A      4.577895
     162A      4.578467   163A      4.618356   164A      4.709904
     165A      4.774690   166A      4.774993   167A      4.837142
     168A      4.962794   169A      5.003370   170A      5.003937
     171A      5.228116   172A      5.246560   173A      5.247039
     174A      5.355034   175A      5.355089   176A      5.479862

    Beta Occupied:

       1A    -10.167782     2A    -10.167753     3A    -10.167719
       4A    -10.166404     5A     -0.781129     6A     -0.684075
       7A     -0.683921     8A     -0.511721     9A     -0.430901
      10A     -0.430871    11A     -0.422063    12A     -0.376990
      13A     -0.376899    14A     -0.362310    15A     -0.333368
      16A     -0.332783

    Beta Virtual:

      17A     -0.025594    18A      0.077063    19A      0.134954
      20A      0.135057    21A      0.144383    22A      0.144470
      23A      0.163371    24A      0.182527    25A      0.182603
      26A      0.214904    27A      0.218997    28A      0.282349
      29A      0.282572    30A      0.400303    31A      0.400520
      32A      0.419769    33A      0.426913    34A      0.426924
      35A      0.468569    36A      0.497566    37A      0.497631
      38A      0.513995    39A      0.556369    40A      0.584244
      41A      0.584328    42A      0.598073    43A      0.598130
      44A      0.610279    45A      0.628027    46A      0.631788
      47A      0.639418    48A      0.639426    49A      0.667026
      50A      0.667214    51A      0.686453    52A      0.686480
      53A      0.757640    54A      0.830727    55A      0.830730
      56A      0.855220    57A      0.923054    58A      0.923265
      59A      0.946067    60A      0.953593    61A      0.966470
      62A      0.966577    63A      1.007764    64A      1.131997
      65A      1.132014    66A      1.155944    67A      1.168410
      68A      1.168477    69A      1.232722    70A      1.280149
      71A      1.280559    72A      1.285267    73A      1.329107
      74A      1.329242    75A      1.366461    76A      1.370676
      77A      1.371214    78A      1.393406    79A      1.407914
      80A      1.408411    81A      1.422533    82A      1.423032
      83A      1.428391    84A      1.492074    85A      1.510048
      86A      1.546546    87A      1.546914    88A      1.582039
      89A      1.582654    90A      1.674145    91A      1.745274
      92A      1.745482    93A      1.779316    94A      1.834871
      95A      1.835001    96A      1.972026    97A      2.025372
      98A      2.026193    99A      2.039929   100A      2.059086
     101A      2.060329   102A      2.747108   103A      2.747191
     104A      2.811563   105A      2.816332   106A      2.902150
     107A      2.903457   108A      2.924695   109A      2.931655
     110A      2.932058   111A      2.959893   112A      2.968657
     113A      2.969217   114A      3.041946   115A      3.081648
     116A      3.081934   117A      3.086099   118A      3.184459
     119A      3.184745   120A      3.188057   121A      3.289617
     122A      3.289994   123A      3.329962   124A      3.330076
     125A      3.383773   126A      3.493014   127A      3.493125
     128A      3.512837   129A      3.528253   130A      3.575459
     131A      3.582022   132A      3.582149   133A      3.670901
     134A      3.671511   135A      3.691961   136A      3.725845
     137A      3.726185   138A      3.782123   139A      3.782226
     140A      3.818954   141A      3.921556   142A      3.922309
     143A      4.046508   144A      4.117617   145A      4.118061
     146A      4.154936   147A      4.155242   148A      4.187412
     149A      4.209285   150A      4.209354   151A      4.211043
     152A      4.215378   153A      4.322796   154A      4.324442
     155A      4.362201   156A      4.432644   157A      4.433743
     158A      4.445517   159A      4.524340   160A      4.524667
     161A      4.588542   162A      4.589070   163A      4.625624
     164A      4.720158   165A      4.781686   166A      4.781950
     167A      4.840061   168A      4.967572   169A      5.007396
     170A      5.007964   171A      5.233862   172A      5.248363
     173A      5.248825   174A      5.361513   175A      5.361606
     176A      5.482185

    Final Occupation by Irrep:
              A
    DOCC [    16 ]
    SOCC [     1 ]

  @DF-UKS Final Energy:  -157.81307330773700

   => Energetics <=

    Nuclear Repulsion Energy =            125.4033575058820702
    One-Electron Energy =                -458.7664812817785105
    Two-Electron Energy =                 195.8574482616955947
    DFT Exchange-Correlation Energy =     -20.3073977935361434
    Empirical Dispersion Energy =           0.0000000000000000
    VV10 Nonlocal Energy =                  0.0000000000000000
    Total Energy =                       -157.8130733077369996

  UHF NO Occupations:
  HONO-2 :   15  A 1.9996019
  HONO-1 :   16  A 1.9989796
  HONO-0 :   17  A 1.0000000
  LUNO+0 :   18  A 0.0010204
  LUNO+1 :   19  A 0.0003981
  LUNO+2 :   20  A 0.0001979
  LUNO+3 :   21  A 0.0001970

Computation Completed

Properties will be evaluated at   0.000000,   0.000000,   0.000000 [a0]

Properties computed using the SCF density matrix

  Nuclear Dipole Moment: [e a0]
     X:     0.8175      Y:    -0.0000      Z:     0.0031

  Electronic Dipole Moment: [e a0]
     X:    -0.7395      Y:     0.0000      Z:    -0.0030

  Dipole Moment: [e a0]
     X:     0.0780      Y:     0.0000      Z:     0.0000     Total:     0.0780

  Dipole Moment: [D]
     X:     0.1983      Y:     0.0000      Z:     0.0001     Total:     0.1983

*** tstop() called on n031 at Fri Nov  5 12:02:48 2021
Module time:
	user time   =     702.04 seconds =      11.70 minutes
	system time =      13.73 seconds =       0.23 minutes
	total time  =        180 seconds =       3.00 minutes
Total time:
	user time   =     702.04 seconds =      11.70 minutes
	system time =      13.73 seconds =       0.23 minutes
	total time  =        180 seconds =       3.00 minutes
Grab this energy -157.813073307737
    Psi4 stopped on: Friday, 05 November 2021 12:02PM
    Psi4 wall time for execution: 0:02:59.94

*** Psi4 exiting successfully. Buy a developer a beer!
