                               Psi4 1.4a2.dev629

  ==> Input File <==

--------------------------------------------------------------------------
import os
memory 14 GB

molecule {
 C   -0.3233389939   -0.0005000064    0.0053444915
 C    0.0605790213   -1.4016412714   -2.4259385137
 C    0.0623953234    2.8016588262    0.0011059302
 C    0.0603242732   -1.4007321920    2.4265776611
 H    2.0887929311   -1.6439353813   -2.8478522515
 H   -0.7670273299   -0.3901078739   -4.0262094556
 H   -0.7659509085   -3.2897618300   -2.3501767661
 H    2.0826730037    3.2885843416   -0.0009992242
 H   -0.7645745705    3.6793404132    1.6788952864
 H   -0.7628981452    3.6810548328   -1.6803616816
 H    2.0892056400   -1.6442817322    2.8464487845
 H   -0.7650206479   -3.2906922062    2.3489715055
 H   -0.7677674736   -0.3890102341    4.0241942334
units bohr
0 2
}

basis {

assign 6-31g_2dfp_

[ 6-31g_2dfp_ ]

spherical

!----------------------------------------------------------------------
! Basis Set Exchange
! Version v0.8.13
! https://www.basissetexchange.org
!----------------------------------------------------------------------
!   Basis set: 6-31G(2df,p)
! Description: 6-31G(2df,p)
!        Role: orbital
!     Version: 0  (Data from the original Basis Set Exchange)
!----------------------------------------------------------------------

****
H     0
S    3   1.00
     18.7311370              0.03349460
      2.8253937              0.23472695
      0.6401217              0.81375733
S    1   1.00
      0.1612778              1.00000000
P    1   1.00
      1.5000000              1.0000000
P    1   1.00
      0.3750000              1.0000000
****
B     0
S    6   1.00
   2068.8823000              0.0018663
    310.6495700              0.0142515
     70.6830330              0.0695516
     19.8610800              0.2325729
      6.2993048              0.4670787
      2.1270270              0.3634314
SP   3   1.00
      4.7279710             -0.1303938              0.0745976
      1.1903377             -0.1307889              0.3078467
      0.3594117              1.1309444              0.7434568
SP   1   1.00
      0.1267512              1.0000000              1.0000000
D    1   1.00
      0.8020000              1.0000000
D    1   1.00
      0.2005000              1.0000000
F    1   1.00
      0.5000000              1.0000000
****
C     0
S    6   1.00
   3047.5249000              0.0018347
    457.3695100              0.0140373
    103.9486900              0.0688426
     29.2101550              0.2321844
      9.2866630              0.4679413
      3.1639270              0.3623120
SP   3   1.00
      7.8682724             -0.1193324              0.0689991
      1.8812885             -0.1608542              0.3164240
      0.5442493              1.1434564              0.7443083
SP   1   1.00
      0.1687144              1.0000000              1.0000000
D    1   1.00
      1.2520000              1.0000000
D    1   1.00
      0.3130000              1.0000000
F    1   1.00
      0.8000000              1.0000000
****
N     0
S    6   1.00
   4173.5110000              0.0018348
    627.4579000              0.0139950
    142.9021000              0.0685870
     40.2343300              0.2322410
     12.8202100              0.4690700
      4.3904370              0.3604550
SP   3   1.00
     11.6263580             -0.1149610              0.0675800
      2.7162800             -0.1691180              0.3239070
      0.7722180              1.1458520              0.7408950
SP   1   1.00
      0.2120313              1.0000000              1.0000000
D    1   1.00
      1.8260000              1.0000000
D    1   1.00
      0.4565000              1.0000000
F    1   1.00
      1.0000000              1.0000000
****
O     0
S    6   1.00
   5484.6717000              0.0018311
    825.2349500              0.0139501
    188.0469600              0.0684451
     52.9645000              0.2327143
     16.8975700              0.4701930
      5.7996353              0.3585209
SP   3   1.00
     15.5396160             -0.1107775              0.0708743
      3.5999336             -0.1480263              0.3397528
      1.0137618              1.1307670              0.7271586
SP   1   1.00
      0.2700058              1.0000000              1.0000000
D    1   1.00
      2.5840000              1.0000000
D    1   1.00
      0.6460000              1.0000000
F    1   1.00
      1.4000000              1.0000000
****
F     0
S    6   1.00
   7001.7130900              0.0018196169
   1051.3660900              0.0139160796
    239.2856900              0.0684053245
     67.3974453              0.233185760
     21.5199573              0.471267439
      7.40310130             0.356618546
SP   3   1.00
     20.8479528             -0.108506975            0.0716287243
      4.80830834            -0.146451658            0.3459121030
      1.34406986             1.128688580            0.7224699570
SP   1   1.00
      0.358151393            1.0000000              1.0000000
D    1   1.00
      3.5000000              1.0000000
D    1   1.00
      0.8750000              1.0000000
F    1   1.00
      1.8500000              1.0000000
****
Al     0
S    6   1.00
  13983.1000000              0.00194267
   2098.7500000              0.0148599
    477.7050000              0.0728494
    134.3600000              0.2468300
     42.8709000              0.4872580
     14.5189000              0.3234960
SP   6   1.00
    239.6680000             -0.00292619             0.00460285
     57.4419000             -0.0374080              0.0331990
     18.2859000             -0.1144870              0.1362820
      6.5991400              0.1156350              0.3304760
      2.4904900              0.6125950              0.4491460
      0.9445400              0.3937990              0.2657040
SP   3   1.00
      1.2779000             -0.2276060             -0.0175130
      0.3975900              0.00144583             0.2445330
      0.1600950              1.0927900              0.8049340
SP   1   1.00
      0.0556577              1.0000000              1.0000000
D    1   1.00
      0.6500000              1.0000000
D    1   1.00
      0.1625000              1.0000000
F    1   1.00
      0.2500000              1.0000000
****
Si     0
S    6   1.00
  16115.9000000              0.00195948
   2425.5800000              0.01492880
    553.8670000              0.07284780
    156.3400000              0.24613000
     50.0683000              0.48591400
     17.0178000              0.32500200
SP   6   1.00
    292.7180000             -0.00278094             0.00443826
     69.8731000             -0.03571460             0.03266790
     22.3363000             -0.11498500             0.13472100
      8.1503900              0.09356340             0.32867800
      3.1345800              0.60301700             0.44964000
      1.2254300              0.41895900             0.26137200
SP   3   1.00
      1.7273800             -0.24463000            -0.01779510
      0.5729220              0.00431572             0.25353900
      0.2221920              1.09818000             0.80066900
SP   1   1.00
      0.0778369              1.00000000             1.00000000
D    1   1.00
      0.9000000              1.0000000
D    1   1.00
      0.2250000              1.0000000
F    1   1.00
      0.3200000              1.0000000
****
P     0
S    6   1.00
  19413.3000000              0.0018516
   2909.4200000              0.0142062
    661.3640000              0.0699995
    185.7590000              0.2400790
     59.1943000              0.4847620
     20.0310000              0.3352000
SP   6   1.00
    339.4780000             -0.00278217             0.00456462
     81.0101000             -0.0360499              0.03369360
     25.8780000             -0.1166310              0.13975500
      9.4522100              0.0968328              0.33936200
      3.6656600              0.6144180              0.45092100
      1.4674600              0.4037980              0.23858600
SP   3   1.00
      2.1562300             -0.2529230             -0.01776530
      0.7489970              0.0328517              0.27405800
      0.2831450              1.0812500              0.78542100
SP   1   1.00
      0.0998317              1.0000000              1.00000000
D    1   1.00
      1.1000000              1.0000000
D    1   1.00
      0.2750000              1.0000000
F    1   1.00
      0.4500000              1.0000000
****
S     0
S    6   1.00
  21917.1000000              0.0018690
   3301.4900000              0.0142300
    754.1460000              0.0696960
    212.7110000              0.2384870
     67.9896000              0.4833070
     23.0515000              0.3380740
SP   6   1.00
    423.7350000             -0.0023767              0.0040610
    100.7100000             -0.0316930              0.0306810
     32.1599000             -0.1133170              0.1304520
     11.8079000              0.0560900              0.3272050
      4.6311000              0.5922550              0.4528510
      1.8702500              0.4550060              0.2560420
SP   3   1.00
      2.6158400             -0.2503740             -0.0145110
      0.9221670              0.0669570              0.3102630
      0.3412870              1.0545100              0.7544830
SP   1   1.00
      0.1171670              1.0000000              1.0000000
D    1   1.00
      1.3000000              1.0000000
D    1   1.00
      0.3250000              1.0000000
F    1   1.00
      0.5500000              1.0000000
****
Cl     0
S    6   1.00
  25180.1000000              0.0018330
   3780.3500000              0.0140340
    860.4740000              0.0690970
    242.1450000              0.2374520
     77.3349000              0.4830340
     26.2470000              0.3398560
SP   6   1.00
    491.7650000             -0.0022974              0.0039894
    116.9840000             -0.0307140              0.0303180
     37.4153000             -0.1125280              0.1298800
     13.7834000              0.0450160              0.3279510
      5.4521500              0.5893530              0.4535270
      2.2258800              0.4652060              0.2521540
SP   3   1.00
      3.1864900             -0.2518300             -0.0142990
      1.1442700              0.0615890              0.3235720
      0.4203770              1.0601800              0.7435070
SP   1   1.00
      0.1426570              1.0000000              1.0000000
D    1   1.00
      1.5000000              1.0000000
D    1   1.00
      0.3750000              1.0000000
F    1   1.00
      0.7000000              1.0000000
****
}

set {
reference uhf
freeze_core true
e_convergence 10
d_convergence 10
dft_spherical_points 1202
dft_radial_points 99
}

e = energy('b3lyp')

print_out('Grab this energy {0}'.format(e))
--------------------------------------------------------------------------

    Molecular point group: c1

    Geometry (in Bohr), charge = 0, multiplicity = 2:

       Center              X                  Y                   Z               Mass
    ------------   -----------------  -----------------  -----------------  -----------------
         C           -0.323338918559    -0.000265627931     0.003978989430    12.000000000000
         C            0.060579096641    -1.401406892931    -2.427304015770    12.000000000000
         C            0.062395398741     2.801893204669    -0.000259571870    12.000000000000
         C            0.060324348541    -1.400497813531     2.425212159030    12.000000000000
         H            2.088793006441    -1.643701002831    -2.849217753570     1.007825032230
         H           -0.767027254559    -0.389873495431    -4.027574957670     1.007825032230
         H           -0.765950833159    -3.289527451531    -2.351542268170     1.007825032230
         H            2.082673079041     3.288818720069    -0.002364726270     1.007825032230
         H           -0.764574495159     3.679574791669     1.677529784330     1.007825032230
         H           -0.762898069859     3.681289211269    -1.681727183670     1.007825032230
         H            2.089205715341    -1.644047353731     2.845083282430     1.007825032230
         H           -0.765020572559    -3.290457827731     2.347606003430     1.007825032230
         H           -0.767767398259    -0.388775855631     4.022828731330     1.007825032230

  Charge       = 0
  Multiplicity = 2
  Basis Set: ANONYMOUS6F41EAE6
    Blend: 6-31G_2DFP_
  Basis Set: (ANONYMOUS6F41EAE6 AUX)
    Blend: DEF2-UNIVERSAL-JKFIT

    Orbital Energies [Eh]
    ---------------------

    Alpha Occupied:

       1A    -10.180342     2A    -10.167062     3A    -10.167009
       4A    -10.166972     5A     -0.797769     6A     -0.686376
       7A     -0.685999     8A     -0.530777     9A     -0.441133
      10A     -0.434879    11A     -0.434457    12A     -0.382718
      13A     -0.382481    14A     -0.363608    15A     -0.338519
      16A     -0.337477    17A     -0.168960

    Alpha Virtual:

      18A      0.076071    19A      0.133988    20A      0.134319
      21A      0.142438    22A      0.142812    23A      0.154881
      24A      0.178694    25A      0.178865    26A      0.203545
      27A      0.214803    28A      0.275687    29A      0.276283
      30A      0.399099    31A      0.399359    32A      0.403344
      33A      0.424012    34A      0.424183    35A      0.456592
      36A      0.495234    37A      0.495541    38A      0.512161
      39A      0.513979    40A      0.578555    41A      0.579070
      42A      0.591496    43A      0.591780    44A      0.602584
      45A      0.624751    46A      0.631754    47A      0.636089
      48A      0.636439    49A      0.663038    50A      0.663800
      51A      0.683674    52A      0.684034    53A      0.734995
      54A      0.825293    55A      0.825512    56A      0.853921
      57A      0.914773    58A      0.915269    59A      0.944125
      60A      0.944617    61A      0.961075    62A      0.961517
      63A      1.003453    64A      1.127832    65A      1.128344
      66A      1.142255    67A      1.162867    68A      1.163676
      69A      1.223330    70A      1.273990    71A      1.274977
      72A      1.279366    73A      1.324248    74A      1.324463
      75A      1.355961    76A      1.365778    77A      1.366327
      78A      1.392439    79A      1.403586    80A      1.404521
      81A      1.416511    82A      1.417725    83A      1.427925
      84A      1.491487    85A      1.499077    86A      1.542372
      87A      1.543312    88A      1.574286    89A      1.574605
      90A      1.669817    91A      1.739171    92A      1.739634
      93A      1.768349    94A      1.830552    95A      1.832235
      96A      1.971717    97A      2.018161    98A      2.018373
      99A      2.019870   100A      2.051572   101A      2.053751
     102A      2.738012   103A      2.738961   104A      2.790926
     105A      2.811422   106A      2.889379   107A      2.890494
     108A      2.894965   109A      2.929107   110A      2.929887
     111A      2.958994   112A      2.964022   113A      2.964737
     114A      3.034009   115A      3.070779   116A      3.071792
     117A      3.084364   118A      3.168552   119A      3.168954
     120A      3.180673   121A      3.284870   122A      3.285755
     123A      3.326717   124A      3.327593   125A      3.375613
     126A      3.489603   127A      3.490684   128A      3.514024
     129A      3.525333   130A      3.568145   131A      3.568632
     132A      3.575160   133A      3.665611   134A      3.667153
     135A      3.679655   136A      3.694001   137A      3.694242
     138A      3.776072   139A      3.777506   140A      3.789180
     141A      3.911755   142A      3.912703   143A      4.034418
     144A      4.110804   145A      4.111902   146A      4.146933
     147A      4.149251   148A      4.173246   149A      4.201509
     150A      4.203233   151A      4.204005   152A      4.210952
     153A      4.314988   154A      4.317008   155A      4.358985
     156A      4.424114   157A      4.424801   158A      4.443437
     159A      4.516124   160A      4.517573   161A      4.577885
     162A      4.578348   163A      4.617858   164A      4.709465
     165A      4.773902   166A      4.775317   167A      4.836887
     168A      4.962828   169A      5.002191   170A      5.003757
     171A      5.228009   172A      5.244735   173A      5.248890
     174A      5.354183   175A      5.356890   176A      5.479376

    Beta Occupied:

       1A    -10.167816     2A    -10.167765     3A    -10.167741
       4A    -10.166519     5A     -0.781094     6A     -0.684167
       7A     -0.683813     8A     -0.511749     9A     -0.431260
      10A     -0.430832    11A     -0.421816    12A     -0.376773
      13A     -0.376597    14A     -0.362592    15A     -0.333651
      16A     -0.332591

    Beta Virtual:

      17A     -0.025743    18A      0.077080    19A      0.134889
      20A      0.135200    21A      0.144326    22A      0.144666
      23A      0.163338    24A      0.182345    25A      0.182556
      26A      0.215033    27A      0.218927    28A      0.282067
      29A      0.282598    30A      0.400271    31A      0.400524
      32A      0.419790    33A      0.426823    34A      0.426995
      35A      0.468499    36A      0.497488    37A      0.497810
      38A      0.513896    39A      0.556321    40A      0.584099
      41A      0.584630    42A      0.597651    43A      0.597985
      44A      0.610005    45A      0.628126    46A      0.631919
      47A      0.639356    48A      0.639736    49A      0.666635
      50A      0.667333    51A      0.686326    52A      0.686653
      53A      0.757517    54A      0.830465    55A      0.830677
      56A      0.855275    57A      0.922741    58A      0.923242
      59A      0.945963    60A      0.953545    61A      0.966357
      62A      0.966847    63A      1.008693    64A      1.131901
      65A      1.132350    66A      1.155613    67A      1.167935
      68A      1.168757    69A      1.232301    70A      1.279636
      71A      1.280524    72A      1.285121    73A      1.329250
      74A      1.329441    75A      1.365371    76A      1.371068
      77A      1.371528    78A      1.393500    79A      1.406998
      80A      1.408038    81A      1.421549    82A      1.422787
      83A      1.428197    84A      1.492535    85A      1.509520
      86A      1.546794    87A      1.547703    88A      1.582176
      89A      1.582460    90A      1.674664    91A      1.744929
      92A      1.745406    93A      1.779122    94A      1.834397
      95A      1.836102    96A      1.972578    97A      2.024721
      98A      2.026172    99A      2.039674   100A      2.058333
     101A      2.060432   102A      2.746339   103A      2.747305
     104A      2.811834   105A      2.816062   106A      2.902158
     107A      2.903113   108A      2.924645   109A      2.931531
     110A      2.932427   111A      2.960058   112A      2.968557
     113A      2.969294   114A      3.041943   115A      3.080737
     116A      3.081633   117A      3.086201   118A      3.184171
     119A      3.184694   120A      3.188495   121A      3.289687
     122A      3.290535   123A      3.330510   124A      3.331411
     125A      3.383431   126A      3.492333   127A      3.493409
     128A      3.512395   129A      3.528379   130A      3.574988
     131A      3.581504   132A      3.581986   133A      3.670336
     134A      3.671923   135A      3.692950   136A      3.725553
     137A      3.725950   138A      3.780610   139A      3.782051
     140A      3.817687   141A      3.921570   142A      3.922527
     143A      4.045305   144A      4.117662   145A      4.118676
     146A      4.154199   147A      4.156409   148A      4.187295
     149A      4.207847   150A      4.209705   151A      4.211038
     152A      4.215434   153A      4.322391   154A      4.324481
     155A      4.362348   156A      4.432323   157A      4.433016
     158A      4.446326   159A      4.523902   160A      4.525376
     161A      4.588471   162A      4.588939   163A      4.625075
     164A      4.719812   165A      4.780827   166A      4.782300
     167A      4.839804   168A      4.967621   169A      5.006256
     170A      5.007774   171A      5.233723   172A      5.246530
     173A      5.250663   174A      5.360645   175A      5.363390
     176A      5.481697

    Final Occupation by Irrep:
              A
    DOCC [    16 ]
    SOCC [     1 ]

  @DF-UKS Final Energy:  -157.81305450268275

   => Energetics <=

    Nuclear Repulsion Energy =            125.3947171027655116
    One-Electron Energy =                -458.7490532822691875
    Two-Electron Energy =                 195.8484305574091593
    DFT Exchange-Correlation Energy =     -20.3071488805882403
    Empirical Dispersion Energy =           0.0000000000000000
    VV10 Nonlocal Energy =                  0.0000000000000000
    Total Energy =                       -157.8130545026827463

  UHF NO Occupations:
  HONO-2 :   15  A 1.9996008
  HONO-1 :   16  A 1.9989804
  HONO-0 :   17  A 1.0000000
  LUNO+0 :   18  A 0.0010196
  LUNO+1 :   19  A 0.0003992
  LUNO+2 :   20  A 0.0001986
  LUNO+3 :   21  A 0.0001965

Computation Completed

Properties will be evaluated at   0.000000,   0.000000,   0.000000 [a0]

Properties computed using the SCF density matrix

  Nuclear Dipole Moment: [e a0]
     X:     0.8272      Y:     0.0016      Z:    -0.0096

  Electronic Dipole Moment: [e a0]
     X:    -0.7493      Y:    -0.0023      Z:     0.0108

  Dipole Moment: [e a0]
     X:     0.0779      Y:    -0.0006      Z:     0.0012     Total:     0.0779

  Dipole Moment: [D]
     X:     0.1980      Y:    -0.0016      Z:     0.0031     Total:     0.1981

*** tstop() called on n059 at Fri Nov  5 13:53:36 2021
Module time:
	user time   =     538.58 seconds =       8.98 minutes
	system time =      11.68 seconds =       0.19 minutes
	total time  =        138 seconds =       2.30 minutes
Total time:
	user time   =     538.58 seconds =       8.98 minutes
	system time =      11.68 seconds =       0.19 minutes
	total time  =        138 seconds =       2.30 minutes
Grab this energy -157.81305450268275
    Psi4 stopped on: Friday, 05 November 2021 01:53PM
    Psi4 wall time for execution: 0:02:18.37

*** Psi4 exiting successfully. Buy a developer a beer!
