                               Psi4 1.4a2.dev629

  ==> Input File <==

--------------------------------------------------------------------------
import os
memory 14 GB

molecule {
 C   -0.3265087762    0.0002224287    0.0000000000
 C    0.0598983616   -1.4011724697   -2.4277270784
 C    0.0595270471    2.7996689221    0.0000000000
 C    0.0598983616   -1.4011724697    2.4277270784
 H    2.0873106242   -1.6441980495   -2.8472908678
 H   -0.7644987786   -0.3875956359   -4.0251922282
 H   -0.7645564122   -3.2921900159   -2.3482016536
 H    2.0870467728    3.2890545277   -0.0000000000
 H   -0.7644902551    3.6806710749    1.6767457069
 H   -0.7644902551    3.6806710749   -1.6767457069
 H    2.0873106242   -1.6441980495    2.8472908678
 H   -0.7645564122   -3.2921900159    2.3482016536
 H   -0.7644987786   -0.3875956359    4.0251922282
units bohr
0 2
}

basis {

assign 6-31g_2dfp_

[ 6-31g_2dfp_ ]

spherical

!----------------------------------------------------------------------
! Basis Set Exchange
! Version v0.8.13
! https://www.basissetexchange.org
!----------------------------------------------------------------------
!   Basis set: 6-31G(2df,p)
! Description: 6-31G(2df,p)
!        Role: orbital
!     Version: 0  (Data from the original Basis Set Exchange)
!----------------------------------------------------------------------

****
H     0
S    3   1.00
     18.7311370              0.03349460
      2.8253937              0.23472695
      0.6401217              0.81375733
S    1   1.00
      0.1612778              1.00000000
P    1   1.00
      1.5000000              1.0000000
P    1   1.00
      0.3750000              1.0000000
****
B     0
S    6   1.00
   2068.8823000              0.0018663
    310.6495700              0.0142515
     70.6830330              0.0695516
     19.8610800              0.2325729
      6.2993048              0.4670787
      2.1270270              0.3634314
SP   3   1.00
      4.7279710             -0.1303938              0.0745976
      1.1903377             -0.1307889              0.3078467
      0.3594117              1.1309444              0.7434568
SP   1   1.00
      0.1267512              1.0000000              1.0000000
D    1   1.00
      0.8020000              1.0000000
D    1   1.00
      0.2005000              1.0000000
F    1   1.00
      0.5000000              1.0000000
****
C     0
S    6   1.00
   3047.5249000              0.0018347
    457.3695100              0.0140373
    103.9486900              0.0688426
     29.2101550              0.2321844
      9.2866630              0.4679413
      3.1639270              0.3623120
SP   3   1.00
      7.8682724             -0.1193324              0.0689991
      1.8812885             -0.1608542              0.3164240
      0.5442493              1.1434564              0.7443083
SP   1   1.00
      0.1687144              1.0000000              1.0000000
D    1   1.00
      1.2520000              1.0000000
D    1   1.00
      0.3130000              1.0000000
F    1   1.00
      0.8000000              1.0000000
****
N     0
S    6   1.00
   4173.5110000              0.0018348
    627.4579000              0.0139950
    142.9021000              0.0685870
     40.2343300              0.2322410
     12.8202100              0.4690700
      4.3904370              0.3604550
SP   3   1.00
     11.6263580             -0.1149610              0.0675800
      2.7162800             -0.1691180              0.3239070
      0.7722180              1.1458520              0.7408950
SP   1   1.00
      0.2120313              1.0000000              1.0000000
D    1   1.00
      1.8260000              1.0000000
D    1   1.00
      0.4565000              1.0000000
F    1   1.00
      1.0000000              1.0000000
****
O     0
S    6   1.00
   5484.6717000              0.0018311
    825.2349500              0.0139501
    188.0469600              0.0684451
     52.9645000              0.2327143
     16.8975700              0.4701930
      5.7996353              0.3585209
SP   3   1.00
     15.5396160             -0.1107775              0.0708743
      3.5999336             -0.1480263              0.3397528
      1.0137618              1.1307670              0.7271586
SP   1   1.00
      0.2700058              1.0000000              1.0000000
D    1   1.00
      2.5840000              1.0000000
D    1   1.00
      0.6460000              1.0000000
F    1   1.00
      1.4000000              1.0000000
****
F     0
S    6   1.00
   7001.7130900              0.0018196169
   1051.3660900              0.0139160796
    239.2856900              0.0684053245
     67.3974453              0.233185760
     21.5199573              0.471267439
      7.40310130             0.356618546
SP   3   1.00
     20.8479528             -0.108506975            0.0716287243
      4.80830834            -0.146451658            0.3459121030
      1.34406986             1.128688580            0.7224699570
SP   1   1.00
      0.358151393            1.0000000              1.0000000
D    1   1.00
      3.5000000              1.0000000
D    1   1.00
      0.8750000              1.0000000
F    1   1.00
      1.8500000              1.0000000
****
Al     0
S    6   1.00
  13983.1000000              0.00194267
   2098.7500000              0.0148599
    477.7050000              0.0728494
    134.3600000              0.2468300
     42.8709000              0.4872580
     14.5189000              0.3234960
SP   6   1.00
    239.6680000             -0.00292619             0.00460285
     57.4419000             -0.0374080              0.0331990
     18.2859000             -0.1144870              0.1362820
      6.5991400              0.1156350              0.3304760
      2.4904900              0.6125950              0.4491460
      0.9445400              0.3937990              0.2657040
SP   3   1.00
      1.2779000             -0.2276060             -0.0175130
      0.3975900              0.00144583             0.2445330
      0.1600950              1.0927900              0.8049340
SP   1   1.00
      0.0556577              1.0000000              1.0000000
D    1   1.00
      0.6500000              1.0000000
D    1   1.00
      0.1625000              1.0000000
F    1   1.00
      0.2500000              1.0000000
****
Si     0
S    6   1.00
  16115.9000000              0.00195948
   2425.5800000              0.01492880
    553.8670000              0.07284780
    156.3400000              0.24613000
     50.0683000              0.48591400
     17.0178000              0.32500200
SP   6   1.00
    292.7180000             -0.00278094             0.00443826
     69.8731000             -0.03571460             0.03266790
     22.3363000             -0.11498500             0.13472100
      8.1503900              0.09356340             0.32867800
      3.1345800              0.60301700             0.44964000
      1.2254300              0.41895900             0.26137200
SP   3   1.00
      1.7273800             -0.24463000            -0.01779510
      0.5729220              0.00431572             0.25353900
      0.2221920              1.09818000             0.80066900
SP   1   1.00
      0.0778369              1.00000000             1.00000000
D    1   1.00
      0.9000000              1.0000000
D    1   1.00
      0.2250000              1.0000000
F    1   1.00
      0.3200000              1.0000000
****
P     0
S    6   1.00
  19413.3000000              0.0018516
   2909.4200000              0.0142062
    661.3640000              0.0699995
    185.7590000              0.2400790
     59.1943000              0.4847620
     20.0310000              0.3352000
SP   6   1.00
    339.4780000             -0.00278217             0.00456462
     81.0101000             -0.0360499              0.03369360
     25.8780000             -0.1166310              0.13975500
      9.4522100              0.0968328              0.33936200
      3.6656600              0.6144180              0.45092100
      1.4674600              0.4037980              0.23858600
SP   3   1.00
      2.1562300             -0.2529230             -0.01776530
      0.7489970              0.0328517              0.27405800
      0.2831450              1.0812500              0.78542100
SP   1   1.00
      0.0998317              1.0000000              1.00000000
D    1   1.00
      1.1000000              1.0000000
D    1   1.00
      0.2750000              1.0000000
F    1   1.00
      0.4500000              1.0000000
****
S     0
S    6   1.00
  21917.1000000              0.0018690
   3301.4900000              0.0142300
    754.1460000              0.0696960
    212.7110000              0.2384870
     67.9896000              0.4833070
     23.0515000              0.3380740
SP   6   1.00
    423.7350000             -0.0023767              0.0040610
    100.7100000             -0.0316930              0.0306810
     32.1599000             -0.1133170              0.1304520
     11.8079000              0.0560900              0.3272050
      4.6311000              0.5922550              0.4528510
      1.8702500              0.4550060              0.2560420
SP   3   1.00
      2.6158400             -0.2503740             -0.0145110
      0.9221670              0.0669570              0.3102630
      0.3412870              1.0545100              0.7544830
SP   1   1.00
      0.1171670              1.0000000              1.0000000
D    1   1.00
      1.3000000              1.0000000
D    1   1.00
      0.3250000              1.0000000
F    1   1.00
      0.5500000              1.0000000
****
Cl     0
S    6   1.00
  25180.1000000              0.0018330
   3780.3500000              0.0140340
    860.4740000              0.0690970
    242.1450000              0.2374520
     77.3349000              0.4830340
     26.2470000              0.3398560
SP   6   1.00
    491.7650000             -0.0022974              0.0039894
    116.9840000             -0.0307140              0.0303180
     37.4153000             -0.1125280              0.1298800
     13.7834000              0.0450160              0.3279510
      5.4521500              0.5893530              0.4535270
      2.2258800              0.4652060              0.2521540
SP   3   1.00
      3.1864900             -0.2518300             -0.0142990
      1.1442700              0.0615890              0.3235720
      0.4203770              1.0601800              0.7435070
SP   1   1.00
      0.1426570              1.0000000              1.0000000
D    1   1.00
      1.5000000              1.0000000
D    1   1.00
      0.3750000              1.0000000
F    1   1.00
      0.7000000              1.0000000
****
}

set {
reference uhf
freeze_core true
e_convergence 10
d_convergence 10
dft_spherical_points 1202
dft_radial_points 99
}

e = energy('b3lyp')

print_out('Grab this energy {0}'.format(e))
--------------------------------------------------------------------------

    Molecular point group: cs

    Geometry (in Bohr), charge = 0, multiplicity = 2:

       Center              X                  Y                   Z               Mass
    ------------   -----------------  -----------------  -----------------  -----------------
         C           -0.325132593685     0.000695436900     0.000000000000    12.000000000000
         C            0.061274544115    -1.400699461500    -2.427727078400    12.000000000000
         C            0.060903229615     2.800141930300     0.000000000000    12.000000000000
         C            0.061274544115    -1.400699461500     2.427727078400    12.000000000000
         H            2.088686806715    -1.643725041300    -2.847290867800     1.007825032230
         H           -0.763122596085    -0.387122627700    -4.025192228200     1.007825032230
         H           -0.763180229685    -3.291717007700    -2.348201653600     1.007825032230
         H            2.088422955315     3.289527535900     0.000000000000     1.007825032230
         H           -0.763114072585     3.681144083100     1.676745706900     1.007825032230
         H           -0.763114072585     3.681144083100    -1.676745706900     1.007825032230
         H            2.088686806715    -1.643725041300     2.847290867800     1.007825032230
         H           -0.763180229685    -3.291717007700     2.348201653600     1.007825032230
         H           -0.763122596085    -0.387122627700     4.025192228200     1.007825032230

  Charge       = 0
  Multiplicity = 2
  Basis Set: ANONYMOUS3E2CCF26
    Blend: 6-31G_2DFP_
  Basis Set: (ANONYMOUS3E2CCF26 AUX)
    Blend: DEF2-UNIVERSAL-JKFIT

    Orbital Energies [Eh]
    ---------------------

    Alpha Occupied:

       1Ap   -10.180455     2Ap   -10.167086     1App  -10.167033
       3Ap   -10.166997     4Ap    -0.797712     2App   -0.686197
       5Ap    -0.686151     6Ap    -0.530798     7Ap    -0.440888
       8Ap    -0.434898     3App   -0.434735     4App   -0.382440
       9Ap    -0.382262     5App   -0.363894    10Ap    -0.338255
       6App   -0.337839    11Ap    -0.169077

    Alpha Virtual:

      12Ap     0.076090    13Ap     0.134139     7App    0.134181
       8App    0.142646    14Ap     0.142778    15Ap     0.154814
      16Ap     0.178593     9App    0.178756    17Ap     0.203499
      10App    0.214934    11App    0.275621    18Ap     0.276074
      12App    0.399203    19Ap     0.399217    20Ap     0.403305
      13App    0.424047    21Ap     0.424135    22Ap     0.456589
      14App    0.495420    23Ap     0.495461    15App    0.512056
      24Ap     0.513984    16App    0.578875    25Ap     0.578935
      26Ap     0.591273    17App    0.591388    27Ap     0.602263
      28Ap     0.624904    18App    0.631914    19App    0.636213
      29Ap     0.636545    20App    0.663178    30Ap     0.663302
      31Ap     0.683854    21App    0.683898    32Ap     0.734865
      33Ap     0.825179    22App    0.825287    23App    0.853963
      24App    0.914843    34Ap     0.914879    25App    0.944023
      35Ap     0.944594    36Ap     0.961360    26App    0.961407
      37Ap     1.004332    27App    1.128265    38Ap     1.128392
      39Ap     1.141855    28App    1.162847    40Ap     1.163416
      41Ap     1.222903    29App    1.273903    42Ap     1.274490
      43Ap     1.279221    30App    1.324401    44Ap     1.324538
      45Ap     1.354964    31App    1.366246    46Ap     1.366561
      32App    1.392524    47Ap     1.403250    33App    1.403591
      34App    1.416353    48Ap     1.416659    35App    1.427741
      36App    1.491957    49Ap     1.498577    37App    1.543143
      50Ap     1.543276    38App    1.574351    51Ap     1.574735
      52Ap     1.670354    53Ap     1.739072    39App    1.739349
      54Ap     1.768104    55Ap     1.831220    40App    1.832229
      41App    1.972287    56Ap     2.017990    42App    2.018212
      57Ap     2.019305    43App    2.051587    58Ap     2.052956
      59Ap     2.738033    44App    2.738276    60Ap     2.790706
      45App    2.811700    46App    2.889703    61Ap     2.889845
      62Ap     2.894984    47App    2.929589    63Ap     2.929706
      48App    2.959160    49App    2.964272    64Ap     2.964414
      65Ap     3.033969    66Ap     3.070536    50App    3.070793
      51App    3.084415    52App    3.168579    67Ap     3.168931
      68Ap     3.180797    53App    3.285657    69Ap     3.285672
      54App    3.327908    70Ap     3.328279    71Ap     3.375315
      55App    3.489636    72Ap     3.490313    56App    3.513556
      73Ap     3.525490    57App    3.567875    74Ap     3.568063
      58App    3.574694    75Ap     3.665667    59App    3.667070
      76Ap     3.680692    77Ap     3.693734    60App    3.693946
      61App    3.775759    78Ap     3.776090    79Ap     3.787801
      62App    3.911580    80Ap     3.913079    81Ap     4.033283
      63App    4.111595    82Ap     4.111906    64App    4.148061
      83Ap     4.148637    84Ap     4.173106    85Ap     4.202107
      65App    4.202346    86Ap     4.203328    66App    4.210754
      67App    4.315020    87Ap     4.316467    68App    4.359074
      69App    4.422823    88Ap     4.424741    70App    4.444404
      71App    4.516321    89Ap     4.517642    72App    4.578348
      90Ap     4.578390    91Ap     4.616664    92Ap     4.709039
      93Ap     4.774020    73App    4.774640    74App    4.836687
      94Ap     4.962888    95Ap     5.001578    75App    5.002949
      96Ap     5.227974    76App    5.246623    97Ap     5.247020
      77App    5.355897    98Ap     5.356013    78App    5.478832

    Beta Occupied:

       1Ap   -10.167845     1App  -10.167783     2Ap   -10.167766
       3Ap   -10.166634     4Ap    -0.781053     2App   -0.684009
       5Ap    -0.683952     6Ap    -0.511774     7Ap    -0.431282
       3App   -0.431115     8Ap    -0.421579     4App   -0.376533
       9Ap    -0.376315     5App   -0.362879    10Ap    -0.333377
       6App   -0.332959

    Beta Virtual:

      11Ap    -0.025892    12Ap     0.077100     7App    0.135082
      13Ap     0.135083     8App    0.144523    14Ap     0.144621
      15Ap     0.163305    16Ap     0.182265     9App    0.182405
      10App    0.215160    17Ap     0.218860    11App    0.281989
      18Ap     0.282425    12App    0.400379    19Ap     0.400389
      20Ap     0.419809    13App    0.426853    21Ap     0.426944
      22Ap     0.468434    14App    0.497674    23Ap     0.497730
      15App    0.513796    24Ap     0.556281    16App    0.584410
      25Ap     0.584482    26Ap     0.597469    17App    0.597584
      27Ap     0.609712    28Ap     0.628247    18App    0.632071
      19App    0.639485    29Ap     0.639811    20App    0.666763
      30Ap     0.666899    31Ap     0.686498    21App    0.686518
      32Ap     0.757395    33Ap     0.830363    22App    0.830481
      23App    0.855319    24App    0.922816    34Ap     0.922857
      25App    0.945859    35Ap     0.953488    36Ap     0.966651
      26App    0.966693    37Ap     1.009620    27App    1.132192
      38Ap     1.132316    39Ap     1.155238    28App    1.167962
      40Ap     1.168571    41Ap     1.231869    29App    1.279514
      42Ap     1.280107    43Ap     1.284967    30App    1.329464
      44Ap     1.329571    45Ap     1.364363    31App    1.371520
      46Ap     1.371780    32App    1.393593    47Ap     1.406749
      33App    1.406988    34App    1.421400    48Ap     1.421677
      35App    1.427996    36App    1.493009    49Ap     1.509000
      37App    1.547652    50Ap     1.547800    38App    1.582112
      51Ap     1.582510    52Ap     1.675186    53Ap     1.744838
      39App    1.745122    54Ap     1.778892    55Ap     1.835078
      40App    1.836068    41App    1.973144    42App    2.024570
      56Ap     2.025648    57Ap     2.039414    43App    2.058323
      58Ap     2.059700    59Ap     2.746394    44App    2.746591
      45App    2.812112    60Ap     2.815789    46App    2.902427
      61Ap     2.902531    62Ap     2.924600    47App    2.932058
      63Ap     2.932149    48App    2.960223    49App    2.968816
      64Ap     2.968988    65Ap     3.041944    66Ap     3.080476
      50App    3.080720    51App    3.086240    52App    3.184241
      67Ap     3.184575    68Ap     3.188584    69Ap     3.290402
      53App    3.290439    54App    3.331736    70Ap     3.332089
      71Ap     3.383095    55App    3.492352    72Ap     3.493074
      56App    3.511923    73Ap     3.528499    57App    3.574541
      58App    3.581269    74Ap     3.581489    75Ap     3.670323
      59App    3.671776    76Ap     3.693968    77Ap     3.725373
      60App    3.725619    61App    3.780281    78Ap     3.780697
      79Ap     3.816374    62App    3.921450    80Ap     3.922847
      81Ap     4.044182    63App    4.118284    82Ap     4.118800
      64App    4.155382    83Ap     4.155768    84Ap     4.187195
      65App    4.208270    85Ap     4.208962    86Ap     4.210372
      66App    4.215264    67App    4.322418    87Ap     4.323924
      68App    4.362449    69App    4.431108    88Ap     4.432983
      70App    4.447278    71App    4.524119    89Ap     4.525431
      72App    4.588910    90Ap     4.588983    91Ap     4.623784
      92Ap     4.719473    93Ap     4.780969    73App    4.781550
      74App    4.839603    94Ap     4.967700    95Ap     5.005644
      75App    5.006986    96Ap     5.233659    76App    5.248404
      97Ap     5.248788    77App    5.362340    98Ap     5.362498
      78App    5.481152

    Final Occupation by Irrep:
             Ap   App
    DOCC [    10,    6 ]
    SOCC [     1,    0 ]

  @DF-UKS Final Energy:  -157.81306457930509

   => Energetics <=

    Nuclear Repulsion Energy =            125.3858764969884447
    One-Electron Energy =                -458.7313152095796340
    Two-Electron Energy =                 195.8392614892134986
    DFT Exchange-Correlation Energy =     -20.3068873559273975
    Empirical Dispersion Energy =           0.0000000000000000
    VV10 Nonlocal Energy =                  0.0000000000000000
    Total Energy =                       -157.8130645793050917

  UHF NO Occupations:
  HONO-2 :    9 Ap 1.9995999
  HONO-1 :   10 Ap 1.9989813
  HONO-0 :   11 Ap 1.0000000
  LUNO+0 :   12 Ap 0.0010187
  LUNO+1 :   13 Ap 0.0004001
  LUNO+2 :    7App 0.0001980
  LUNO+3 :   14 Ap 0.0001973

Computation Completed

Properties will be evaluated at   0.000000,   0.000000,   0.000000 [a0]

Properties computed using the SCF density matrix

  Nuclear Dipole Moment: [e a0]
     X:     0.8369      Y:     0.0033      Z:     0.0000

  Electronic Dipole Moment: [e a0]
     X:    -0.7591      Y:    -0.0034      Z:     0.0000

  Dipole Moment: [e a0]
     X:     0.0778      Y:    -0.0001      Z:     0.0000     Total:     0.0778

  Dipole Moment: [D]
     X:     0.1977      Y:    -0.0002      Z:     0.0000     Total:     0.1977

*** tstop() called on n051 at Fri Nov  5 12:55:36 2021
Module time:
	user time   =     540.73 seconds =       9.01 minutes
	system time =      11.75 seconds =       0.20 minutes
	total time  =        139 seconds =       2.32 minutes
Total time:
	user time   =     540.73 seconds =       9.01 minutes
	system time =      11.75 seconds =       0.20 minutes
	total time  =        139 seconds =       2.32 minutes
Grab this energy -157.8130645793051
    Psi4 stopped on: Friday, 05 November 2021 12:55PM
    Psi4 wall time for execution: 0:02:18.96

*** Psi4 exiting successfully. Buy a developer a beer!
