                               Psi4 1.4a2.dev629

  ==> Input File <==

--------------------------------------------------------------------------
import os
memory 14 GB

molecule {
 C   -0.3233375192    0.0053438357    0.0010195226
 C    0.0605661424   -1.3994262392   -2.4275799721
 C    0.0608719554    2.8018170450   -0.0017993098
 C    0.0618613538   -1.4006403112    2.4260837708
 H    2.0868878370   -1.6452617506   -2.8470191796
 H   -0.7660468841   -0.3888178998   -4.0247312009
 H   -0.7646112813   -3.2930977240   -2.3495554589
 H    2.0870348124    3.2875007773    0.0007010862
 H   -0.7654417156    3.6793327597    1.6771770135
 H   -0.7657403212    3.6795144158   -1.6766061256
 H    2.0867469173   -1.6447366330    2.8475110347
 H   -0.7651303901   -3.2928199719    2.3499731537
 H   -0.7662687835   -0.3887326173    4.0248256652
units bohr
0 2
}

basis {

assign 6-31g_2dfp_

[ 6-31g_2dfp_ ]

spherical

!----------------------------------------------------------------------
! Basis Set Exchange
! Version v0.8.13
! https://www.basissetexchange.org
!----------------------------------------------------------------------
!   Basis set: 6-31G(2df,p)
! Description: 6-31G(2df,p)
!        Role: orbital
!     Version: 0  (Data from the original Basis Set Exchange)
!----------------------------------------------------------------------

****
H     0
S    3   1.00
     18.7311370              0.03349460
      2.8253937              0.23472695
      0.6401217              0.81375733
S    1   1.00
      0.1612778              1.00000000
P    1   1.00
      1.5000000              1.0000000
P    1   1.00
      0.3750000              1.0000000
****
B     0
S    6   1.00
   2068.8823000              0.0018663
    310.6495700              0.0142515
     70.6830330              0.0695516
     19.8610800              0.2325729
      6.2993048              0.4670787
      2.1270270              0.3634314
SP   3   1.00
      4.7279710             -0.1303938              0.0745976
      1.1903377             -0.1307889              0.3078467
      0.3594117              1.1309444              0.7434568
SP   1   1.00
      0.1267512              1.0000000              1.0000000
D    1   1.00
      0.8020000              1.0000000
D    1   1.00
      0.2005000              1.0000000
F    1   1.00
      0.5000000              1.0000000
****
C     0
S    6   1.00
   3047.5249000              0.0018347
    457.3695100              0.0140373
    103.9486900              0.0688426
     29.2101550              0.2321844
      9.2866630              0.4679413
      3.1639270              0.3623120
SP   3   1.00
      7.8682724             -0.1193324              0.0689991
      1.8812885             -0.1608542              0.3164240
      0.5442493              1.1434564              0.7443083
SP   1   1.00
      0.1687144              1.0000000              1.0000000
D    1   1.00
      1.2520000              1.0000000
D    1   1.00
      0.3130000              1.0000000
F    1   1.00
      0.8000000              1.0000000
****
N     0
S    6   1.00
   4173.5110000              0.0018348
    627.4579000              0.0139950
    142.9021000              0.0685870
     40.2343300              0.2322410
     12.8202100              0.4690700
      4.3904370              0.3604550
SP   3   1.00
     11.6263580             -0.1149610              0.0675800
      2.7162800             -0.1691180              0.3239070
      0.7722180              1.1458520              0.7408950
SP   1   1.00
      0.2120313              1.0000000              1.0000000
D    1   1.00
      1.8260000              1.0000000
D    1   1.00
      0.4565000              1.0000000
F    1   1.00
      1.0000000              1.0000000
****
O     0
S    6   1.00
   5484.6717000              0.0018311
    825.2349500              0.0139501
    188.0469600              0.0684451
     52.9645000              0.2327143
     16.8975700              0.4701930
      5.7996353              0.3585209
SP   3   1.00
     15.5396160             -0.1107775              0.0708743
      3.5999336             -0.1480263              0.3397528
      1.0137618              1.1307670              0.7271586
SP   1   1.00
      0.2700058              1.0000000              1.0000000
D    1   1.00
      2.5840000              1.0000000
D    1   1.00
      0.6460000              1.0000000
F    1   1.00
      1.4000000              1.0000000
****
F     0
S    6   1.00
   7001.7130900              0.0018196169
   1051.3660900              0.0139160796
    239.2856900              0.0684053245
     67.3974453              0.233185760
     21.5199573              0.471267439
      7.40310130             0.356618546
SP   3   1.00
     20.8479528             -0.108506975            0.0716287243
      4.80830834            -0.146451658            0.3459121030
      1.34406986             1.128688580            0.7224699570
SP   1   1.00
      0.358151393            1.0000000              1.0000000
D    1   1.00
      3.5000000              1.0000000
D    1   1.00
      0.8750000              1.0000000
F    1   1.00
      1.8500000              1.0000000
****
Al     0
S    6   1.00
  13983.1000000              0.00194267
   2098.7500000              0.0148599
    477.7050000              0.0728494
    134.3600000              0.2468300
     42.8709000              0.4872580
     14.5189000              0.3234960
SP   6   1.00
    239.6680000             -0.00292619             0.00460285
     57.4419000             -0.0374080              0.0331990
     18.2859000             -0.1144870              0.1362820
      6.5991400              0.1156350              0.3304760
      2.4904900              0.6125950              0.4491460
      0.9445400              0.3937990              0.2657040
SP   3   1.00
      1.2779000             -0.2276060             -0.0175130
      0.3975900              0.00144583             0.2445330
      0.1600950              1.0927900              0.8049340
SP   1   1.00
      0.0556577              1.0000000              1.0000000
D    1   1.00
      0.6500000              1.0000000
D    1   1.00
      0.1625000              1.0000000
F    1   1.00
      0.2500000              1.0000000
****
Si     0
S    6   1.00
  16115.9000000              0.00195948
   2425.5800000              0.01492880
    553.8670000              0.07284780
    156.3400000              0.24613000
     50.0683000              0.48591400
     17.0178000              0.32500200
SP   6   1.00
    292.7180000             -0.00278094             0.00443826
     69.8731000             -0.03571460             0.03266790
     22.3363000             -0.11498500             0.13472100
      8.1503900              0.09356340             0.32867800
      3.1345800              0.60301700             0.44964000
      1.2254300              0.41895900             0.26137200
SP   3   1.00
      1.7273800             -0.24463000            -0.01779510
      0.5729220              0.00431572             0.25353900
      0.2221920              1.09818000             0.80066900
SP   1   1.00
      0.0778369              1.00000000             1.00000000
D    1   1.00
      0.9000000              1.0000000
D    1   1.00
      0.2250000              1.0000000
F    1   1.00
      0.3200000              1.0000000
****
P     0
S    6   1.00
  19413.3000000              0.0018516
   2909.4200000              0.0142062
    661.3640000              0.0699995
    185.7590000              0.2400790
     59.1943000              0.4847620
     20.0310000              0.3352000
SP   6   1.00
    339.4780000             -0.00278217             0.00456462
     81.0101000             -0.0360499              0.03369360
     25.8780000             -0.1166310              0.13975500
      9.4522100              0.0968328              0.33936200
      3.6656600              0.6144180              0.45092100
      1.4674600              0.4037980              0.23858600
SP   3   1.00
      2.1562300             -0.2529230             -0.01776530
      0.7489970              0.0328517              0.27405800
      0.2831450              1.0812500              0.78542100
SP   1   1.00
      0.0998317              1.0000000              1.00000000
D    1   1.00
      1.1000000              1.0000000
D    1   1.00
      0.2750000              1.0000000
F    1   1.00
      0.4500000              1.0000000
****
S     0
S    6   1.00
  21917.1000000              0.0018690
   3301.4900000              0.0142300
    754.1460000              0.0696960
    212.7110000              0.2384870
     67.9896000              0.4833070
     23.0515000              0.3380740
SP   6   1.00
    423.7350000             -0.0023767              0.0040610
    100.7100000             -0.0316930              0.0306810
     32.1599000             -0.1133170              0.1304520
     11.8079000              0.0560900              0.3272050
      4.6311000              0.5922550              0.4528510
      1.8702500              0.4550060              0.2560420
SP   3   1.00
      2.6158400             -0.2503740             -0.0145110
      0.9221670              0.0669570              0.3102630
      0.3412870              1.0545100              0.7544830
SP   1   1.00
      0.1171670              1.0000000              1.0000000
D    1   1.00
      1.3000000              1.0000000
D    1   1.00
      0.3250000              1.0000000
F    1   1.00
      0.5500000              1.0000000
****
Cl     0
S    6   1.00
  25180.1000000              0.0018330
   3780.3500000              0.0140340
    860.4740000              0.0690970
    242.1450000              0.2374520
     77.3349000              0.4830340
     26.2470000              0.3398560
SP   6   1.00
    491.7650000             -0.0022974              0.0039894
    116.9840000             -0.0307140              0.0303180
     37.4153000             -0.1125280              0.1298800
     13.7834000              0.0450160              0.3279510
      5.4521500              0.5893530              0.4535270
      2.2258800              0.4652060              0.2521540
SP   3   1.00
      3.1864900             -0.2518300             -0.0142990
      1.1442700              0.0615890              0.3235720
      0.4203770              1.0601800              0.7435070
SP   1   1.00
      0.1426570              1.0000000              1.0000000
D    1   1.00
      1.5000000              1.0000000
D    1   1.00
      0.3750000              1.0000000
F    1   1.00
      0.7000000              1.0000000
****
}

set {
reference uhf
freeze_core true
e_convergence 10
d_convergence 10
dft_spherical_points 1202
dft_radial_points 99
}

e = energy('b3lyp')

print_out('Grab this energy {0}'.format(e))
--------------------------------------------------------------------------

    Molecular point group: c1

    Geometry (in Bohr), charge = 0, multiplicity = 2:

       Center              X                  Y                   Z               Mass
    ------------   -----------------  -----------------  -----------------  -----------------
         C           -0.323337888475     0.003977845946     0.001457894382    12.000000000000
         C            0.060565773125    -1.400792228954    -2.427141600318    12.000000000000
         C            0.060871586125     2.800451055246    -0.001360938018    12.000000000000
         C            0.061860984525    -1.402006300954     2.426522142582    12.000000000000
         H            2.086887467725    -1.646627740354    -2.846580807818     1.007825032230
         H           -0.766047253375    -0.390183889554    -4.024292829118     1.007825032230
         H           -0.764611650575    -3.294463713754    -2.349117087118     1.007825032230
         H            2.087034443125     3.286134787546     0.001139457982     1.007825032230
         H           -0.765442084875     3.677966769946     1.677615385282     1.007825032230
         H           -0.765740690475     3.678148426046    -1.676167753818     1.007825032230
         H            2.086746548025    -1.646102622754     2.847949406482     1.007825032230
         H           -0.765130759375    -3.294185961654     2.350411525482     1.007825032230
         H           -0.766269152775    -0.390098607054     4.025264036982     1.007825032230

  Charge       = 0
  Multiplicity = 2
  Basis Set: ANONYMOUSB3CB3E38
    Blend: 6-31G_2DFP_
  Basis Set: (ANONYMOUSB3CB3E38 AUX)
    Blend: DEF2-UNIVERSAL-JKFIT

    Orbital Energies [Eh]
    ---------------------

    Alpha Occupied:

       1A    -10.180341     2A    -10.167064     3A    -10.167011
       4A    -10.166969     5A     -0.797769     6A     -0.686391
       7A     -0.685982     8A     -0.530776     9A     -0.441132
      10A     -0.434885    11A     -0.434452    12A     -0.382723
      13A     -0.382479    14A     -0.363607    15A     -0.338595
      16A     -0.337401    17A     -0.168960

    Alpha Virtual:

      18A      0.076072    19A      0.134115    20A      0.134196
      21A      0.142441    22A      0.142813    23A      0.154880
      24A      0.178728    25A      0.178828    26A      0.203543
      27A      0.214803    28A      0.275669    29A      0.276301
      30A      0.399065    31A      0.399393    32A      0.403343
      33A      0.424093    34A      0.424103    35A      0.456593
      36A      0.495330    37A      0.495449    38A      0.512160
      39A      0.513977    40A      0.578619    41A      0.579010
      42A      0.591622    43A      0.591662    44A      0.602574
      45A      0.624749    46A      0.631768    47A      0.636097
      48A      0.636420    49A      0.663301    50A      0.663524
      51A      0.683801    52A      0.683906    53A      0.734994
      54A      0.825298    55A      0.825516    56A      0.853916
      57A      0.914868    58A      0.915176    59A      0.944126
      60A      0.944618    61A      0.961099    62A      0.961485
      63A      1.003454    64A      1.127872    65A      1.128308
      66A      1.142255    67A      1.162893    68A      1.163647
      69A      1.223328    70A      1.273990    71A      1.274990
      72A      1.279353    73A      1.324248    74A      1.324466
      75A      1.355994    76A      1.365694    77A      1.366417
      78A      1.392421    79A      1.403812    80A      1.404294
      81A      1.416707    82A      1.417522    83A      1.427931
      84A      1.491490    85A      1.499081    86A      1.542663
      87A      1.543002    88A      1.574128    89A      1.574770
      90A      1.669814    91A      1.739185    92A      1.739649
      93A      1.768331    94A      1.831125    95A      1.831664
      96A      1.971727    97A      2.018227    98A      2.018342
      99A      2.019831   100A      2.051839   101A      2.053456
     102A      2.738243   103A      2.738729   104A      2.790925
     105A      2.811424   106A      2.889076   107A      2.890825
     108A      2.894935   109A      2.929077   110A      2.929917
     111A      2.958989   112A      2.964046   113A      2.964719
     114A      3.034002   115A      3.070759   116A      3.071823
     117A      3.084349   118A      3.168621   119A      3.168868
     120A      3.180676   121A      3.284941   122A      3.285681
     123A      3.326767   124A      3.327543   125A      3.375607
     126A      3.489599   127A      3.490689   128A      3.514026
     129A      3.525336   130A      3.568137   131A      3.568636
     132A      3.575150   133A      3.666009   134A      3.666726
     135A      3.679693   136A      3.694088   137A      3.694145
     138A      3.776086   139A      3.777495   140A      3.789172
     141A      3.911642   142A      3.912804   143A      4.034439
     144A      4.110983   145A      4.111753   146A      4.147117
     147A      4.149121   148A      4.173265   149A      4.202272
     150A      4.202699   151A      4.203815   152A      4.210875
     153A      4.315002   154A      4.316932   155A      4.358975
     156A      4.423890   157A      4.424963   158A      4.443473
     159A      4.516622   160A      4.517059   161A      4.577708
     162A      4.578544   163A      4.617828   164A      4.709471
     165A      4.774014   166A      4.775200   167A      4.836899
     168A      4.962823   169A      5.002598   170A      5.003352
     171A      5.228033   172A      5.246580   173A      5.247072
     174A      5.354949   175A      5.356060   176A      5.479351

    Beta Occupied:

       1A    -10.167819     2A    -10.167765     3A    -10.167740
       4A    -10.166519     5A     -0.781094     6A     -0.684182
       7A     -0.683797     8A     -0.511747     9A     -0.431255
      10A     -0.430835    11A     -0.421817    12A     -0.376774
      13A     -0.376600    14A     -0.362590    15A     -0.333726
      16A     -0.332516

    Beta Virtual:

      17A     -0.025742    18A      0.077081    19A      0.134995
      20A      0.135095    21A      0.144327    22A      0.144669
      23A      0.163339    24A      0.182408    25A      0.182491
      26A      0.215032    27A      0.218926    28A      0.282054
      29A      0.282611    30A      0.400237    31A      0.400560
      32A      0.419789    33A      0.426898    34A      0.426921
      35A      0.468500    36A      0.497590    37A      0.497710
      38A      0.513895    39A      0.556321    40A      0.584147
      41A      0.584585    42A      0.597790    43A      0.597850
      44A      0.609997    45A      0.628124    46A      0.631927
      47A      0.639369    48A      0.639720    49A      0.666865
      50A      0.667087    51A      0.686434    52A      0.686542
      53A      0.757517    54A      0.830470    55A      0.830680
      56A      0.855269    57A      0.922819    58A      0.923167
      59A      0.945963    60A      0.953547    61A      0.966401
      62A      0.966796    63A      1.008694    64A      1.131925
      65A      1.132331    66A      1.155607    67A      1.167979
      68A      1.168714    69A      1.232300    70A      1.279626
      71A      1.280548    72A      1.285107    73A      1.329241
      74A      1.329452    75A      1.365409    76A      1.370954
      77A      1.371646    78A      1.393483    79A      1.407245
      80A      1.407788    81A      1.421772    82A      1.422552
      83A      1.428205    84A      1.492539    85A      1.509524
      86A      1.547059    87A      1.547422    88A      1.582009
      89A      1.582632    90A      1.674662    91A      1.744946
      92A      1.745413    93A      1.779109    94A      1.834967
      95A      1.835533    96A      1.972587    97A      2.024761
      98A      2.026132    99A      2.039679   100A      2.058546
     101A      2.060185   102A      2.746549   103A      2.747095
     104A      2.811836   105A      2.816060   106A      2.901827
     107A      2.903447   108A      2.924640   109A      2.931499
     110A      2.932464   111A      2.960055   112A      2.968601
     113A      2.969249   114A      3.041937   115A      3.080742
     116A      3.081660   117A      3.086165   118A      3.184361
     119A      3.184480   120A      3.188507   121A      3.289791
     122A      3.290429   123A      3.330569   124A      3.331351
     125A      3.383426   126A      3.492314   127A      3.493428
     128A      3.512395   129A      3.528382   130A      3.574989
     131A      3.581555   132A      3.581924   133A      3.670743
     134A      3.671494   135A      3.692979   136A      3.725515
     137A      3.725979   138A      3.780620   139A      3.782042
     140A      3.817682   141A      3.921450   142A      3.922636
     143A      4.045326   144A      4.117834   145A      4.118535
     146A      4.154358   147A      4.156298   148A      4.187325
     149A      4.208543   150A      4.209188   151A      4.210893
     152A      4.215352   153A      4.322377   154A      4.324437
     155A      4.362339   156A      4.432111   157A      4.433153
     158A      4.446377   159A      4.524394   160A      4.524868
     161A      4.588305   162A      4.589126   163A      4.625043
     164A      4.719818   165A      4.780937   166A      4.782184
     167A      4.839816   168A      4.967615   169A      5.006648
     170A      5.007383   171A      5.233748   172A      5.248373
     173A      5.248848   174A      5.361402   175A      5.362568
     176A      5.481672

    Final Occupation by Irrep:
              A
    DOCC [    16 ]
    SOCC [     1 ]

  @DF-UKS Final Energy:  -157.81306285405839

   => Energetics <=

    Nuclear Repulsion Energy =            125.3946944200643827
    One-Electron Energy =                -458.7490340393868564
    Two-Electron Energy =                 195.8484226288589412
    DFT Exchange-Correlation Energy =     -20.3071458635948758
    Empirical Dispersion Energy =           0.0000000000000000
    VV10 Nonlocal Energy =                  0.0000000000000000
    Total Energy =                       -157.8130628540583871

  UHF NO Occupations:
  HONO-2 :   15  A 1.9996009
  HONO-1 :   16  A 1.9989805
  HONO-0 :   17  A 1.0000000
  LUNO+0 :   18  A 0.0010195
  LUNO+1 :   19  A 0.0003991
  LUNO+2 :   20  A 0.0001987
  LUNO+3 :   21  A 0.0001964

Computation Completed

Properties will be evaluated at   0.000000,   0.000000,   0.000000 [a0]

Properties computed using the SCF density matrix

  Nuclear Dipole Moment: [e a0]
     X:     0.8272      Y:    -0.0096      Z:     0.0031

  Electronic Dipole Moment: [e a0]
     X:    -0.7493      Y:     0.0109      Z:    -0.0030

  Dipole Moment: [e a0]
     X:     0.0779      Y:     0.0012      Z:     0.0001     Total:     0.0779

  Dipole Moment: [D]
     X:     0.1980      Y:     0.0031      Z:     0.0001     Total:     0.1981

*** tstop() called on n036 at Fri Nov  5 12:02:45 2021
Module time:
	user time   =     634.61 seconds =      10.58 minutes
	system time =      12.17 seconds =       0.20 minutes
	total time  =        162 seconds =       2.70 minutes
Total time:
	user time   =     634.61 seconds =      10.58 minutes
	system time =      12.17 seconds =       0.20 minutes
	total time  =        162 seconds =       2.70 minutes
Grab this energy -157.8130628540584
    Psi4 stopped on: Friday, 05 November 2021 12:02PM
    Psi4 wall time for execution: 0:02:42.59

*** Psi4 exiting successfully. Buy a developer a beer!
