                               Psi4 1.4a2.dev629

  ==> Input File <==

--------------------------------------------------------------------------
import os
memory 14 GB

molecule {
 C   -0.3233311935    0.0054218390    0.0000000000
 C    0.0612904066   -1.4025564937   -2.4208932864
 C    0.0607282081    2.8095598277   -0.0000000000
 C    0.0612904066   -1.4025564937    2.4208932864
 H    2.0877851362   -1.6475351153   -2.8401520095
 H   -0.7598980659   -0.3985337612   -4.0216861030
 H   -0.7703793482   -3.2955330611   -2.3357368694
 H    2.0851094756    3.2972684646   -0.0000000000
 H   -0.7663553121    3.6880212088    1.6776128625
 H   -0.7663553121    3.6880212088   -1.6776128625
 H    2.0877851362   -1.6475351153    2.8401520095
 H   -0.7703793482   -3.2955330611    2.3357368694
 H   -0.7598980659   -0.3985337612    4.0216861030
units bohr
0 2
}

basis {

assign 6-31g_2dfp_

[ 6-31g_2dfp_ ]

spherical

!----------------------------------------------------------------------
! Basis Set Exchange
! Version v0.8.13
! https://www.basissetexchange.org
!----------------------------------------------------------------------
!   Basis set: 6-31G(2df,p)
! Description: 6-31G(2df,p)
!        Role: orbital
!     Version: 0  (Data from the original Basis Set Exchange)
!----------------------------------------------------------------------

****
H     0
S    3   1.00
     18.7311370              0.03349460
      2.8253937              0.23472695
      0.6401217              0.81375733
S    1   1.00
      0.1612778              1.00000000
P    1   1.00
      1.5000000              1.0000000
P    1   1.00
      0.3750000              1.0000000
****
B     0
S    6   1.00
   2068.8823000              0.0018663
    310.6495700              0.0142515
     70.6830330              0.0695516
     19.8610800              0.2325729
      6.2993048              0.4670787
      2.1270270              0.3634314
SP   3   1.00
      4.7279710             -0.1303938              0.0745976
      1.1903377             -0.1307889              0.3078467
      0.3594117              1.1309444              0.7434568
SP   1   1.00
      0.1267512              1.0000000              1.0000000
D    1   1.00
      0.8020000              1.0000000
D    1   1.00
      0.2005000              1.0000000
F    1   1.00
      0.5000000              1.0000000
****
C     0
S    6   1.00
   3047.5249000              0.0018347
    457.3695100              0.0140373
    103.9486900              0.0688426
     29.2101550              0.2321844
      9.2866630              0.4679413
      3.1639270              0.3623120
SP   3   1.00
      7.8682724             -0.1193324              0.0689991
      1.8812885             -0.1608542              0.3164240
      0.5442493              1.1434564              0.7443083
SP   1   1.00
      0.1687144              1.0000000              1.0000000
D    1   1.00
      1.2520000              1.0000000
D    1   1.00
      0.3130000              1.0000000
F    1   1.00
      0.8000000              1.0000000
****
N     0
S    6   1.00
   4173.5110000              0.0018348
    627.4579000              0.0139950
    142.9021000              0.0685870
     40.2343300              0.2322410
     12.8202100              0.4690700
      4.3904370              0.3604550
SP   3   1.00
     11.6263580             -0.1149610              0.0675800
      2.7162800             -0.1691180              0.3239070
      0.7722180              1.1458520              0.7408950
SP   1   1.00
      0.2120313              1.0000000              1.0000000
D    1   1.00
      1.8260000              1.0000000
D    1   1.00
      0.4565000              1.0000000
F    1   1.00
      1.0000000              1.0000000
****
O     0
S    6   1.00
   5484.6717000              0.0018311
    825.2349500              0.0139501
    188.0469600              0.0684451
     52.9645000              0.2327143
     16.8975700              0.4701930
      5.7996353              0.3585209
SP   3   1.00
     15.5396160             -0.1107775              0.0708743
      3.5999336             -0.1480263              0.3397528
      1.0137618              1.1307670              0.7271586
SP   1   1.00
      0.2700058              1.0000000              1.0000000
D    1   1.00
      2.5840000              1.0000000
D    1   1.00
      0.6460000              1.0000000
F    1   1.00
      1.4000000              1.0000000
****
F     0
S    6   1.00
   7001.7130900              0.0018196169
   1051.3660900              0.0139160796
    239.2856900              0.0684053245
     67.3974453              0.233185760
     21.5199573              0.471267439
      7.40310130             0.356618546
SP   3   1.00
     20.8479528             -0.108506975            0.0716287243
      4.80830834            -0.146451658            0.3459121030
      1.34406986             1.128688580            0.7224699570
SP   1   1.00
      0.358151393            1.0000000              1.0000000
D    1   1.00
      3.5000000              1.0000000
D    1   1.00
      0.8750000              1.0000000
F    1   1.00
      1.8500000              1.0000000
****
Al     0
S    6   1.00
  13983.1000000              0.00194267
   2098.7500000              0.0148599
    477.7050000              0.0728494
    134.3600000              0.2468300
     42.8709000              0.4872580
     14.5189000              0.3234960
SP   6   1.00
    239.6680000             -0.00292619             0.00460285
     57.4419000             -0.0374080              0.0331990
     18.2859000             -0.1144870              0.1362820
      6.5991400              0.1156350              0.3304760
      2.4904900              0.6125950              0.4491460
      0.9445400              0.3937990              0.2657040
SP   3   1.00
      1.2779000             -0.2276060             -0.0175130
      0.3975900              0.00144583             0.2445330
      0.1600950              1.0927900              0.8049340
SP   1   1.00
      0.0556577              1.0000000              1.0000000
D    1   1.00
      0.6500000              1.0000000
D    1   1.00
      0.1625000              1.0000000
F    1   1.00
      0.2500000              1.0000000
****
Si     0
S    6   1.00
  16115.9000000              0.00195948
   2425.5800000              0.01492880
    553.8670000              0.07284780
    156.3400000              0.24613000
     50.0683000              0.48591400
     17.0178000              0.32500200
SP   6   1.00
    292.7180000             -0.00278094             0.00443826
     69.8731000             -0.03571460             0.03266790
     22.3363000             -0.11498500             0.13472100
      8.1503900              0.09356340             0.32867800
      3.1345800              0.60301700             0.44964000
      1.2254300              0.41895900             0.26137200
SP   3   1.00
      1.7273800             -0.24463000            -0.01779510
      0.5729220              0.00431572             0.25353900
      0.2221920              1.09818000             0.80066900
SP   1   1.00
      0.0778369              1.00000000             1.00000000
D    1   1.00
      0.9000000              1.0000000
D    1   1.00
      0.2250000              1.0000000
F    1   1.00
      0.3200000              1.0000000
****
P     0
S    6   1.00
  19413.3000000              0.0018516
   2909.4200000              0.0142062
    661.3640000              0.0699995
    185.7590000              0.2400790
     59.1943000              0.4847620
     20.0310000              0.3352000
SP   6   1.00
    339.4780000             -0.00278217             0.00456462
     81.0101000             -0.0360499              0.03369360
     25.8780000             -0.1166310              0.13975500
      9.4522100              0.0968328              0.33936200
      3.6656600              0.6144180              0.45092100
      1.4674600              0.4037980              0.23858600
SP   3   1.00
      2.1562300             -0.2529230             -0.01776530
      0.7489970              0.0328517              0.27405800
      0.2831450              1.0812500              0.78542100
SP   1   1.00
      0.0998317              1.0000000              1.00000000
D    1   1.00
      1.1000000              1.0000000
D    1   1.00
      0.2750000              1.0000000
F    1   1.00
      0.4500000              1.0000000
****
S     0
S    6   1.00
  21917.1000000              0.0018690
   3301.4900000              0.0142300
    754.1460000              0.0696960
    212.7110000              0.2384870
     67.9896000              0.4833070
     23.0515000              0.3380740
SP   6   1.00
    423.7350000             -0.0023767              0.0040610
    100.7100000             -0.0316930              0.0306810
     32.1599000             -0.1133170              0.1304520
     11.8079000              0.0560900              0.3272050
      4.6311000              0.5922550              0.4528510
      1.8702500              0.4550060              0.2560420
SP   3   1.00
      2.6158400             -0.2503740             -0.0145110
      0.9221670              0.0669570              0.3102630
      0.3412870              1.0545100              0.7544830
SP   1   1.00
      0.1171670              1.0000000              1.0000000
D    1   1.00
      1.3000000              1.0000000
D    1   1.00
      0.3250000              1.0000000
F    1   1.00
      0.5500000              1.0000000
****
Cl     0
S    6   1.00
  25180.1000000              0.0018330
   3780.3500000              0.0140340
    860.4740000              0.0690970
    242.1450000              0.2374520
     77.3349000              0.4830340
     26.2470000              0.3398560
SP   6   1.00
    491.7650000             -0.0022974              0.0039894
    116.9840000             -0.0307140              0.0303180
     37.4153000             -0.1125280              0.1298800
     13.7834000              0.0450160              0.3279510
      5.4521500              0.5893530              0.4535270
      2.2258800              0.4652060              0.2521540
SP   3   1.00
      3.1864900             -0.2518300             -0.0142990
      1.1442700              0.0615890              0.3235720
      0.4203770              1.0601800              0.7435070
SP   1   1.00
      0.1426570              1.0000000              1.0000000
D    1   1.00
      1.5000000              1.0000000
D    1   1.00
      0.3750000              1.0000000
F    1   1.00
      0.7000000              1.0000000
****
}

set {
reference uhf
freeze_core true
e_convergence 10
d_convergence 10
dft_spherical_points 1202
dft_radial_points 99
}

e = energy('b3lyp')

print_out('Grab this energy {0}'.format(e))
--------------------------------------------------------------------------

    Molecular point group: cs

    Geometry (in Bohr), charge = 0, multiplicity = 2:

       Center              X                  Y                   Z               Mass
    ------------   -----------------  -----------------  -----------------  -----------------
         C           -0.323334624345     0.003521489650     0.000000000000    12.000000000000
         C            0.061286975755    -1.404456843050    -2.420893286400    12.000000000000
         C            0.060724777255     2.807659478350     0.000000000000    12.000000000000
         C            0.061286975755    -1.404456843050     2.420893286400    12.000000000000
         H            2.087781705355    -1.649435464650    -2.840152009500     1.007825032230
         H           -0.759901496745    -0.400434110550    -4.021686103000     1.007825032230
         H           -0.770382779045    -3.297433410450    -2.335736869400     1.007825032230
         H            2.085106044755     3.295368115250     0.000000000000     1.007825032230
         H           -0.766358742945     3.686120859450     1.677612862500     1.007825032230
         H           -0.766358742945     3.686120859450    -1.677612862500     1.007825032230
         H            2.087781705355    -1.649435464650     2.840152009500     1.007825032230
         H           -0.770382779045    -3.297433410450     2.335736869400     1.007825032230
         H           -0.759901496745    -0.400434110550     4.021686103000     1.007825032230

  Charge       = 0
  Multiplicity = 2
  Basis Set: ANONYMOUS839F5B8B
    Blend: 6-31G_2DFP_
  Basis Set: (ANONYMOUS839F5B8B AUX)
    Blend: DEF2-UNIVERSAL-JKFIT

    Orbital Energies [Eh]
    ---------------------

    Alpha Occupied:

       1Ap   -10.180342     2Ap   -10.167336     1App  -10.166870
       3Ap   -10.166838     4Ap    -0.797768     5Ap    -0.686348
       2App   -0.686027     6Ap    -0.530778     7Ap    -0.441125
       8Ap    -0.435123     3App   -0.434220     9Ap    -0.382767
       4App   -0.382430     5App   -0.363604    10Ap    -0.338112
       6App   -0.337887    11Ap    -0.168961

    Alpha Virtual:

      12Ap     0.076067    13Ap     0.133799     7App    0.134504
       8App    0.142563    14Ap     0.142693    15Ap     0.154885
      16Ap     0.178651     9App    0.178912    17Ap     0.203544
      10App    0.214807    18Ap     0.275927    11App    0.276045
      19Ap     0.398801    12App    0.399618    20Ap     0.403390
      21Ap     0.423804    13App    0.424396    22Ap     0.456592
      23Ap     0.494933    14App    0.495841    15App    0.512175
      24Ap     0.513985    25Ap     0.578608    16App    0.579011
      17App    0.591515    26Ap     0.591744    27Ap     0.602571
      28Ap     0.624702    18App    0.631775    19App    0.635741
      29Ap     0.636832    30Ap     0.663407    20App    0.663418
      31Ap     0.683411    21App    0.684310    32Ap     0.734993
      33Ap     0.824832    22App    0.825968    23App    0.853917
      34Ap     0.914563    24App    0.915494    25App    0.944025
      35Ap     0.944461    26App    0.961239    36Ap     0.961645
      37Ap     1.003469    38Ap     1.126664    27App    1.129574
      39Ap     1.142213    40Ap     1.162704    28App    1.163820
      41Ap     1.223329    42Ap     1.274236    29App    1.274777
      43Ap     1.279336    30App    1.324043    44Ap     1.324639
      45Ap     1.355987    46Ap     1.365652    31App    1.366449
      32App    1.392388    47Ap     1.403294    33App    1.404867
      48Ap     1.415944    34App    1.418349    35App    1.427916
      36App    1.491450    49Ap     1.499065    50Ap     1.542425
      37App    1.543218    51Ap     1.572791    38App    1.576199
      52Ap     1.669840    53Ap     1.738969    39App    1.739766
      54Ap     1.768398    55Ap     1.830118    40App    1.832666
      41App    1.971764    56Ap     2.017484    57Ap     2.018924
      42App    2.019885    58Ap     2.050720    43App    2.054723
      59Ap     2.738406    44App    2.738569    60Ap     2.790918
      45App    2.811439    46App    2.889705    61Ap     2.890193
      62Ap     2.894951    63Ap     2.929346    47App    2.929652
      48App    2.958923    64Ap     2.963528    49App    2.965314
      65Ap     3.034006    66Ap     3.069768    50App    3.072599
      51App    3.084606    67Ap     3.168431    52App    3.169191
      68Ap     3.180547    53App    3.284752    69Ap     3.285872
      70Ap     3.326606    54App    3.327739    71Ap     3.375652
      72Ap     3.489389    55App    3.490855    56App    3.514029
      73Ap     3.525301    74Ap     3.566880    57App    3.569695
      58App    3.575409    59App    3.666057    75Ap     3.666759
      76Ap     3.679619    60App    3.693916    77Ap     3.694346
      61App    3.775916    78Ap     3.777667    79Ap     3.789222
      80Ap     3.910220    62App    3.914222    81Ap     4.034460
      82Ap     4.110515    63App    4.112169    83Ap     4.146106
      64App    4.150084    84Ap     4.173278    85Ap     4.200634
      86Ap     4.202697    65App    4.205539    66App    4.210889
      87Ap     4.315327    67App    4.316584    68App    4.359027
      69App    4.424014    88Ap     4.424857    70App    4.443520
      71App    4.516650    89Ap     4.517028    90Ap     4.577187
      72App    4.579339    91Ap     4.617532    92Ap     4.709369
      93Ap     4.774397    73App    4.774887    74App    4.836961
      94Ap     4.962849    95Ap     5.002351    75App    5.003575
      96Ap     5.227707    76App    5.246719    97Ap     5.247210
      77App    5.354911    98Ap     5.356097    78App    5.479413

    Beta Occupied:

       1Ap   -10.168092     1App  -10.167624     2Ap   -10.167608
       3Ap   -10.166518     4Ap    -0.781093     5Ap    -0.684152
       2App   -0.683827     6Ap    -0.511750     7Ap    -0.431503
       3App   -0.430582     8Ap    -0.421822     9Ap    -0.376858
       4App   -0.376510     5App   -0.362588    10Ap    -0.333243
       6App   -0.333002

    Beta Virtual:

      11Ap    -0.025743    12Ap     0.077076    13Ap     0.134655
       7App    0.135431     8App    0.144399    14Ap     0.144599
      15Ap     0.163342    16Ap     0.182311     9App    0.182593
      10App    0.215036    17Ap     0.218926    18Ap     0.282262
      11App    0.282405    19Ap     0.400026    12App    0.400769
      20Ap     0.419798    21Ap     0.426601    13App    0.427223
      22Ap     0.468501    23Ap     0.497187    14App    0.498110
      15App    0.513910    24Ap     0.556327    25Ap     0.584185
      16App    0.584533    17App    0.597685    26Ap     0.597926
      27Ap     0.609991    28Ap     0.628102    18App    0.631930
      19App    0.639032    29Ap     0.640104    30Ap     0.666928
      20App    0.667022    31Ap     0.686016    21App    0.686974
      32Ap     0.757516    33Ap     0.829978    22App    0.831157
      23App    0.855270    34Ap     0.922537    24App    0.923460
      25App    0.945886    35Ap     0.953364    26App    0.966486
      36Ap     0.967016    37Ap     1.008707    38Ap     1.130705
      27App    1.133590    39Ap     1.155590    40Ap     1.167751
      28App    1.168921    41Ap     1.232296    42Ap     1.279850
      29App    1.280361    43Ap     1.285089    30App    1.329017
      44Ap     1.329641    45Ap     1.365402    46Ap     1.370730
      31App    1.371852    32App    1.393449    47Ap     1.406815
      33App    1.408289    48Ap     1.421042    34App    1.423339
      35App    1.428192    36App    1.492498    49Ap     1.509508
      50Ap     1.546702    37App    1.547760    51Ap     1.580811
      38App    1.583918    52Ap     1.674687    53Ap     1.744760
      39App    1.745509    54Ap     1.779168    55Ap     1.833952
      40App    1.836542    41App    1.972627    56Ap     2.024467
      42App    2.026374    57Ap     2.039574    58Ap     2.057592
      43App    2.061332    59Ap     2.746709    44App    2.746938
      45App    2.811852    60Ap     2.816054    46App    2.902385
      61Ap     2.902894    62Ap     2.924653    63Ap     2.931875
      47App    2.932086    48App    2.960012    64Ap     2.968114
      49App    2.969790    65Ap     3.041940    66Ap     3.079572
      50App    3.081975    51App    3.087083    67Ap     3.184267
      52App    3.184846    68Ap     3.188215    53App    3.289627
      69Ap     3.290598    70Ap     3.330438    54App    3.331518
      71Ap     3.383467    72Ap     3.492141    55App    3.493557
      56App    3.512403    73Ap     3.528357    57App    3.574781
      74Ap     3.580141    58App    3.583604    59App    3.670960
      75Ap     3.671349    76Ap     3.692917    60App    3.725403
      77Ap     3.726107    61App    3.780388    78Ap     3.782289
      79Ap     3.817723    80Ap     3.919967    62App    3.924105
      81Ap     4.045350    82Ap     4.117552    63App    4.118773
      83Ap     4.153151    64App    4.157455    84Ap     4.187318
      85Ap     4.206589    86Ap     4.210659    65App    4.211477
      66App    4.215366    87Ap     4.322827    67App    4.323964
      68App    4.362389    69App    4.432206    88Ap     4.433079
      70App    4.446422    71App    4.524330    89Ap     4.524922
      90Ap     4.587741    72App    4.589987    91Ap     4.624724
      92Ap     4.719713    93Ap     4.781291    73App    4.781899
      74App    4.839882    94Ap     4.967641    95Ap     5.006391
      75App    5.007615    96Ap     5.233349    76App    5.248488
      97Ap     5.249087    77App    5.361417    98Ap     5.362546
      78App    5.481736

    Final Occupation by Irrep:
             Ap   App
    DOCC [    10,    6 ]
    SOCC [     1,    0 ]

  @DF-UKS Final Energy:  -157.81305120462383

   => Energetics <=

    Nuclear Repulsion Energy =            125.3948573593983298
    One-Electron Energy =                -458.7493371050896940
    Two-Electron Energy =                 195.8485785499133272
    DFT Exchange-Correlation Energy =     -20.3071500088457704
    Empirical Dispersion Energy =           0.0000000000000000
    VV10 Nonlocal Energy =                  0.0000000000000000
    Total Energy =                       -157.8130512046238323

  UHF NO Occupations:
  HONO-2 :    9 Ap 1.9996009
  HONO-1 :   10 Ap 1.9989804
  HONO-0 :   11 Ap 1.0000000
  LUNO+0 :   12 Ap 0.0010196
  LUNO+1 :   13 Ap 0.0003991
  LUNO+2 :    7App 0.0001979
  LUNO+3 :   14 Ap 0.0001972

Computation Completed

Properties will be evaluated at   0.000000,   0.000000,   0.000000 [a0]

Properties computed using the SCF density matrix

  Nuclear Dipole Moment: [e a0]
     X:     0.8272      Y:    -0.0134      Z:     0.0000

  Electronic Dipole Moment: [e a0]
     X:    -0.7492      Y:     0.0159      Z:     0.0000

  Dipole Moment: [e a0]
     X:     0.0779      Y:     0.0025      Z:     0.0000     Total:     0.0780

  Dipole Moment: [D]
     X:     0.1980      Y:     0.0063      Z:     0.0000     Total:     0.1982

*** tstop() called on n061 at Fri Nov  5 14:30:37 2021
Module time:
	user time   =     543.94 seconds =       9.07 minutes
	system time =      12.13 seconds =       0.20 minutes
	total time  =        140 seconds =       2.33 minutes
Total time:
	user time   =     543.94 seconds =       9.07 minutes
	system time =      12.13 seconds =       0.20 minutes
	total time  =        140 seconds =       2.33 minutes
Grab this energy -157.81305120462383
    Psi4 stopped on: Friday, 05 November 2021 02:30PM
    Psi4 wall time for execution: 0:02:19.85

*** Psi4 exiting successfully. Buy a developer a beer!
