                               Psi4 1.4a2.dev629

  ==> Input File <==

--------------------------------------------------------------------------
import os
memory 14 GB

molecule {
 C   -0.3247910779   -0.0000014234   -0.0004332334
 C    0.0622644467   -1.4001817772   -2.4265649803
 C    0.0618781455    2.8016640061   -0.0013884290
 C    0.0617291834   -1.4014763644    2.4260302510
 H    2.0860987328   -1.6426100874   -2.8483576547
 H   -0.7636620588   -0.3883258973   -4.0247478110
 H   -0.7670338749   -3.2938322482   -2.3482976823
 H    2.0867500317    3.2881446949   -0.0034940615
 H   -0.7690170773    3.6811511593    1.6788333307
 H   -0.7626017247    3.6793454022   -1.6740536024
 H    2.0876783593   -1.6456275742    2.8465952546
 H   -0.7644284134   -3.2900642542    2.3497257230
 H   -0.7674725490   -0.3882099497    4.0261528953
units bohr
0 2
}

basis {

assign 6-31g_2dfp_

[ 6-31g_2dfp_ ]

spherical

!----------------------------------------------------------------------
! Basis Set Exchange
! Version v0.8.13
! https://www.basissetexchange.org
!----------------------------------------------------------------------
!   Basis set: 6-31G(2df,p)
! Description: 6-31G(2df,p)
!        Role: orbital
!     Version: 0  (Data from the original Basis Set Exchange)
!----------------------------------------------------------------------

****
H     0
S    3   1.00
     18.7311370              0.03349460
      2.8253937              0.23472695
      0.6401217              0.81375733
S    1   1.00
      0.1612778              1.00000000
P    1   1.00
      1.5000000              1.0000000
P    1   1.00
      0.3750000              1.0000000
****
B     0
S    6   1.00
   2068.8823000              0.0018663
    310.6495700              0.0142515
     70.6830330              0.0695516
     19.8610800              0.2325729
      6.2993048              0.4670787
      2.1270270              0.3634314
SP   3   1.00
      4.7279710             -0.1303938              0.0745976
      1.1903377             -0.1307889              0.3078467
      0.3594117              1.1309444              0.7434568
SP   1   1.00
      0.1267512              1.0000000              1.0000000
D    1   1.00
      0.8020000              1.0000000
D    1   1.00
      0.2005000              1.0000000
F    1   1.00
      0.5000000              1.0000000
****
C     0
S    6   1.00
   3047.5249000              0.0018347
    457.3695100              0.0140373
    103.9486900              0.0688426
     29.2101550              0.2321844
      9.2866630              0.4679413
      3.1639270              0.3623120
SP   3   1.00
      7.8682724             -0.1193324              0.0689991
      1.8812885             -0.1608542              0.3164240
      0.5442493              1.1434564              0.7443083
SP   1   1.00
      0.1687144              1.0000000              1.0000000
D    1   1.00
      1.2520000              1.0000000
D    1   1.00
      0.3130000              1.0000000
F    1   1.00
      0.8000000              1.0000000
****
N     0
S    6   1.00
   4173.5110000              0.0018348
    627.4579000              0.0139950
    142.9021000              0.0685870
     40.2343300              0.2322410
     12.8202100              0.4690700
      4.3904370              0.3604550
SP   3   1.00
     11.6263580             -0.1149610              0.0675800
      2.7162800             -0.1691180              0.3239070
      0.7722180              1.1458520              0.7408950
SP   1   1.00
      0.2120313              1.0000000              1.0000000
D    1   1.00
      1.8260000              1.0000000
D    1   1.00
      0.4565000              1.0000000
F    1   1.00
      1.0000000              1.0000000
****
O     0
S    6   1.00
   5484.6717000              0.0018311
    825.2349500              0.0139501
    188.0469600              0.0684451
     52.9645000              0.2327143
     16.8975700              0.4701930
      5.7996353              0.3585209
SP   3   1.00
     15.5396160             -0.1107775              0.0708743
      3.5999336             -0.1480263              0.3397528
      1.0137618              1.1307670              0.7271586
SP   1   1.00
      0.2700058              1.0000000              1.0000000
D    1   1.00
      2.5840000              1.0000000
D    1   1.00
      0.6460000              1.0000000
F    1   1.00
      1.4000000              1.0000000
****
F     0
S    6   1.00
   7001.7130900              0.0018196169
   1051.3660900              0.0139160796
    239.2856900              0.0684053245
     67.3974453              0.233185760
     21.5199573              0.471267439
      7.40310130             0.356618546
SP   3   1.00
     20.8479528             -0.108506975            0.0716287243
      4.80830834            -0.146451658            0.3459121030
      1.34406986             1.128688580            0.7224699570
SP   1   1.00
      0.358151393            1.0000000              1.0000000
D    1   1.00
      3.5000000              1.0000000
D    1   1.00
      0.8750000              1.0000000
F    1   1.00
      1.8500000              1.0000000
****
Al     0
S    6   1.00
  13983.1000000              0.00194267
   2098.7500000              0.0148599
    477.7050000              0.0728494
    134.3600000              0.2468300
     42.8709000              0.4872580
     14.5189000              0.3234960
SP   6   1.00
    239.6680000             -0.00292619             0.00460285
     57.4419000             -0.0374080              0.0331990
     18.2859000             -0.1144870              0.1362820
      6.5991400              0.1156350              0.3304760
      2.4904900              0.6125950              0.4491460
      0.9445400              0.3937990              0.2657040
SP   3   1.00
      1.2779000             -0.2276060             -0.0175130
      0.3975900              0.00144583             0.2445330
      0.1600950              1.0927900              0.8049340
SP   1   1.00
      0.0556577              1.0000000              1.0000000
D    1   1.00
      0.6500000              1.0000000
D    1   1.00
      0.1625000              1.0000000
F    1   1.00
      0.2500000              1.0000000
****
Si     0
S    6   1.00
  16115.9000000              0.00195948
   2425.5800000              0.01492880
    553.8670000              0.07284780
    156.3400000              0.24613000
     50.0683000              0.48591400
     17.0178000              0.32500200
SP   6   1.00
    292.7180000             -0.00278094             0.00443826
     69.8731000             -0.03571460             0.03266790
     22.3363000             -0.11498500             0.13472100
      8.1503900              0.09356340             0.32867800
      3.1345800              0.60301700             0.44964000
      1.2254300              0.41895900             0.26137200
SP   3   1.00
      1.7273800             -0.24463000            -0.01779510
      0.5729220              0.00431572             0.25353900
      0.2221920              1.09818000             0.80066900
SP   1   1.00
      0.0778369              1.00000000             1.00000000
D    1   1.00
      0.9000000              1.0000000
D    1   1.00
      0.2250000              1.0000000
F    1   1.00
      0.3200000              1.0000000
****
P     0
S    6   1.00
  19413.3000000              0.0018516
   2909.4200000              0.0142062
    661.3640000              0.0699995
    185.7590000              0.2400790
     59.1943000              0.4847620
     20.0310000              0.3352000
SP   6   1.00
    339.4780000             -0.00278217             0.00456462
     81.0101000             -0.0360499              0.03369360
     25.8780000             -0.1166310              0.13975500
      9.4522100              0.0968328              0.33936200
      3.6656600              0.6144180              0.45092100
      1.4674600              0.4037980              0.23858600
SP   3   1.00
      2.1562300             -0.2529230             -0.01776530
      0.7489970              0.0328517              0.27405800
      0.2831450              1.0812500              0.78542100
SP   1   1.00
      0.0998317              1.0000000              1.00000000
D    1   1.00
      1.1000000              1.0000000
D    1   1.00
      0.2750000              1.0000000
F    1   1.00
      0.4500000              1.0000000
****
S     0
S    6   1.00
  21917.1000000              0.0018690
   3301.4900000              0.0142300
    754.1460000              0.0696960
    212.7110000              0.2384870
     67.9896000              0.4833070
     23.0515000              0.3380740
SP   6   1.00
    423.7350000             -0.0023767              0.0040610
    100.7100000             -0.0316930              0.0306810
     32.1599000             -0.1133170              0.1304520
     11.8079000              0.0560900              0.3272050
      4.6311000              0.5922550              0.4528510
      1.8702500              0.4550060              0.2560420
SP   3   1.00
      2.6158400             -0.2503740             -0.0145110
      0.9221670              0.0669570              0.3102630
      0.3412870              1.0545100              0.7544830
SP   1   1.00
      0.1171670              1.0000000              1.0000000
D    1   1.00
      1.3000000              1.0000000
D    1   1.00
      0.3250000              1.0000000
F    1   1.00
      0.5500000              1.0000000
****
Cl     0
S    6   1.00
  25180.1000000              0.0018330
   3780.3500000              0.0140340
    860.4740000              0.0690970
    242.1450000              0.2374520
     77.3349000              0.4830340
     26.2470000              0.3398560
SP   6   1.00
    491.7650000             -0.0022974              0.0039894
    116.9840000             -0.0307140              0.0303180
     37.4153000             -0.1125280              0.1298800
     13.7834000              0.0450160              0.3279510
      5.4521500              0.5893530              0.4535270
      2.2258800              0.4652060              0.2521540
SP   3   1.00
      3.1864900             -0.2518300             -0.0142990
      1.1442700              0.0615890              0.3235720
      0.4203770              1.0601800              0.7435070
SP   1   1.00
      0.1426570              1.0000000              1.0000000
D    1   1.00
      1.5000000              1.0000000
D    1   1.00
      0.3750000              1.0000000
F    1   1.00
      0.7000000              1.0000000
****
}

set {
reference uhf
freeze_core true
e_convergence 10
d_convergence 10
dft_spherical_points 1202
dft_radial_points 99
}

e = energy('b3lyp')

print_out('Grab this energy {0}'.format(e))
--------------------------------------------------------------------------

    Molecular point group: c1

    Geometry (in Bohr), charge = 0, multiplicity = 2:

       Center              X                  Y                   Z               Mass
    ------------   -----------------  -----------------  -----------------  -----------------
         C           -0.325006929432    -0.000001849428     0.000020624614    12.000000000000
         C            0.062048595168    -1.400182203228    -2.426111122286    12.000000000000
         C            0.061662293968     2.801663580072    -0.000934570986    12.000000000000
         C            0.061513331868    -1.401476790428     2.426484109014    12.000000000000
         H            2.085882881268    -1.642610513428    -2.847903796686     1.007825032230
         H           -0.763877910332    -0.388326323328    -4.024293952986     1.007825032230
         H           -0.767249726432    -3.293832674228    -2.347843824286     1.007825032230
         H            2.086534180168     3.288144268872    -0.003040203486     1.007825032230
         H           -0.769232928832     3.681150733272     1.679287188714     1.007825032230
         H           -0.762817576232     3.679344976172    -1.673599744386     1.007825032230
         H            2.087462507768    -1.645628000228     2.847049112614     1.007825032230
         H           -0.764644264932    -3.290064680228     2.350179581014     1.007825032230
         H           -0.767688400532    -0.388210375728     4.026606753314     1.007825032230

  Charge       = 0
  Multiplicity = 2
  Basis Set: ANONYMOUS6AF8923E
    Blend: 6-31G_2DFP_
  Basis Set: (ANONYMOUS6AF8923E AUX)
    Blend: DEF2-UNIVERSAL-JKFIT

    Orbital Energies [Eh]
    ---------------------

    Alpha Occupied:

       1A    -10.180407     2A    -10.167026     3A    -10.167018
       4A    -10.166975     5A     -0.797751     6A     -0.686230
       7A     -0.686110     8A     -0.530784     9A     -0.441182
      10A     -0.434793    11A     -0.434419    12A     -0.382729
      13A     -0.382683    14A     -0.363486    15A     -0.338069
      16A     -0.337744    17A     -0.169145

    Alpha Virtual:

      18A      0.076073    19A      0.134036    20A      0.134265
      21A      0.142398    22A      0.142810    23A      0.154961
      24A      0.178753    25A      0.178940    26A      0.203573
      27A      0.214756    28A      0.275704    29A      0.275923
      30A      0.398962    31A      0.399454    32A      0.403265
      33A      0.423907    34A      0.424231    35A      0.456687
      36A      0.495314    37A      0.495415    38A      0.512207
      39A      0.513880    40A      0.578888    41A      0.579003
      42A      0.591516    43A      0.591803    44A      0.602789
      45A      0.624636    46A      0.631709    47A      0.635832
      48A      0.636396    49A      0.663360    50A      0.663782
      51A      0.683551    52A      0.683951    53A      0.734797
      54A      0.825100    55A      0.825603    56A      0.853917
      57A      0.914747    58A      0.915176    59A      0.944174
      60A      0.944656    61A      0.961226    62A      0.961395
      63A      1.003456    64A      1.127928    65A      1.128492
      66A      1.142238    67A      1.163639    68A      1.163761
      69A      1.223160    70A      1.274181    71A      1.274668
      72A      1.279597    73A      1.323890    74A      1.324315
      75A      1.356227    76A      1.365378    77A      1.365979
      78A      1.392456    79A      1.404046    80A      1.404143
      81A      1.416640    82A      1.418057    83A      1.427951
      84A      1.491316    85A      1.499464    86A      1.542868
      87A      1.542905    88A      1.573959    89A      1.574369
      90A      1.669562    91A      1.738465    92A      1.739878
      93A      1.768375    94A      1.830222    95A      1.831780
      96A      1.971491    97A      2.016949    98A      2.018946
      99A      2.020079   100A      2.052505   101A      2.053569
     102A      2.738105   103A      2.738471   104A      2.791121
     105A      2.811396   106A      2.889560   107A      2.889852
     108A      2.895257   109A      2.929491   110A      2.929543
     111A      2.958893   112A      2.964227   113A      2.964344
     114A      3.034358   115A      3.069867   116A      3.070957
     117A      3.084359   118A      3.168487   119A      3.169315
     120A      3.180558   121A      3.285938   122A      3.286271
     123A      3.327132   124A      3.327913   125A      3.375793
     126A      3.489659   127A      3.490215   128A      3.513839
     129A      3.525791   130A      3.567666   131A      3.568536
     132A      3.575737   133A      3.665341   134A      3.666313
     135A      3.679419   136A      3.693960   137A      3.694427
     138A      3.776413   139A      3.776627   140A      3.787860
     141A      3.911621   142A      3.912780   143A      4.034133
     144A      4.110573   145A      4.111635   146A      4.147752
     147A      4.148357   148A      4.173286   149A      4.202298
     150A      4.202511   151A      4.204097   152A      4.211033
     153A      4.315508   154A      4.316819   155A      4.359457
     156A      4.423759   157A      4.424840   158A      4.443189
     159A      4.516094   160A      4.518182   161A      4.578381
     162A      4.578405   163A      4.617048   164A      4.709753
     165A      4.773470   166A      4.775435   167A      4.835711
     168A      4.962962   169A      5.002732   170A      5.003474
     171A      5.227480   172A      5.246651   173A      5.247159
     174A      5.353986   175A      5.356500   176A      5.479046

    Beta Occupied:

       1A    -10.167776     2A    -10.167769     3A    -10.167747
       4A    -10.166580     5A     -0.781080     6A     -0.684032
       7A     -0.683909     8A     -0.511747     9A     -0.431156
      10A     -0.430781    11A     -0.421908    12A     -0.376821
      13A     -0.376783    14A     -0.362469    15A     -0.333191
      16A     -0.332875

    Beta Virtual:

      17A     -0.025844    18A      0.077078    19A      0.134891
      20A      0.135170    21A      0.144244    22A      0.144711
      23A      0.163409    24A      0.182426    25A      0.182611
      26A      0.214986    27A      0.218934    28A      0.282065
      29A      0.282282    30A      0.400126    31A      0.400628
      32A      0.419685    33A      0.426720    34A      0.427044
      35A      0.468608    36A      0.497574    37A      0.497686
      38A      0.513937    39A      0.556226    40A      0.584425
      41A      0.584538    42A      0.597678    43A      0.598010
      44A      0.610187    45A      0.628037    46A      0.631867
      47A      0.639143    48A      0.639666    49A      0.666941
      50A      0.667333    51A      0.686202    52A      0.686557
      53A      0.757341    54A      0.830284    55A      0.830764
      56A      0.855266    57A      0.922748    58A      0.923137
      59A      0.946006    60A      0.953576    61A      0.966483
      62A      0.966686    63A      1.008716    64A      1.131968
      65A      1.132523    66A      1.155586    67A      1.168714
      68A      1.168826    69A      1.232130    70A      1.279776
      71A      1.280298    72A      1.285359    73A      1.328889
      74A      1.329311    75A      1.365618    76A      1.370678
      77A      1.371155    78A      1.393508    79A      1.407494
      80A      1.407625    81A      1.421718    82A      1.423035
      83A      1.428225    84A      1.492363    85A      1.509915
      86A      1.547247    87A      1.547342    88A      1.581829
      89A      1.582241    90A      1.674425    91A      1.744212
      92A      1.745653    93A      1.779133    94A      1.834065
      95A      1.835632    96A      1.972350    97A      2.025160
      98A      2.026282    99A      2.038696   100A      2.059232
     101A      2.060322   102A      2.746430   103A      2.746818
     104A      2.811816   105A      2.816238   106A      2.902250
     107A      2.902626   108A      2.924951   109A      2.931964
     110A      2.932003   111A      2.959969   112A      2.968768
     113A      2.968900   114A      3.042251   115A      3.079764
     116A      3.080851   117A      3.086279   118A      3.184169
     119A      3.184930   120A      3.188295   121A      3.290688
     122A      3.291041   123A      3.330911   124A      3.331758
     125A      3.383621   126A      3.492420   127A      3.492951
     128A      3.512207   129A      3.528845   130A      3.575601
     131A      3.580970   132A      3.581999   133A      3.670194
     134A      3.670912   135A      3.692721   136A      3.725776
     137A      3.725875   138A      3.780954   139A      3.781230
     140A      3.816390   141A      3.921333   142A      3.922625
     143A      4.045050   144A      4.117167   145A      4.118648
     146A      4.154754   147A      4.155812   148A      4.187282
     149A      4.208465   150A      4.209993   151A      4.210291
     152A      4.215501   153A      4.323014   154A      4.324240
     155A      4.362819   156A      4.431950   157A      4.432991
     158A      4.446077   159A      4.523860   160A      4.525961
     161A      4.588991   162A      4.589066   163A      4.624233
     164A      4.720123   165A      4.780465   166A      4.782377
     167A      4.838639   168A      4.967753   169A      5.006760
     170A      5.007497   171A      5.233091   172A      5.248443
     173A      5.249045   174A      5.360482   175A      5.362975
     176A      5.481375

    Final Occupation by Irrep:
              A
    DOCC [    16 ]
    SOCC [     1 ]

  @DF-UKS Final Energy:  -157.81305213164970

   => Energetics <=

    Nuclear Repulsion Energy =            125.3922245475733490
    One-Electron Energy =                -458.7442534660063416
    Two-Electron Energy =                 195.8460537677836442
    DFT Exchange-Correlation Energy =     -20.3070769810003284
    Empirical Dispersion Energy =           0.0000000000000000
    VV10 Nonlocal Energy =                  0.0000000000000000
    Total Energy =                       -157.8130521316496981

  UHF NO Occupations:
  HONO-2 :   15  A 1.9996024
  HONO-1 :   16  A 1.9989820
  HONO-0 :   17  A 1.0000000
  LUNO+0 :   18  A 0.0010180
  LUNO+1 :   19  A 0.0003976
  LUNO+2 :   20  A 0.0001977
  LUNO+3 :   21  A 0.0001976

Computation Completed

Properties will be evaluated at   0.000000,   0.000000,   0.000000 [a0]

Properties computed using the SCF density matrix

  Nuclear Dipole Moment: [e a0]
     X:     0.8257      Y:    -0.0000      Z:     0.0032

  Electronic Dipole Moment: [e a0]
     X:    -0.7470      Y:     0.0000      Z:    -0.0049

  Dipole Moment: [e a0]
     X:     0.0787      Y:    -0.0000      Z:    -0.0017     Total:     0.0787

  Dipole Moment: [D]
     X:     0.2000      Y:    -0.0000      Z:    -0.0044     Total:     0.2001

*** tstop() called on n054 at Fri Nov  5 11:34:44 2021
Module time:
	user time   =     511.21 seconds =       8.52 minutes
	system time =      11.75 seconds =       0.20 minutes
	total time  =        132 seconds =       2.20 minutes
Total time:
	user time   =     511.21 seconds =       8.52 minutes
	system time =      11.75 seconds =       0.20 minutes
	total time  =        132 seconds =       2.20 minutes
Grab this energy -157.8130521316497
    Psi4 stopped on: Friday, 05 November 2021 11:34AM
    Psi4 wall time for execution: 0:02:11.66

*** Psi4 exiting successfully. Buy a developer a beer!
