                               Psi4 1.4a2.dev629

  ==> Input File <==

--------------------------------------------------------------------------
import os
memory 14 GB

molecule {
 C   -0.3233413949   -0.0000020473    0.0004972158
 C    0.0623319035   -1.4023879301   -2.4254112113
 C    0.0610184947    2.8017592348   -0.0012167563
 C    0.0599474598   -1.3993670634    2.4273490694
 H    2.0833658194   -1.6438524287   -2.8480644212
 H   -0.7641498923   -0.3855414919   -4.0271669618
 H   -0.7635134821   -3.2938479034   -2.3476773442
 H    2.0867967199    3.2881006059    0.0008028067
 H   -0.7642521804    3.6797230848    1.6765006421
 H   -0.7670425206    3.6807829444   -1.6765002876
 H    2.0905082269   -1.6443464661    2.8468000685
 H   -0.7676244865   -3.2901518144    2.3502960747
 H   -0.7666525440   -0.3908930381    4.0237911054
units bohr
0 2
}

basis {

assign 6-31g_2dfp_

[ 6-31g_2dfp_ ]

spherical

!----------------------------------------------------------------------
! Basis Set Exchange
! Version v0.8.13
! https://www.basissetexchange.org
!----------------------------------------------------------------------
!   Basis set: 6-31G(2df,p)
! Description: 6-31G(2df,p)
!        Role: orbital
!     Version: 0  (Data from the original Basis Set Exchange)
!----------------------------------------------------------------------

****
H     0
S    3   1.00
     18.7311370              0.03349460
      2.8253937              0.23472695
      0.6401217              0.81375733
S    1   1.00
      0.1612778              1.00000000
P    1   1.00
      1.5000000              1.0000000
P    1   1.00
      0.3750000              1.0000000
****
B     0
S    6   1.00
   2068.8823000              0.0018663
    310.6495700              0.0142515
     70.6830330              0.0695516
     19.8610800              0.2325729
      6.2993048              0.4670787
      2.1270270              0.3634314
SP   3   1.00
      4.7279710             -0.1303938              0.0745976
      1.1903377             -0.1307889              0.3078467
      0.3594117              1.1309444              0.7434568
SP   1   1.00
      0.1267512              1.0000000              1.0000000
D    1   1.00
      0.8020000              1.0000000
D    1   1.00
      0.2005000              1.0000000
F    1   1.00
      0.5000000              1.0000000
****
C     0
S    6   1.00
   3047.5249000              0.0018347
    457.3695100              0.0140373
    103.9486900              0.0688426
     29.2101550              0.2321844
      9.2866630              0.4679413
      3.1639270              0.3623120
SP   3   1.00
      7.8682724             -0.1193324              0.0689991
      1.8812885             -0.1608542              0.3164240
      0.5442493              1.1434564              0.7443083
SP   1   1.00
      0.1687144              1.0000000              1.0000000
D    1   1.00
      1.2520000              1.0000000
D    1   1.00
      0.3130000              1.0000000
F    1   1.00
      0.8000000              1.0000000
****
N     0
S    6   1.00
   4173.5110000              0.0018348
    627.4579000              0.0139950
    142.9021000              0.0685870
     40.2343300              0.2322410
     12.8202100              0.4690700
      4.3904370              0.3604550
SP   3   1.00
     11.6263580             -0.1149610              0.0675800
      2.7162800             -0.1691180              0.3239070
      0.7722180              1.1458520              0.7408950
SP   1   1.00
      0.2120313              1.0000000              1.0000000
D    1   1.00
      1.8260000              1.0000000
D    1   1.00
      0.4565000              1.0000000
F    1   1.00
      1.0000000              1.0000000
****
O     0
S    6   1.00
   5484.6717000              0.0018311
    825.2349500              0.0139501
    188.0469600              0.0684451
     52.9645000              0.2327143
     16.8975700              0.4701930
      5.7996353              0.3585209
SP   3   1.00
     15.5396160             -0.1107775              0.0708743
      3.5999336             -0.1480263              0.3397528
      1.0137618              1.1307670              0.7271586
SP   1   1.00
      0.2700058              1.0000000              1.0000000
D    1   1.00
      2.5840000              1.0000000
D    1   1.00
      0.6460000              1.0000000
F    1   1.00
      1.4000000              1.0000000
****
F     0
S    6   1.00
   7001.7130900              0.0018196169
   1051.3660900              0.0139160796
    239.2856900              0.0684053245
     67.3974453              0.233185760
     21.5199573              0.471267439
      7.40310130             0.356618546
SP   3   1.00
     20.8479528             -0.108506975            0.0716287243
      4.80830834            -0.146451658            0.3459121030
      1.34406986             1.128688580            0.7224699570
SP   1   1.00
      0.358151393            1.0000000              1.0000000
D    1   1.00
      3.5000000              1.0000000
D    1   1.00
      0.8750000              1.0000000
F    1   1.00
      1.8500000              1.0000000
****
Al     0
S    6   1.00
  13983.1000000              0.00194267
   2098.7500000              0.0148599
    477.7050000              0.0728494
    134.3600000              0.2468300
     42.8709000              0.4872580
     14.5189000              0.3234960
SP   6   1.00
    239.6680000             -0.00292619             0.00460285
     57.4419000             -0.0374080              0.0331990
     18.2859000             -0.1144870              0.1362820
      6.5991400              0.1156350              0.3304760
      2.4904900              0.6125950              0.4491460
      0.9445400              0.3937990              0.2657040
SP   3   1.00
      1.2779000             -0.2276060             -0.0175130
      0.3975900              0.00144583             0.2445330
      0.1600950              1.0927900              0.8049340
SP   1   1.00
      0.0556577              1.0000000              1.0000000
D    1   1.00
      0.6500000              1.0000000
D    1   1.00
      0.1625000              1.0000000
F    1   1.00
      0.2500000              1.0000000
****
Si     0
S    6   1.00
  16115.9000000              0.00195948
   2425.5800000              0.01492880
    553.8670000              0.07284780
    156.3400000              0.24613000
     50.0683000              0.48591400
     17.0178000              0.32500200
SP   6   1.00
    292.7180000             -0.00278094             0.00443826
     69.8731000             -0.03571460             0.03266790
     22.3363000             -0.11498500             0.13472100
      8.1503900              0.09356340             0.32867800
      3.1345800              0.60301700             0.44964000
      1.2254300              0.41895900             0.26137200
SP   3   1.00
      1.7273800             -0.24463000            -0.01779510
      0.5729220              0.00431572             0.25353900
      0.2221920              1.09818000             0.80066900
SP   1   1.00
      0.0778369              1.00000000             1.00000000
D    1   1.00
      0.9000000              1.0000000
D    1   1.00
      0.2250000              1.0000000
F    1   1.00
      0.3200000              1.0000000
****
P     0
S    6   1.00
  19413.3000000              0.0018516
   2909.4200000              0.0142062
    661.3640000              0.0699995
    185.7590000              0.2400790
     59.1943000              0.4847620
     20.0310000              0.3352000
SP   6   1.00
    339.4780000             -0.00278217             0.00456462
     81.0101000             -0.0360499              0.03369360
     25.8780000             -0.1166310              0.13975500
      9.4522100              0.0968328              0.33936200
      3.6656600              0.6144180              0.45092100
      1.4674600              0.4037980              0.23858600
SP   3   1.00
      2.1562300             -0.2529230             -0.01776530
      0.7489970              0.0328517              0.27405800
      0.2831450              1.0812500              0.78542100
SP   1   1.00
      0.0998317              1.0000000              1.00000000
D    1   1.00
      1.1000000              1.0000000
D    1   1.00
      0.2750000              1.0000000
F    1   1.00
      0.4500000              1.0000000
****
S     0
S    6   1.00
  21917.1000000              0.0018690
   3301.4900000              0.0142300
    754.1460000              0.0696960
    212.7110000              0.2384870
     67.9896000              0.4833070
     23.0515000              0.3380740
SP   6   1.00
    423.7350000             -0.0023767              0.0040610
    100.7100000             -0.0316930              0.0306810
     32.1599000             -0.1133170              0.1304520
     11.8079000              0.0560900              0.3272050
      4.6311000              0.5922550              0.4528510
      1.8702500              0.4550060              0.2560420
SP   3   1.00
      2.6158400             -0.2503740             -0.0145110
      0.9221670              0.0669570              0.3102630
      0.3412870              1.0545100              0.7544830
SP   1   1.00
      0.1171670              1.0000000              1.0000000
D    1   1.00
      1.3000000              1.0000000
D    1   1.00
      0.3250000              1.0000000
F    1   1.00
      0.5500000              1.0000000
****
Cl     0
S    6   1.00
  25180.1000000              0.0018330
   3780.3500000              0.0140340
    860.4740000              0.0690970
    242.1450000              0.2374520
     77.3349000              0.4830340
     26.2470000              0.3398560
SP   6   1.00
    491.7650000             -0.0022974              0.0039894
    116.9840000             -0.0307140              0.0303180
     37.4153000             -0.1125280              0.1298800
     13.7834000              0.0450160              0.3279510
      5.4521500              0.5893530              0.4535270
      2.2258800              0.4652060              0.2521540
SP   3   1.00
      3.1864900             -0.2518300             -0.0142990
      1.1442700              0.0615890              0.3235720
      0.4203770              1.0601800              0.7435070
SP   1   1.00
      0.1426570              1.0000000              1.0000000
D    1   1.00
      1.5000000              1.0000000
D    1   1.00
      0.3750000              1.0000000
F    1   1.00
      0.7000000              1.0000000
****
}

set {
reference uhf
freeze_core true
e_convergence 10
d_convergence 10
dft_spherical_points 1202
dft_radial_points 99
}

e = energy('b3lyp')

print_out('Grab this energy {0}'.format(e))
--------------------------------------------------------------------------

    Molecular point group: c1

    Geometry (in Bohr), charge = 0, multiplicity = 2:

       Center              X                  Y                   Z               Mass
    ------------   -----------------  -----------------  -----------------  -----------------
         C           -0.323340710750    -0.000002040520     0.000262559052    12.000000000000
         C            0.062332587650    -1.402387923320    -2.425645868048    12.000000000000
         C            0.061019178850     2.801759241580    -0.001451413048    12.000000000000
         C            0.059948143950    -1.399367056620     2.427114412652    12.000000000000
         H            2.083366503550    -1.643852421920    -2.848299077948     1.007825032230
         H           -0.764149208150    -0.385541485120    -4.027401618548     1.007825032230
         H           -0.763512797950    -3.293847896620    -2.347912000948     1.007825032230
         H            2.086797404050     3.288100612680     0.000568149952     1.007825032230
         H           -0.764251496250     3.679723091580     1.676265985352     1.007825032230
         H           -0.767041836450     3.680782951180    -1.676734944348     1.007825032230
         H            2.090508911050    -1.644346459320     2.846565411752     1.007825032230
         H           -0.767623802350    -3.290151807620     2.350061417952     1.007825032230
         H           -0.766651859850    -0.390893031320     4.023556448652     1.007825032230

  Charge       = 0
  Multiplicity = 2
  Basis Set: ANONYMOUS0CDC7063
    Blend: 6-31G_2DFP_
  Basis Set: (ANONYMOUS0CDC7063 AUX)
    Blend: DEF2-UNIVERSAL-JKFIT

    Orbital Energies [Eh]
    ---------------------

    Alpha Occupied:

       1A    -10.180342     2A    -10.167046     3A    -10.167021
       4A    -10.166978     5A     -0.797766     6A     -0.686189
       7A     -0.686187     8A     -0.530778     9A     -0.441127
      10A     -0.434693    11A     -0.434649    12A     -0.382622
      13A     -0.382574    14A     -0.363610    15A     -0.338031
      16A     -0.337966    17A     -0.168961

    Alpha Virtual:

      18A      0.076071    19A      0.133987    20A      0.134320
      21A      0.142565    22A      0.142688    23A      0.154880
      24A      0.178694    25A      0.178865    26A      0.203546
      27A      0.214805    28A      0.275910    29A      0.276062
      30A      0.399195    31A      0.399262    32A      0.403343
      33A      0.424013    34A      0.424182    35A      0.456592
      36A      0.495244    37A      0.495533    38A      0.512153
      39A      0.513988    40A      0.578642    41A      0.578990
      42A      0.591481    43A      0.591778    44A      0.602581
      45A      0.624751    46A      0.631768    47A      0.636150
      48A      0.636360    49A      0.663045    50A      0.663790
      51A      0.683681    52A      0.684031    53A      0.734995
      54A      0.825384    55A      0.825422    56A      0.853921
      57A      0.914811    58A      0.915239    59A      0.944124
      60A      0.944612    61A      0.961167    62A      0.961425
      63A      1.003453    64A      1.128059    65A      1.128157
      66A      1.142211    67A      1.163149    68A      1.163396
      69A      1.223324    70A      1.274332    71A      1.274629
      72A      1.279369    73A      1.324311    74A      1.324399
      75A      1.355951    76A      1.366029    77A      1.366079
      78A      1.392462    79A      1.403602    80A      1.404522
      81A      1.416581    82A      1.417639    83A      1.427905
      84A      1.491450    85A      1.499123    86A      1.542375
      87A      1.543297    88A      1.574293    89A      1.574609
      90A      1.669818    91A      1.739249    92A      1.739552
      93A      1.768360    94A      1.830592    95A      1.832198
      96A      1.971715    97A      2.018090    98A      2.018748
      99A      2.019563   100A      2.051708   101A      2.053598
     102A      2.738076   103A      2.738895   104A      2.790917
     105A      2.811432   106A      2.889923   107A      2.889952
     108A      2.894966   109A      2.929487   110A      2.929509
     111A      2.959000   112A      2.964051   113A      2.964705
     114A      3.034017   115A      3.071259   116A      3.071300
     117A      3.084362   118A      3.168562   119A      3.169003
     120A      3.180601   121A      3.284989   122A      3.285639
     123A      3.326956   124A      3.327368   125A      3.375626
     126A      3.489997   127A      3.490319   128A      3.513984
     129A      3.525351   130A      3.568273   131A      3.568506
     132A      3.575160   133A      3.665664   134A      3.667096
     135A      3.679648   136A      3.693985   137A      3.694284
     138A      3.776793   139A      3.776824   140A      3.789126
     141A      3.912123   142A      3.912329   143A      4.034438
     144A      4.110911   145A      4.111810   146A      4.147527
     147A      4.148673   148A      4.173228   149A      4.201859
     150A      4.202842   151A      4.204050   152A      4.210921
     153A      4.315135   154A      4.316832   155A      4.358977
     156A      4.424137   157A      4.424790   158A      4.443419
     159A      4.516154   160A      4.517549   161A      4.578142
     162A      4.578390   163A      4.617557   164A      4.709457
     165A      4.774141   166A      4.775051   167A      4.836902
     168A      4.962869   169A      5.002196   170A      5.003687
     171A      5.228008   172A      5.244740   173A      5.248879
     174A      5.354320   175A      5.356753   176A      5.479380

    Beta Occupied:

       1A    -10.167802     2A    -10.167776     3A    -10.167745
       4A    -10.166519     5A     -0.781091     6A     -0.683995
       7A     -0.683986     8A     -0.511749     9A     -0.431059
      10A     -0.431029    11A     -0.421820    12A     -0.376728
      13A     -0.376638    14A     -0.362594    15A     -0.333147
      16A     -0.333097

    Beta Virtual:

      17A     -0.025743    18A      0.077080    19A      0.134888
      20A      0.135201    21A      0.144462    22A      0.144533
      23A      0.163337    24A      0.182347    25A      0.182555
      26A      0.215027    27A      0.218935    28A      0.282255
      29A      0.282413    30A      0.400366    31A      0.400430
      32A      0.419790    33A      0.426824    34A      0.426993
      35A      0.468499    36A      0.497497    37A      0.497802
      38A      0.513895    39A      0.556326    40A      0.584207
      41A      0.584524    42A      0.597639    43A      0.597982
      44A      0.610001    45A      0.628121    46A      0.631939
      47A      0.639431    48A      0.639641    49A      0.666642
      50A      0.667323    51A      0.686334    52A      0.686647
      53A      0.757518    54A      0.830550    55A      0.830592
      56A      0.855276    57A      0.922796    58A      0.923196
      59A      0.945963    60A      0.953540    61A      0.966444
      62A      0.966759    63A      1.008693    64A      1.132125
      65A      1.132146    66A      1.155587    67A      1.168189
      68A      1.168507    69A      1.232297    70A      1.279917
      71A      1.280237    72A      1.285124    73A      1.329302
      74A      1.329387    75A      1.365359    76A      1.371275
      77A      1.371322    78A      1.393524    79A      1.407025
      80A      1.408031    81A      1.421614    82A      1.422708
      83A      1.428174    84A      1.492518    85A      1.509546
      86A      1.546796    87A      1.547690    88A      1.582180
      89A      1.582467    90A      1.674664    91A      1.745014
      92A      1.745316    93A      1.779133    94A      1.834440
      95A      1.836062    96A      1.972577    97A      2.024975
      98A      2.025924    99A      2.039672   100A      2.058470
     101A      2.060272   102A      2.746421   103A      2.747222
     104A      2.811802   105A      2.816095   106A      2.902576
     107A      2.902696   108A      2.924650   109A      2.931938
     110A      2.932020   111A      2.960062   112A      2.968585
     113A      2.969266   114A      3.041950   115A      3.081066
     116A      3.081293   117A      3.086201   118A      3.184200
     119A      3.184856   120A      3.188291   121A      3.289776
     122A      3.290447   123A      3.330738   124A      3.331197
     125A      3.383443   126A      3.492767   127A      3.493011
     128A      3.512358   129A      3.528388   130A      3.575000
     131A      3.581579   132A      3.581899   133A      3.670363
     134A      3.671898   135A      3.692944   136A      3.725602
     137A      3.725923   138A      3.781286   139A      3.781387
     140A      3.817667   141A      3.921917   142A      3.922167
     143A      4.045325   144A      4.117746   145A      4.118603
     146A      4.154791   147A      4.155833   148A      4.187280
     149A      4.208064   150A      4.209573   151A      4.210966
     152A      4.215396   153A      4.322573   154A      4.324271
     155A      4.362340   156A      4.432353   157A      4.433007
     158A      4.446299   159A      4.523942   160A      4.525341
     161A      4.588731   162A      4.589003   163A      4.624751
     164A      4.719801   165A      4.781094   166A      4.782005
     167A      4.839819   168A      4.967664   169A      5.006254
     170A      5.007707   171A      5.233722   172A      5.246536
     173A      5.250652   174A      5.360790   175A      5.363243
     176A      5.481701

    Final Occupation by Irrep:
              A
    DOCC [    16 ]
    SOCC [     1 ]

  @DF-UKS Final Energy:  -157.81306080013894

   => Energetics <=

    Nuclear Repulsion Energy =            125.3946359473072647
    One-Electron Energy =                -458.7489100617490294
    Two-Electron Energy =                 195.8483589344804159
    DFT Exchange-Correlation Energy =     -20.3071456201776108
    Empirical Dispersion Energy =           0.0000000000000000
    VV10 Nonlocal Energy =                  0.0000000000000000
    Total Energy =                       -157.8130608001389419

  UHF NO Occupations:
  HONO-2 :   15  A 1.9996009
  HONO-1 :   16  A 1.9989805
  HONO-0 :   17  A 1.0000000
  LUNO+0 :   18  A 0.0010195
  LUNO+1 :   19  A 0.0003991
  LUNO+2 :   20  A 0.0001975
  LUNO+3 :   21  A 0.0001975

Computation Completed

Properties will be evaluated at   0.000000,   0.000000,   0.000000 [a0]

Properties computed using the SCF density matrix

  Nuclear Dipole Moment: [e a0]
     X:     0.8272      Y:    -0.0000      Z:    -0.0017

  Electronic Dipole Moment: [e a0]
     X:    -0.7493      Y:     0.0000      Z:     0.0023

  Dipole Moment: [e a0]
     X:     0.0779      Y:     0.0000      Z:     0.0006     Total:     0.0779

  Dipole Moment: [D]
     X:     0.1980      Y:     0.0000      Z:     0.0016     Total:     0.1980

*** tstop() called on n036 at Fri Nov  5 12:44:20 2021
Module time:
	user time   =     594.87 seconds =       9.91 minutes
	system time =      11.36 seconds =       0.19 minutes
	total time  =        153 seconds =       2.55 minutes
Total time:
	user time   =     594.87 seconds =       9.91 minutes
	system time =      11.36 seconds =       0.19 minutes
	total time  =        153 seconds =       2.55 minutes
Grab this energy -157.81306080013894
    Psi4 stopped on: Friday, 05 November 2021 12:44PM
    Psi4 wall time for execution: 0:02:32.50

*** Psi4 exiting successfully. Buy a developer a beer!
