                               Psi4 1.4a2.dev629

  ==> Input File <==

--------------------------------------------------------------------------
import os
memory 14 GB

molecule {
 C   -0.3233319114    0.0049901577   -0.0000019453
 C    0.0614407187   -1.4036090395   -2.4202197938
 C    0.0604196960    2.8096671333   -0.0000487179
 C    0.0614438484   -1.4035287225    2.4202676880
 H    2.0873098713   -1.6541799720   -2.8362952297
 H   -0.7584821301   -0.3948736661   -4.0243796042
 H   -0.7714384281   -3.2920927542   -2.3370119515
 H    2.0860170137    3.2972592875   -0.0046536464
 H   -0.7626917719    3.6879424126    1.6786834065
 H   -0.7707091568    3.6883983312   -1.6746997492
 H    2.0873280757   -1.6461303442    2.8409746895
 H   -0.7634121515   -3.2953244896    2.3346105853
 H   -0.7665015508   -0.3985426478    4.0227742687
units bohr
0 2
}

basis {

assign 6-31g_2dfp_

[ 6-31g_2dfp_ ]

spherical

!----------------------------------------------------------------------
! Basis Set Exchange
! Version v0.8.13
! https://www.basissetexchange.org
!----------------------------------------------------------------------
!   Basis set: 6-31G(2df,p)
! Description: 6-31G(2df,p)
!        Role: orbital
!     Version: 0  (Data from the original Basis Set Exchange)
!----------------------------------------------------------------------

****
H     0
S    3   1.00
     18.7311370              0.03349460
      2.8253937              0.23472695
      0.6401217              0.81375733
S    1   1.00
      0.1612778              1.00000000
P    1   1.00
      1.5000000              1.0000000
P    1   1.00
      0.3750000              1.0000000
****
B     0
S    6   1.00
   2068.8823000              0.0018663
    310.6495700              0.0142515
     70.6830330              0.0695516
     19.8610800              0.2325729
      6.2993048              0.4670787
      2.1270270              0.3634314
SP   3   1.00
      4.7279710             -0.1303938              0.0745976
      1.1903377             -0.1307889              0.3078467
      0.3594117              1.1309444              0.7434568
SP   1   1.00
      0.1267512              1.0000000              1.0000000
D    1   1.00
      0.8020000              1.0000000
D    1   1.00
      0.2005000              1.0000000
F    1   1.00
      0.5000000              1.0000000
****
C     0
S    6   1.00
   3047.5249000              0.0018347
    457.3695100              0.0140373
    103.9486900              0.0688426
     29.2101550              0.2321844
      9.2866630              0.4679413
      3.1639270              0.3623120
SP   3   1.00
      7.8682724             -0.1193324              0.0689991
      1.8812885             -0.1608542              0.3164240
      0.5442493              1.1434564              0.7443083
SP   1   1.00
      0.1687144              1.0000000              1.0000000
D    1   1.00
      1.2520000              1.0000000
D    1   1.00
      0.3130000              1.0000000
F    1   1.00
      0.8000000              1.0000000
****
N     0
S    6   1.00
   4173.5110000              0.0018348
    627.4579000              0.0139950
    142.9021000              0.0685870
     40.2343300              0.2322410
     12.8202100              0.4690700
      4.3904370              0.3604550
SP   3   1.00
     11.6263580             -0.1149610              0.0675800
      2.7162800             -0.1691180              0.3239070
      0.7722180              1.1458520              0.7408950
SP   1   1.00
      0.2120313              1.0000000              1.0000000
D    1   1.00
      1.8260000              1.0000000
D    1   1.00
      0.4565000              1.0000000
F    1   1.00
      1.0000000              1.0000000
****
O     0
S    6   1.00
   5484.6717000              0.0018311
    825.2349500              0.0139501
    188.0469600              0.0684451
     52.9645000              0.2327143
     16.8975700              0.4701930
      5.7996353              0.3585209
SP   3   1.00
     15.5396160             -0.1107775              0.0708743
      3.5999336             -0.1480263              0.3397528
      1.0137618              1.1307670              0.7271586
SP   1   1.00
      0.2700058              1.0000000              1.0000000
D    1   1.00
      2.5840000              1.0000000
D    1   1.00
      0.6460000              1.0000000
F    1   1.00
      1.4000000              1.0000000
****
F     0
S    6   1.00
   7001.7130900              0.0018196169
   1051.3660900              0.0139160796
    239.2856900              0.0684053245
     67.3974453              0.233185760
     21.5199573              0.471267439
      7.40310130             0.356618546
SP   3   1.00
     20.8479528             -0.108506975            0.0716287243
      4.80830834            -0.146451658            0.3459121030
      1.34406986             1.128688580            0.7224699570
SP   1   1.00
      0.358151393            1.0000000              1.0000000
D    1   1.00
      3.5000000              1.0000000
D    1   1.00
      0.8750000              1.0000000
F    1   1.00
      1.8500000              1.0000000
****
Al     0
S    6   1.00
  13983.1000000              0.00194267
   2098.7500000              0.0148599
    477.7050000              0.0728494
    134.3600000              0.2468300
     42.8709000              0.4872580
     14.5189000              0.3234960
SP   6   1.00
    239.6680000             -0.00292619             0.00460285
     57.4419000             -0.0374080              0.0331990
     18.2859000             -0.1144870              0.1362820
      6.5991400              0.1156350              0.3304760
      2.4904900              0.6125950              0.4491460
      0.9445400              0.3937990              0.2657040
SP   3   1.00
      1.2779000             -0.2276060             -0.0175130
      0.3975900              0.00144583             0.2445330
      0.1600950              1.0927900              0.8049340
SP   1   1.00
      0.0556577              1.0000000              1.0000000
D    1   1.00
      0.6500000              1.0000000
D    1   1.00
      0.1625000              1.0000000
F    1   1.00
      0.2500000              1.0000000
****
Si     0
S    6   1.00
  16115.9000000              0.00195948
   2425.5800000              0.01492880
    553.8670000              0.07284780
    156.3400000              0.24613000
     50.0683000              0.48591400
     17.0178000              0.32500200
SP   6   1.00
    292.7180000             -0.00278094             0.00443826
     69.8731000             -0.03571460             0.03266790
     22.3363000             -0.11498500             0.13472100
      8.1503900              0.09356340             0.32867800
      3.1345800              0.60301700             0.44964000
      1.2254300              0.41895900             0.26137200
SP   3   1.00
      1.7273800             -0.24463000            -0.01779510
      0.5729220              0.00431572             0.25353900
      0.2221920              1.09818000             0.80066900
SP   1   1.00
      0.0778369              1.00000000             1.00000000
D    1   1.00
      0.9000000              1.0000000
D    1   1.00
      0.2250000              1.0000000
F    1   1.00
      0.3200000              1.0000000
****
P     0
S    6   1.00
  19413.3000000              0.0018516
   2909.4200000              0.0142062
    661.3640000              0.0699995
    185.7590000              0.2400790
     59.1943000              0.4847620
     20.0310000              0.3352000
SP   6   1.00
    339.4780000             -0.00278217             0.00456462
     81.0101000             -0.0360499              0.03369360
     25.8780000             -0.1166310              0.13975500
      9.4522100              0.0968328              0.33936200
      3.6656600              0.6144180              0.45092100
      1.4674600              0.4037980              0.23858600
SP   3   1.00
      2.1562300             -0.2529230             -0.01776530
      0.7489970              0.0328517              0.27405800
      0.2831450              1.0812500              0.78542100
SP   1   1.00
      0.0998317              1.0000000              1.00000000
D    1   1.00
      1.1000000              1.0000000
D    1   1.00
      0.2750000              1.0000000
F    1   1.00
      0.4500000              1.0000000
****
S     0
S    6   1.00
  21917.1000000              0.0018690
   3301.4900000              0.0142300
    754.1460000              0.0696960
    212.7110000              0.2384870
     67.9896000              0.4833070
     23.0515000              0.3380740
SP   6   1.00
    423.7350000             -0.0023767              0.0040610
    100.7100000             -0.0316930              0.0306810
     32.1599000             -0.1133170              0.1304520
     11.8079000              0.0560900              0.3272050
      4.6311000              0.5922550              0.4528510
      1.8702500              0.4550060              0.2560420
SP   3   1.00
      2.6158400             -0.2503740             -0.0145110
      0.9221670              0.0669570              0.3102630
      0.3412870              1.0545100              0.7544830
SP   1   1.00
      0.1171670              1.0000000              1.0000000
D    1   1.00
      1.3000000              1.0000000
D    1   1.00
      0.3250000              1.0000000
F    1   1.00
      0.5500000              1.0000000
****
Cl     0
S    6   1.00
  25180.1000000              0.0018330
   3780.3500000              0.0140340
    860.4740000              0.0690970
    242.1450000              0.2374520
     77.3349000              0.4830340
     26.2470000              0.3398560
SP   6   1.00
    491.7650000             -0.0022974              0.0039894
    116.9840000             -0.0307140              0.0303180
     37.4153000             -0.1125280              0.1298800
     13.7834000              0.0450160              0.3279510
      5.4521500              0.5893530              0.4535270
      2.2258800              0.4652060              0.2521540
SP   3   1.00
      3.1864900             -0.2518300             -0.0142990
      1.1442700              0.0615890              0.3235720
      0.4203770              1.0601800              0.7435070
SP   1   1.00
      0.1426570              1.0000000              1.0000000
D    1   1.00
      1.5000000              1.0000000
D    1   1.00
      0.3750000              1.0000000
F    1   1.00
      0.7000000              1.0000000
****
}

set {
reference uhf
freeze_core true
e_convergence 10
d_convergence 10
dft_spherical_points 1202
dft_radial_points 99
}

e = energy('b3lyp')

print_out('Grab this energy {0}'.format(e))
--------------------------------------------------------------------------

    Molecular point group: c1

    Geometry (in Bohr), charge = 0, multiplicity = 2:

       Center              X                  Y                   Z               Mass
    ------------   -----------------  -----------------  -----------------  -----------------
         C           -0.323334287506     0.003542271616    -0.000001411971    12.000000000000
         C            0.061438342594    -1.405056925584    -2.420219260471    12.000000000000
         C            0.060417319894     2.808219247216    -0.000048184571    12.000000000000
         C            0.061441472294    -1.404976608584     2.420268221329    12.000000000000
         H            2.087307495194    -1.655627858084    -2.836294696371     1.007825032230
         H           -0.758484506206    -0.396321552184    -4.024379070871     1.007825032230
         H           -0.771440804206    -3.293540640284    -2.337011418171     1.007825032230
         H            2.086014637594     3.295811401416    -0.004653113071     1.007825032230
         H           -0.762694148006     3.686494526516     1.678683939829     1.007825032230
         H           -0.770711532906     3.686950445116    -1.674699215871     1.007825032230
         H            2.087325699594    -1.647578230284     2.840975222829     1.007825032230
         H           -0.763414527606    -3.296772375684     2.334611118629     1.007825032230
         H           -0.766503926906    -0.399990533884     4.022774802029     1.007825032230

  Charge       = 0
  Multiplicity = 2
  Basis Set: ANONYMOUS20B64A22
    Blend: 6-31G_2DFP_
  Basis Set: (ANONYMOUS20B64A22 AUX)
    Blend: DEF2-UNIVERSAL-JKFIT

    Orbital Energies [Eh]
    ---------------------

    Alpha Occupied:

       1A    -10.180341     2A    -10.167329     3A    -10.166874
       4A    -10.166842     5A     -0.797769     6A     -0.686407
       7A     -0.685964     8A     -0.530776     9A     -0.441126
      10A     -0.434936    11A     -0.434406    12A     -0.382745
      13A     -0.382452    14A     -0.363611    15A     -0.338275
      16A     -0.337721    17A     -0.168961

    Alpha Virtual:

      18A      0.076072    19A      0.133915    20A      0.134397
      21A      0.142489    22A      0.142767    23A      0.154880
      24A      0.178554    25A      0.179002    26A      0.203544
      27A      0.214807    28A      0.275818    29A      0.276155
      30A      0.399023    31A      0.399371    32A      0.403411
      33A      0.423967    34A      0.424237    35A      0.456595
      36A      0.494984    37A      0.495786    38A      0.512159
      39A      0.514000    40A      0.578545    41A      0.579064
      42A      0.591613    43A      0.591663    44A      0.602572
      45A      0.624767    46A      0.631770    47A      0.636028
      48A      0.636470    49A      0.663195    50A      0.663631
      51A      0.683608    52A      0.684100    53A      0.734993
      54A      0.824581    55A      0.826222    56A      0.853913
      57A      0.914776    58A      0.915275    59A      0.943933
      60A      0.944625    61A      0.961134    62A      0.961668
      63A      1.003482    64A      1.126944    65A      1.129298
      66A      1.142215    67A      1.162772    68A      1.163761
      69A      1.223332    70A      1.273973    71A      1.275015
      72A      1.279350    73A      1.324264    74A      1.324447
      75A      1.355976    76A      1.365336    77A      1.366709
      78A      1.392457    79A      1.403262    80A      1.404909
      81A      1.416636    82A      1.417608    83A      1.427925
      84A      1.491409    85A      1.499087    86A      1.542455
      87A      1.543210    88A      1.572592    89A      1.576405
      90A      1.669821    91A      1.738326    92A      1.740477
      93A      1.768346    94A      1.830890    95A      1.831913
      96A      1.971722    97A      2.017578    98A      2.018294
      99A      2.020485   100A      2.050127   101A      2.055245
     102A      2.738220   103A      2.738752   104A      2.790914
     105A      2.811440   106A      2.889858   107A      2.890040
     108A      2.894947   109A      2.929312   110A      2.929673
     111A      2.958989   112A      2.963471   113A      2.965309
     114A      3.034010   115A      3.070298   116A      3.072240
     117A      3.084383   118A      3.168002   119A      3.169603
     120A      3.180559   121A      3.284600   122A      3.286013
     123A      3.326211   124A      3.328124   125A      3.375667
     126A      3.489671   127A      3.490585   128A      3.514019
     129A      3.525307   130A      3.567315   131A      3.569303
     132A      3.575405   133A      3.666264   134A      3.666518
     135A      3.679657   136A      3.693662   137A      3.694545
     138A      3.776012   139A      3.777494   140A      3.789298
     141A      3.910802   142A      3.913652   143A      4.034477
     144A      4.110018   145A      4.112752   146A      4.146450
     147A      4.149764   148A      4.173231   149A      4.201388
     150A      4.202699   151A      4.204639   152A      4.210985
     153A      4.315936   154A      4.315966   155A      4.358998
     156A      4.424310   157A      4.424482   158A      4.443540
     159A      4.515984   160A      4.517722   161A      4.577198
     162A      4.579342   163A      4.617536   164A      4.709431
     165A      4.773316   166A      4.775875   167A      4.836942
     168A      4.962860   169A      5.001986   170A      5.003933
     171A      5.228028   172A      5.246656   173A      5.246986
     174A      5.354795   175A      5.356202   176A      5.479329

    Beta Occupied:

       1A    -10.168085     2A    -10.167628     3A    -10.167612
       4A    -10.166518     5A     -0.781094     6A     -0.684213
       7A     -0.683763     8A     -0.511747     9A     -0.431316
      10A     -0.430768    11A     -0.421823    12A     -0.376840
      13A     -0.376527    14A     -0.362594    15A     -0.333401
      16A     -0.332840

    Beta Virtual:

      17A     -0.025743    18A      0.077081    19A      0.134795
      20A      0.135297    21A      0.144366    22A      0.144632
      23A      0.163340    24A      0.182215    25A      0.182683
      26A      0.215035    27A      0.218927    28A      0.282154
      29A      0.282515    30A      0.400271    31A      0.400517
      32A      0.419799    33A      0.426764    34A      0.427064
      35A      0.468506    36A      0.497244    37A      0.498050
      38A      0.513907    39A      0.556329    40A      0.584126
      41A      0.584585    42A      0.597777    43A      0.597855
      44A      0.609992    45A      0.628148    46A      0.631929
      47A      0.639295    48A      0.639773    49A      0.666732
      50A      0.667220    51A      0.686191    52A      0.686788
      53A      0.757516    54A      0.829740    55A      0.831399
      56A      0.855266    57A      0.922733    58A      0.923260
      59A      0.945890    60A      0.953444    61A      0.966366
      62A      0.967043    63A      1.008719    64A      1.130982
      65A      1.133318    66A      1.155588    67A      1.167818
      68A      1.168867    69A      1.232301    70A      1.279568
      71A      1.280616    72A      1.285103    73A      1.329238
      74A      1.329452    75A      1.365387    76A      1.370476
      77A      1.372047    78A      1.393525    79A      1.406763
      80A      1.408347    81A      1.421684    82A      1.422652
      83A      1.428199    84A      1.492474    85A      1.509516
      86A      1.546753    87A      1.547722    88A      1.580619
      89A      1.584125    90A      1.674667    91A      1.744093
      92A      1.746234    93A      1.779125    94A      1.834728
      95A      1.835785    96A      1.972584    97A      2.023936
      98A      2.026949    99A      2.039639   100A      2.056943
     101A      2.061867   102A      2.746511   103A      2.747132
     104A      2.811805   105A      2.816097   106A      2.902579
     107A      2.902696   108A      2.924652   109A      2.931888
     110A      2.932064   111A      2.960055   112A      2.968047
     113A      2.969817   114A      3.041945   115A      3.080099
     116A      3.082098   117A      3.086369   118A      3.183863
     119A      3.185230   120A      3.188240   121A      3.289465
     122A      3.290750   123A      3.330009   124A      3.331937
     125A      3.383483   126A      3.492409   127A      3.493299
     128A      3.512399   129A      3.528356   130A      3.574814
     131A      3.580649   132A      3.583095   133A      3.670985
     134A      3.671284   135A      3.692953   136A      3.725344
     137A      3.726124   138A      3.780516   139A      3.782125
     140A      3.817759   141A      3.920618   142A      3.923470
     143A      4.045365   144A      4.116839   145A      4.119558
     146A      4.153716   147A      4.156918   148A      4.187292
     149A      4.207322   150A      4.210553   151A      4.210653
     152A      4.215501   153A      4.323359   154A      4.323425
     155A      4.362360   156A      4.432551   157A      4.432625
     158A      4.446471   159A      4.523872   160A      4.525407
     161A      4.587720   162A      4.590024   163A      4.624728
     164A      4.719776   165A      4.780234   166A      4.782862
     167A      4.839861   168A      4.967653   169A      5.006027
     170A      5.007971   171A      5.233741   172A      5.248435
     173A      5.248777   174A      5.361258   175A      5.362700
     176A      5.481650

    Final Occupation by Irrep:
              A
    DOCC [    16 ]
    SOCC [     1 ]

  @DF-UKS Final Energy:  -157.81306514341247

   => Energetics <=

    Nuclear Repulsion Energy =            125.3948320533545626
    One-Electron Energy =                -458.7493208543555170
    Two-Electron Energy =                 195.8485685700222803
    DFT Exchange-Correlation Energy =     -20.3071449124337917
    Empirical Dispersion Energy =           0.0000000000000000
    VV10 Nonlocal Energy =                  0.0000000000000000
    Total Energy =                       -157.8130651434124729

  UHF NO Occupations:
  HONO-2 :   15  A 1.9996009
  HONO-1 :   16  A 1.9989804
  HONO-0 :   17  A 1.0000000
  LUNO+0 :   18  A 0.0010196
  LUNO+1 :   19  A 0.0003991
  LUNO+2 :   20  A 0.0001979
  LUNO+3 :   21  A 0.0001972

Computation Completed

Properties will be evaluated at   0.000000,   0.000000,   0.000000 [a0]

Properties computed using the SCF density matrix

  Nuclear Dipole Moment: [e a0]
     X:     0.8272      Y:    -0.0102      Z:     0.0000

  Electronic Dipole Moment: [e a0]
     X:    -0.7493      Y:     0.0110      Z:    -0.0000

  Dipole Moment: [e a0]
     X:     0.0779      Y:     0.0008      Z:     0.0000     Total:     0.0779

  Dipole Moment: [D]
     X:     0.1980      Y:     0.0019      Z:     0.0000     Total:     0.1980

*** tstop() called on n082 at Fri Nov  5 15:44:37 2021
Module time:
	user time   =     492.13 seconds =       8.20 minutes
	system time =       4.48 seconds =       0.07 minutes
	total time  =        125 seconds =       2.08 minutes
Total time:
	user time   =     492.13 seconds =       8.20 minutes
	system time =       4.48 seconds =       0.07 minutes
	total time  =        125 seconds =       2.08 minutes
Grab this energy -157.81306514341247
    Psi4 stopped on: Friday, 05 November 2021 03:44PM
    Psi4 wall time for execution: 0:02:04.89

*** Psi4 exiting successfully. Buy a developer a beer!
