                               Psi4 1.4a2.dev629

  ==> Input File <==

--------------------------------------------------------------------------
import os
memory 14 GB

molecule {
 C   -0.3233396941    0.0019968302    0.0004344019
 C    0.0609487688   -1.4008708154   -2.4269776143
 C    0.0608675695    2.8009141873    0.0013885944
 C    0.0614856272   -1.3995740699    2.4275166174
 H    2.0876126944   -1.6436851788   -2.8503172320
 H   -0.7687540794   -0.3908162284   -4.0301498174
 H   -0.7633320545   -3.2885478900   -2.3448595259
 H    2.0870218962    3.2835154151    0.0034952455
 H   -0.7619359031    3.6795652087    1.6733433427
 H   -0.7683444401    3.6813823481   -1.6781239961
 H    2.0860310721   -1.6406686444    2.8520841661
 H   -0.7659293740   -3.2923110987    2.3434195944
 H   -0.7649399597   -0.3909243773    4.0287462234
units bohr
0 2
}

basis {

assign 6-31g_2dfp_

[ 6-31g_2dfp_ ]

spherical

!----------------------------------------------------------------------
! Basis Set Exchange
! Version v0.8.13
! https://www.basissetexchange.org
!----------------------------------------------------------------------
!   Basis set: 6-31G(2df,p)
! Description: 6-31G(2df,p)
!        Role: orbital
!     Version: 0  (Data from the original Basis Set Exchange)
!----------------------------------------------------------------------

****
H     0
S    3   1.00
     18.7311370              0.03349460
      2.8253937              0.23472695
      0.6401217              0.81375733
S    1   1.00
      0.1612778              1.00000000
P    1   1.00
      1.5000000              1.0000000
P    1   1.00
      0.3750000              1.0000000
****
B     0
S    6   1.00
   2068.8823000              0.0018663
    310.6495700              0.0142515
     70.6830330              0.0695516
     19.8610800              0.2325729
      6.2993048              0.4670787
      2.1270270              0.3634314
SP   3   1.00
      4.7279710             -0.1303938              0.0745976
      1.1903377             -0.1307889              0.3078467
      0.3594117              1.1309444              0.7434568
SP   1   1.00
      0.1267512              1.0000000              1.0000000
D    1   1.00
      0.8020000              1.0000000
D    1   1.00
      0.2005000              1.0000000
F    1   1.00
      0.5000000              1.0000000
****
C     0
S    6   1.00
   3047.5249000              0.0018347
    457.3695100              0.0140373
    103.9486900              0.0688426
     29.2101550              0.2321844
      9.2866630              0.4679413
      3.1639270              0.3623120
SP   3   1.00
      7.8682724             -0.1193324              0.0689991
      1.8812885             -0.1608542              0.3164240
      0.5442493              1.1434564              0.7443083
SP   1   1.00
      0.1687144              1.0000000              1.0000000
D    1   1.00
      1.2520000              1.0000000
D    1   1.00
      0.3130000              1.0000000
F    1   1.00
      0.8000000              1.0000000
****
N     0
S    6   1.00
   4173.5110000              0.0018348
    627.4579000              0.0139950
    142.9021000              0.0685870
     40.2343300              0.2322410
     12.8202100              0.4690700
      4.3904370              0.3604550
SP   3   1.00
     11.6263580             -0.1149610              0.0675800
      2.7162800             -0.1691180              0.3239070
      0.7722180              1.1458520              0.7408950
SP   1   1.00
      0.2120313              1.0000000              1.0000000
D    1   1.00
      1.8260000              1.0000000
D    1   1.00
      0.4565000              1.0000000
F    1   1.00
      1.0000000              1.0000000
****
O     0
S    6   1.00
   5484.6717000              0.0018311
    825.2349500              0.0139501
    188.0469600              0.0684451
     52.9645000              0.2327143
     16.8975700              0.4701930
      5.7996353              0.3585209
SP   3   1.00
     15.5396160             -0.1107775              0.0708743
      3.5999336             -0.1480263              0.3397528
      1.0137618              1.1307670              0.7271586
SP   1   1.00
      0.2700058              1.0000000              1.0000000
D    1   1.00
      2.5840000              1.0000000
D    1   1.00
      0.6460000              1.0000000
F    1   1.00
      1.4000000              1.0000000
****
F     0
S    6   1.00
   7001.7130900              0.0018196169
   1051.3660900              0.0139160796
    239.2856900              0.0684053245
     67.3974453              0.233185760
     21.5199573              0.471267439
      7.40310130             0.356618546
SP   3   1.00
     20.8479528             -0.108506975            0.0716287243
      4.80830834            -0.146451658            0.3459121030
      1.34406986             1.128688580            0.7224699570
SP   1   1.00
      0.358151393            1.0000000              1.0000000
D    1   1.00
      3.5000000              1.0000000
D    1   1.00
      0.8750000              1.0000000
F    1   1.00
      1.8500000              1.0000000
****
Al     0
S    6   1.00
  13983.1000000              0.00194267
   2098.7500000              0.0148599
    477.7050000              0.0728494
    134.3600000              0.2468300
     42.8709000              0.4872580
     14.5189000              0.3234960
SP   6   1.00
    239.6680000             -0.00292619             0.00460285
     57.4419000             -0.0374080              0.0331990
     18.2859000             -0.1144870              0.1362820
      6.5991400              0.1156350              0.3304760
      2.4904900              0.6125950              0.4491460
      0.9445400              0.3937990              0.2657040
SP   3   1.00
      1.2779000             -0.2276060             -0.0175130
      0.3975900              0.00144583             0.2445330
      0.1600950              1.0927900              0.8049340
SP   1   1.00
      0.0556577              1.0000000              1.0000000
D    1   1.00
      0.6500000              1.0000000
D    1   1.00
      0.1625000              1.0000000
F    1   1.00
      0.2500000              1.0000000
****
Si     0
S    6   1.00
  16115.9000000              0.00195948
   2425.5800000              0.01492880
    553.8670000              0.07284780
    156.3400000              0.24613000
     50.0683000              0.48591400
     17.0178000              0.32500200
SP   6   1.00
    292.7180000             -0.00278094             0.00443826
     69.8731000             -0.03571460             0.03266790
     22.3363000             -0.11498500             0.13472100
      8.1503900              0.09356340             0.32867800
      3.1345800              0.60301700             0.44964000
      1.2254300              0.41895900             0.26137200
SP   3   1.00
      1.7273800             -0.24463000            -0.01779510
      0.5729220              0.00431572             0.25353900
      0.2221920              1.09818000             0.80066900
SP   1   1.00
      0.0778369              1.00000000             1.00000000
D    1   1.00
      0.9000000              1.0000000
D    1   1.00
      0.2250000              1.0000000
F    1   1.00
      0.3200000              1.0000000
****
P     0
S    6   1.00
  19413.3000000              0.0018516
   2909.4200000              0.0142062
    661.3640000              0.0699995
    185.7590000              0.2400790
     59.1943000              0.4847620
     20.0310000              0.3352000
SP   6   1.00
    339.4780000             -0.00278217             0.00456462
     81.0101000             -0.0360499              0.03369360
     25.8780000             -0.1166310              0.13975500
      9.4522100              0.0968328              0.33936200
      3.6656600              0.6144180              0.45092100
      1.4674600              0.4037980              0.23858600
SP   3   1.00
      2.1562300             -0.2529230             -0.01776530
      0.7489970              0.0328517              0.27405800
      0.2831450              1.0812500              0.78542100
SP   1   1.00
      0.0998317              1.0000000              1.00000000
D    1   1.00
      1.1000000              1.0000000
D    1   1.00
      0.2750000              1.0000000
F    1   1.00
      0.4500000              1.0000000
****
S     0
S    6   1.00
  21917.1000000              0.0018690
   3301.4900000              0.0142300
    754.1460000              0.0696960
    212.7110000              0.2384870
     67.9896000              0.4833070
     23.0515000              0.3380740
SP   6   1.00
    423.7350000             -0.0023767              0.0040610
    100.7100000             -0.0316930              0.0306810
     32.1599000             -0.1133170              0.1304520
     11.8079000              0.0560900              0.3272050
      4.6311000              0.5922550              0.4528510
      1.8702500              0.4550060              0.2560420
SP   3   1.00
      2.6158400             -0.2503740             -0.0145110
      0.9221670              0.0669570              0.3102630
      0.3412870              1.0545100              0.7544830
SP   1   1.00
      0.1171670              1.0000000              1.0000000
D    1   1.00
      1.3000000              1.0000000
D    1   1.00
      0.3250000              1.0000000
F    1   1.00
      0.5500000              1.0000000
****
Cl     0
S    6   1.00
  25180.1000000              0.0018330
   3780.3500000              0.0140340
    860.4740000              0.0690970
    242.1450000              0.2374520
     77.3349000              0.4830340
     26.2470000              0.3398560
SP   6   1.00
    491.7650000             -0.0022974              0.0039894
    116.9840000             -0.0307140              0.0303180
     37.4153000             -0.1125280              0.1298800
     13.7834000              0.0450160              0.3279510
      5.4521500              0.5893530              0.4535270
      2.2258800              0.4652060              0.2521540
SP   3   1.00
      3.1864900             -0.2518300             -0.0142990
      1.1442700              0.0615890              0.3235720
      0.4203770              1.0601800              0.7435070
SP   1   1.00
      0.1426570              1.0000000              1.0000000
D    1   1.00
      1.5000000              1.0000000
D    1   1.00
      0.3750000              1.0000000
F    1   1.00
      0.7000000              1.0000000
****
}

set {
reference uhf
freeze_core true
e_convergence 10
d_convergence 10
dft_spherical_points 1202
dft_radial_points 99
}

e = energy('b3lyp')

print_out('Grab this energy {0}'.format(e))
--------------------------------------------------------------------------

    Molecular point group: c1

    Geometry (in Bohr), charge = 0, multiplicity = 2:

       Center              X                  Y                   Z               Mass
    ------------   -----------------  -----------------  -----------------  -----------------
         C           -0.323340128669     0.001522264736    -0.000020536199    12.000000000000
         C            0.060948334231    -1.401345380864    -2.427432552399    12.000000000000
         C            0.060867134931     2.800439621836     0.000933656301    12.000000000000
         C            0.061485192631    -1.400048635364     2.427061679301    12.000000000000
         H            2.087612259831    -1.644159744264    -2.850772170099     1.007825032230
         H           -0.768754513969    -0.391290793864    -4.030604755499     1.007825032230
         H           -0.763332489069    -3.289022455464    -2.345314463999     1.007825032230
         H            2.087021461631     3.283040849636     0.003040307401     1.007825032230
         H           -0.761936337669     3.679090643236     1.672888404601     1.007825032230
         H           -0.768344874669     3.680907782636    -1.678578934199     1.007825032230
         H            2.086030637531    -1.641143209864     2.851629228001     1.007825032230
         H           -0.765929808569    -3.292785664164     2.342964656301     1.007825032230
         H           -0.764940394269    -0.391398942764     4.028291285301     1.007825032230

  Charge       = 0
  Multiplicity = 2
  Basis Set: ANONYMOUSA489CAFF
    Blend: 6-31G_2DFP_
  Basis Set: (ANONYMOUSA489CAFF AUX)
    Blend: DEF2-UNIVERSAL-JKFIT

    Orbital Energies [Eh]
    ---------------------

    Alpha Occupied:

       1A    -10.180342     2A    -10.167122     3A    -10.167091
       4A    -10.166831     5A     -0.797767     6A     -0.686324
       7A     -0.686051     8A     -0.530778     9A     -0.441131
      10A     -0.434865    11A     -0.434471    12A     -0.382641
      13A     -0.382557    14A     -0.363612    15A     -0.338174
      16A     -0.337821    17A     -0.168961

    Alpha Virtual:

      18A      0.076070    19A      0.134036    20A      0.134270
      21A      0.142410    22A      0.142840    23A      0.154883
      24A      0.178674    25A      0.178882    26A      0.203548
      27A      0.214805    28A      0.275694    29A      0.276277
      30A      0.398979    31A      0.399467    32A      0.403354
      33A      0.423927    34A      0.424269    35A      0.456593
      36A      0.495312    37A      0.495468    38A      0.512160
      39A      0.513979    40A      0.578526    41A      0.579106
      42A      0.591302    43A      0.591958    44A      0.602576
      45A      0.624713    46A      0.631770    47A      0.635976
      48A      0.636578    49A      0.663199    50A      0.663624
      51A      0.683656    52A      0.684066    53A      0.734994
      54A      0.825075    55A      0.825736    56A      0.853915
      57A      0.914769    58A      0.915269    59A      0.944122
      60A      0.944607    61A      0.960608    62A      0.961987
      63A      1.003465    64A      1.127748    65A      1.128461
      66A      1.142222    67A      1.163150    68A      1.163405
      69A      1.223324    70A      1.274202    71A      1.274772
      72A      1.279352    73A      1.324146    74A      1.324558
      75A      1.355992    76A      1.365707    77A      1.366396
      78A      1.392448    79A      1.403739    80A      1.404363
      81A      1.416304    82A      1.417923    83A      1.427902
      84A      1.491498    85A      1.499070    86A      1.542562
      87A      1.543111    88A      1.574242    89A      1.574653
      90A      1.669837    91A      1.738615    92A      1.740218
      93A      1.768318    94A      1.830477    95A      1.832305
      96A      1.971755    97A      2.017717    98A      2.018500
      99A      2.020168   100A      2.051692   101A      2.053607
     102A      2.738146   103A      2.738818   104A      2.790929
     105A      2.811416   106A      2.889665   107A      2.890204
     108A      2.894991   109A      2.929468   110A      2.929531
     111A      2.958959   112A      2.964241   113A      2.964550
     114A      3.034010   115A      3.070675   116A      3.071832
     117A      3.084434   118A      3.168320   119A      3.169248
     120A      3.180588   121A      3.285146   122A      3.285475
     123A      3.326652   124A      3.327667   125A      3.375629
     126A      3.489821   127A      3.490482   128A      3.514027
     129A      3.525306   130A      3.567780   131A      3.568931
     132A      3.575214   133A      3.665857   134A      3.666903
     135A      3.679619   136A      3.693675   137A      3.694642
     138A      3.775548   139A      3.778040   140A      3.789164
     141A      3.911600   142A      3.912862   143A      4.034439
     144A      4.109969   145A      4.112681   146A      4.147136
     147A      4.149000   148A      4.173375   149A      4.202238
     150A      4.202684   151A      4.203788   152A      4.210998
     153A      4.314923   154A      4.316967   155A      4.359027
     156A      4.423865   157A      4.425054   158A      4.443468
     159A      4.515704   160A      4.517957   161A      4.577923
     162A      4.578589   163A      4.617541   164A      4.709432
     165A      4.773154   166A      4.776060   167A      4.836959
     168A      4.962860   169A      5.002438   170A      5.003487
     171A      5.227592   172A      5.246317   173A      5.247705
     174A      5.354074   175A      5.356959   176A      5.479421

    Beta Occupied:

       1A    -10.167876     2A    -10.167855     3A    -10.167593
       4A    -10.166519     5A     -0.781092     6A     -0.684121
       7A     -0.683860     8A     -0.511749     9A     -0.431245
      10A     -0.430844    11A     -0.421817    12A     -0.376720
      13A     -0.376649    14A     -0.362596    15A     -0.333291
      16A     -0.332949

    Beta Virtual:

      17A     -0.025743    18A      0.077079    19A      0.134904
      20A      0.135184    21A      0.144254    22A      0.144738
      23A      0.163341    24A      0.182352    25A      0.182547
      26A      0.215035    27A      0.218930    28A      0.282052
      29A      0.282616    30A      0.400145    31A      0.400650
      32A      0.419789    33A      0.426740    34A      0.427081
      35A      0.468500    36A      0.497571    37A      0.497730
      38A      0.513895    39A      0.556324    40A      0.584075
      41A      0.584657    42A      0.597482    43A      0.598137
      44A      0.609998    45A      0.628093    46A      0.631928
      47A      0.639282    48A      0.639841    49A      0.666777
      50A      0.667174    51A      0.686309    52A      0.686683
      53A      0.757517    54A      0.830238    55A      0.830911
      56A      0.855268    57A      0.922774    58A      0.923205
      59A      0.945959    60A      0.953528    61A      0.965970
      62A      0.967244    63A      1.008706    64A      1.131729
      65A      1.132538    66A      1.155600    67A      1.168285
      68A      1.168413    69A      1.232296    70A      1.279784
      71A      1.280382    72A      1.285107    73A      1.329136
      74A      1.329545    75A      1.365408    76A      1.371019
      77A      1.371569    78A      1.393509    79A      1.407173
      80A      1.407856    81A      1.421402    82A      1.422925
      83A      1.428171    84A      1.492548    85A      1.509514
      86A      1.546965    87A      1.547525    88A      1.582112
      89A      1.582523    90A      1.674684    91A      1.744364
      92A      1.745996    93A      1.779094    94A      1.834329
      95A      1.836163    96A      1.972616    97A      2.024884
      98A      2.025959    99A      2.039707   100A      2.058387
     101A      2.060355   102A      2.746491   103A      2.747147
     104A      2.811829   105A      2.816062   106A      2.902373
     107A      2.902908   108A      2.924662   109A      2.931960
     110A      2.931999   111A      2.960036   112A      2.968785
     113A      2.969082   114A      3.041944   115A      3.080508
     116A      3.081696   117A      3.086373   118A      3.184074
     119A      3.184989   120A      3.188274   121A      3.289928
     122A      3.290292   123A      3.330439   124A      3.331487
     125A      3.383447   126A      3.492570   127A      3.493191
     128A      3.512394   129A      3.528359   130A      3.574885
     131A      3.581180   132A      3.582389   133A      3.670778
     134A      3.671512   135A      3.692924   136A      3.725646
     137A      3.725891   138A      3.780116   139A      3.782531
     140A      3.817703   141A      3.921362   142A      3.922732
     143A      4.045327   144A      4.116789   145A      4.119500
     146A      4.154256   147A      4.156317   148A      4.187404
     149A      4.208226   150A      4.209680   151A      4.210628
     152A      4.215493   153A      4.322365   154A      4.324403
     155A      4.362395   156A      4.432120   157A      4.433223
     158A      4.446358   159A      4.523490   160A      4.525748
     161A      4.588525   162A      4.589186   163A      4.624737
     164A      4.719776   165A      4.780156   166A      4.782965
     167A      4.839879   168A      4.967654   169A      5.006472
     170A      5.007531   171A      5.233208   172A      5.248096
     173A      5.249598   174A      5.360551   175A      5.363437
     176A      5.481743

    Final Occupation by Irrep:
              A
    DOCC [    16 ]
    SOCC [     1 ]

  @DF-UKS Final Energy:  -157.81305639793433

   => Energetics <=

    Nuclear Repulsion Energy =            125.3946642261801543
    One-Electron Energy =                -458.7489537659828898
    Two-Electron Energy =                 195.8483800249273088
    DFT Exchange-Correlation Energy =     -20.3071468830589161
    Empirical Dispersion Energy =           0.0000000000000000
    VV10 Nonlocal Energy =                  0.0000000000000000
    Total Energy =                       -157.8130563979343322

  UHF NO Occupations:
  HONO-2 :   15  A 1.9996009
  HONO-1 :   16  A 1.9989804
  HONO-0 :   17  A 1.0000000
  LUNO+0 :   18  A 0.0010196
  LUNO+1 :   19  A 0.0003991
  LUNO+2 :   20  A 0.0001979
  LUNO+3 :   21  A 0.0001972

Computation Completed

Properties will be evaluated at   0.000000,   0.000000,   0.000000 [a0]

Properties computed using the SCF density matrix

  Nuclear Dipole Moment: [e a0]
     X:     0.8272      Y:    -0.0034      Z:    -0.0032

  Electronic Dipole Moment: [e a0]
     X:    -0.7493      Y:     0.0034      Z:     0.0049

  Dipole Moment: [e a0]
     X:     0.0779      Y:     0.0000      Z:     0.0017     Total:     0.0779

  Dipole Moment: [D]
     X:     0.1980      Y:     0.0001      Z:     0.0044     Total:     0.1981

*** tstop() called on n065 at Fri Nov  5 14:35:36 2021
Module time:
	user time   =     541.25 seconds =       9.02 minutes
	system time =      11.93 seconds =       0.20 minutes
	total time  =        139 seconds =       2.32 minutes
Total time:
	user time   =     541.25 seconds =       9.02 minutes
	system time =      11.93 seconds =       0.20 minutes
	total time  =        139 seconds =       2.32 minutes
Grab this energy -157.81305639793433
    Psi4 stopped on: Friday, 05 November 2021 02:35PM
    Psi4 wall time for execution: 0:02:19.13

*** Psi4 exiting successfully. Buy a developer a beer!
