                               Psi4 1.4a2.dev629

  ==> Input File <==

--------------------------------------------------------------------------
import os
memory 14 GB

molecule {
 C   -0.3215925148   -0.0000020046    0.0000000000
 C    0.0601457638   -1.3982020772   -2.4217466218
 C    0.0600261885    2.7964083468    0.0000000000
 C    0.0601457638   -1.3982020772    2.4217466218
 H    2.0866958401   -1.6407784405   -2.8416918782
 H   -0.7650790281   -0.3855053808   -4.0201202761
 H   -0.7652422255   -3.2887145721   -2.3439551110
 H    2.0865571985    3.2814644060   -0.0000000000
 H   -0.7653197247    3.6742529396    1.6761715493
 H   -0.7653197247    3.6742529396   -1.6761715493
 H    2.0866958401   -1.6407784405    2.8416918782
 H   -0.7652422255   -3.2887145721    2.3439551110
 H   -0.7650790281   -0.3855053808    4.0201202761
units bohr
0 2
}

basis {

assign 6-31g_2dfp_

[ 6-31g_2dfp_ ]

spherical

!----------------------------------------------------------------------
! Basis Set Exchange
! Version v0.8.13
! https://www.basissetexchange.org
!----------------------------------------------------------------------
!   Basis set: 6-31G(2df,p)
! Description: 6-31G(2df,p)
!        Role: orbital
!     Version: 0  (Data from the original Basis Set Exchange)
!----------------------------------------------------------------------

****
H     0
S    3   1.00
     18.7311370              0.03349460
      2.8253937              0.23472695
      0.6401217              0.81375733
S    1   1.00
      0.1612778              1.00000000
P    1   1.00
      1.5000000              1.0000000
P    1   1.00
      0.3750000              1.0000000
****
B     0
S    6   1.00
   2068.8823000              0.0018663
    310.6495700              0.0142515
     70.6830330              0.0695516
     19.8610800              0.2325729
      6.2993048              0.4670787
      2.1270270              0.3634314
SP   3   1.00
      4.7279710             -0.1303938              0.0745976
      1.1903377             -0.1307889              0.3078467
      0.3594117              1.1309444              0.7434568
SP   1   1.00
      0.1267512              1.0000000              1.0000000
D    1   1.00
      0.8020000              1.0000000
D    1   1.00
      0.2005000              1.0000000
F    1   1.00
      0.5000000              1.0000000
****
C     0
S    6   1.00
   3047.5249000              0.0018347
    457.3695100              0.0140373
    103.9486900              0.0688426
     29.2101550              0.2321844
      9.2866630              0.4679413
      3.1639270              0.3623120
SP   3   1.00
      7.8682724             -0.1193324              0.0689991
      1.8812885             -0.1608542              0.3164240
      0.5442493              1.1434564              0.7443083
SP   1   1.00
      0.1687144              1.0000000              1.0000000
D    1   1.00
      1.2520000              1.0000000
D    1   1.00
      0.3130000              1.0000000
F    1   1.00
      0.8000000              1.0000000
****
N     0
S    6   1.00
   4173.5110000              0.0018348
    627.4579000              0.0139950
    142.9021000              0.0685870
     40.2343300              0.2322410
     12.8202100              0.4690700
      4.3904370              0.3604550
SP   3   1.00
     11.6263580             -0.1149610              0.0675800
      2.7162800             -0.1691180              0.3239070
      0.7722180              1.1458520              0.7408950
SP   1   1.00
      0.2120313              1.0000000              1.0000000
D    1   1.00
      1.8260000              1.0000000
D    1   1.00
      0.4565000              1.0000000
F    1   1.00
      1.0000000              1.0000000
****
O     0
S    6   1.00
   5484.6717000              0.0018311
    825.2349500              0.0139501
    188.0469600              0.0684451
     52.9645000              0.2327143
     16.8975700              0.4701930
      5.7996353              0.3585209
SP   3   1.00
     15.5396160             -0.1107775              0.0708743
      3.5999336             -0.1480263              0.3397528
      1.0137618              1.1307670              0.7271586
SP   1   1.00
      0.2700058              1.0000000              1.0000000
D    1   1.00
      2.5840000              1.0000000
D    1   1.00
      0.6460000              1.0000000
F    1   1.00
      1.4000000              1.0000000
****
F     0
S    6   1.00
   7001.7130900              0.0018196169
   1051.3660900              0.0139160796
    239.2856900              0.0684053245
     67.3974453              0.233185760
     21.5199573              0.471267439
      7.40310130             0.356618546
SP   3   1.00
     20.8479528             -0.108506975            0.0716287243
      4.80830834            -0.146451658            0.3459121030
      1.34406986             1.128688580            0.7224699570
SP   1   1.00
      0.358151393            1.0000000              1.0000000
D    1   1.00
      3.5000000              1.0000000
D    1   1.00
      0.8750000              1.0000000
F    1   1.00
      1.8500000              1.0000000
****
Al     0
S    6   1.00
  13983.1000000              0.00194267
   2098.7500000              0.0148599
    477.7050000              0.0728494
    134.3600000              0.2468300
     42.8709000              0.4872580
     14.5189000              0.3234960
SP   6   1.00
    239.6680000             -0.00292619             0.00460285
     57.4419000             -0.0374080              0.0331990
     18.2859000             -0.1144870              0.1362820
      6.5991400              0.1156350              0.3304760
      2.4904900              0.6125950              0.4491460
      0.9445400              0.3937990              0.2657040
SP   3   1.00
      1.2779000             -0.2276060             -0.0175130
      0.3975900              0.00144583             0.2445330
      0.1600950              1.0927900              0.8049340
SP   1   1.00
      0.0556577              1.0000000              1.0000000
D    1   1.00
      0.6500000              1.0000000
D    1   1.00
      0.1625000              1.0000000
F    1   1.00
      0.2500000              1.0000000
****
Si     0
S    6   1.00
  16115.9000000              0.00195948
   2425.5800000              0.01492880
    553.8670000              0.07284780
    156.3400000              0.24613000
     50.0683000              0.48591400
     17.0178000              0.32500200
SP   6   1.00
    292.7180000             -0.00278094             0.00443826
     69.8731000             -0.03571460             0.03266790
     22.3363000             -0.11498500             0.13472100
      8.1503900              0.09356340             0.32867800
      3.1345800              0.60301700             0.44964000
      1.2254300              0.41895900             0.26137200
SP   3   1.00
      1.7273800             -0.24463000            -0.01779510
      0.5729220              0.00431572             0.25353900
      0.2221920              1.09818000             0.80066900
SP   1   1.00
      0.0778369              1.00000000             1.00000000
D    1   1.00
      0.9000000              1.0000000
D    1   1.00
      0.2250000              1.0000000
F    1   1.00
      0.3200000              1.0000000
****
P     0
S    6   1.00
  19413.3000000              0.0018516
   2909.4200000              0.0142062
    661.3640000              0.0699995
    185.7590000              0.2400790
     59.1943000              0.4847620
     20.0310000              0.3352000
SP   6   1.00
    339.4780000             -0.00278217             0.00456462
     81.0101000             -0.0360499              0.03369360
     25.8780000             -0.1166310              0.13975500
      9.4522100              0.0968328              0.33936200
      3.6656600              0.6144180              0.45092100
      1.4674600              0.4037980              0.23858600
SP   3   1.00
      2.1562300             -0.2529230             -0.01776530
      0.7489970              0.0328517              0.27405800
      0.2831450              1.0812500              0.78542100
SP   1   1.00
      0.0998317              1.0000000              1.00000000
D    1   1.00
      1.1000000              1.0000000
D    1   1.00
      0.2750000              1.0000000
F    1   1.00
      0.4500000              1.0000000
****
S     0
S    6   1.00
  21917.1000000              0.0018690
   3301.4900000              0.0142300
    754.1460000              0.0696960
    212.7110000              0.2384870
     67.9896000              0.4833070
     23.0515000              0.3380740
SP   6   1.00
    423.7350000             -0.0023767              0.0040610
    100.7100000             -0.0316930              0.0306810
     32.1599000             -0.1133170              0.1304520
     11.8079000              0.0560900              0.3272050
      4.6311000              0.5922550              0.4528510
      1.8702500              0.4550060              0.2560420
SP   3   1.00
      2.6158400             -0.2503740             -0.0145110
      0.9221670              0.0669570              0.3102630
      0.3412870              1.0545100              0.7544830
SP   1   1.00
      0.1171670              1.0000000              1.0000000
D    1   1.00
      1.3000000              1.0000000
D    1   1.00
      0.3250000              1.0000000
F    1   1.00
      0.5500000              1.0000000
****
Cl     0
S    6   1.00
  25180.1000000              0.0018330
   3780.3500000              0.0140340
    860.4740000              0.0690970
    242.1450000              0.2374520
     77.3349000              0.4830340
     26.2470000              0.3398560
SP   6   1.00
    491.7650000             -0.0022974              0.0039894
    116.9840000             -0.0307140              0.0303180
     37.4153000             -0.1125280              0.1298800
     13.7834000              0.0450160              0.3279510
      5.4521500              0.5893530              0.4535270
      2.2258800              0.4652060              0.2521540
SP   3   1.00
      3.1864900             -0.2518300             -0.0142990
      1.1442700              0.0615890              0.3235720
      0.4203770              1.0601800              0.7435070
SP   1   1.00
      0.1426570              1.0000000              1.0000000
D    1   1.00
      1.5000000              1.0000000
D    1   1.00
      0.3750000              1.0000000
F    1   1.00
      0.7000000              1.0000000
****
}

set {
reference uhf
freeze_core true
e_convergence 10
d_convergence 10
dft_spherical_points 1202
dft_radial_points 99
}

e = energy('b3lyp')

print_out('Grab this energy {0}'.format(e))
--------------------------------------------------------------------------

    Molecular point group: cs

    Geometry (in Bohr), charge = 0, multiplicity = 2:

       Center              X                  Y                   Z               Mass
    ------------   -----------------  -----------------  -----------------  -----------------
         C           -0.321354680759    -0.000001996621     0.000000000000    12.000000000000
         C            0.060383597841    -1.398202069221    -2.421746621800    12.000000000000
         C            0.060264022541     2.796408354779     0.000000000000    12.000000000000
         C            0.060383597841    -1.398202069221     2.421746621800    12.000000000000
         H            2.086933674141    -1.640778432521    -2.841691878200     1.007825032230
         H           -0.764841194059    -0.385505372821    -4.020120276100     1.007825032230
         H           -0.765004391459    -3.288714564121    -2.343955111000     1.007825032230
         H            2.086795032541     3.281464413979     0.000000000000     1.007825032230
         H           -0.765081890659     3.674252947579     1.676171549300     1.007825032230
         H           -0.765081890659     3.674252947579    -1.676171549300     1.007825032230
         H            2.086933674141    -1.640778432521     2.841691878200     1.007825032230
         H           -0.765004391459    -3.288714564121     2.343955111000     1.007825032230
         H           -0.764841194059    -0.385505372821     4.020120276100     1.007825032230

  Charge       = 0
  Multiplicity = 2
  Basis Set: ANONYMOUS1A25B3B4
    Blend: 6-31G_2DFP_
  Basis Set: (ANONYMOUS1A25B3B4 AUX)
    Blend: DEF2-UNIVERSAL-JKFIT

    Orbital Energies [Eh]
    ---------------------

    Alpha Occupied:

       1Ap   -10.179503     2Ap   -10.166677     1App  -10.166677
       3Ap   -10.166631     4Ap    -0.798831     5Ap    -0.686506
       2App   -0.686506     6Ap    -0.530768     7Ap    -0.441664
       3App   -0.435215     8Ap    -0.435215     9Ap    -0.382567
       4App   -0.382565     5App   -0.363618     6App   -0.338279
      10Ap    -0.338279    11Ap    -0.168453

    Alpha Virtual:

      12Ap     0.076040    13Ap     0.134198     7App    0.134199
      14Ap     0.142854     8App    0.142855    15Ap     0.154863
      16Ap     0.178885     9App    0.178885    17Ap     0.204615
      10App    0.215196    11App    0.276677    18Ap     0.276678
      19Ap     0.399221    12App    0.399226    20Ap     0.403217
      13App    0.423852    21Ap     0.423853    22Ap     0.457081
      23Ap     0.495642    14App    0.495643    15App    0.512452
      24Ap     0.514480    25Ap     0.579363    16App    0.579372
      17App    0.592152    26Ap     0.592154    27Ap     0.602814
      28Ap     0.625249    18App    0.632190    19App    0.637223
      29Ap     0.637227    30Ap     0.663726    20App    0.663726
      31Ap     0.684419    21App    0.684420    32Ap     0.734984
      22App    0.825305    33Ap     0.825308    23App    0.854916
      24App    0.915816    34Ap     0.915822    35Ap     0.943972
      25App    0.945418    26App    0.962231    36Ap     0.962247
      37Ap     1.004585    38Ap     1.128902    27App    1.128915
      39Ap     1.142559    40Ap     1.163595    28App    1.163607
      41Ap     1.224393    42Ap     1.275465    29App    1.275469
      43Ap     1.279629    30App    1.324942    44Ap     1.324944
      45Ap     1.355926    31App    1.368257    46Ap     1.368262
      32App    1.393958    47Ap     1.403703    33App    1.403705
      34App    1.417255    48Ap     1.417262    35App    1.429272
      36App    1.492896    49Ap     1.499267    37App    1.543514
      50Ap     1.543516    51Ap     1.575883    38App    1.575885
      52Ap     1.670034    53Ap     1.740279    39App    1.740291
      54Ap     1.769778    40App    1.832979    55Ap     1.832980
      41App    1.973378    56Ap     2.019865    42App    2.019869
      57Ap     2.021632    58Ap     2.056746    43App    2.056747
      44App    2.739272    59Ap     2.739273    60Ap     2.791878
      45App    2.814187    61Ap     2.891328    46App    2.891334
      62Ap     2.896146    63Ap     2.929659    47App    2.929668
      48App    2.959302    64Ap     2.964173    49App    2.964187
      65Ap     3.033612    50App    3.073092    66Ap     3.073106
      51App    3.086009    67Ap     3.169510    52App    3.169517
      68Ap     3.182520    69Ap     3.284997    53App    3.284997
      70Ap     3.327257    54App    3.327262    71Ap     3.374054
      55App    3.492154    72Ap     3.492175    56App    3.514969
      73Ap     3.527179    57App    3.568621    74Ap     3.568641
      58App    3.576658    75Ap     3.666928    59App    3.666936
      76Ap     3.681863    60App    3.695499    77Ap     3.695515
      78Ap     3.781553    61App    3.781579    79Ap     3.791055
      80Ap     3.914333    62App    3.914339    81Ap     4.036612
      82Ap     4.114436    63App    4.114440    83Ap     4.148919
      64App    4.148928    84Ap     4.174501    85Ap     4.204448
      65App    4.205152    86Ap     4.205156    66App    4.212359
      87Ap     4.317298    67App    4.317318    68App    4.361023
      88Ap     4.426690    69App    4.426692    70App    4.446129
      71App    4.519538    89Ap     4.519540    72App    4.581726
      90Ap     4.581739    91Ap     4.625397    92Ap     4.713913
      93Ap     4.781177    73App    4.781185    74App    4.842018
      94Ap     4.965831    75App    5.004409    95Ap     5.004421
      96Ap     5.229173    76App    5.248334    97Ap     5.248334
      98Ap     5.358400    77App    5.358413    78App    5.485492

    Beta Occupied:

       1Ap   -10.167434     1App  -10.167434     2Ap   -10.167404
       3Ap   -10.165712     4Ap    -0.782130     5Ap    -0.684291
       2App   -0.684291     6Ap    -0.511848     3App   -0.431577
       7Ap    -0.431577     8Ap    -0.422234     9Ap    -0.376605
       4App   -0.376603     5App   -0.362592     6App   -0.333403
      10Ap    -0.333402

    Beta Virtual:

      11Ap    -0.025611    12Ap     0.077065    13Ap     0.135093
       7App    0.135094    14Ap     0.144750     8App    0.144751
      15Ap     0.163377    16Ap     0.182582     9App    0.182583
      10App    0.215432    17Ap     0.219838    11App    0.282943
      18Ap     0.282945    19Ap     0.400424    12App    0.400428
      20Ap     0.419592    13App    0.426651    21Ap     0.426652
      22Ap     0.469332    23Ap     0.497911    14App    0.497912
      15App    0.514207    24Ap     0.556746    25Ap     0.584935
      16App    0.584943    17App    0.598264    26Ap     0.598265
      27Ap     0.610310    28Ap     0.628661    18App    0.632354
      19App    0.640577    29Ap     0.640581    30Ap     0.667245
      20App    0.667246    31Ap     0.687140    21App    0.687141
      32Ap     0.757308    22App    0.830488    33Ap     0.830490
      23App    0.856310    24App    0.923790    34Ap     0.923797
      25App    0.947261    35Ap     0.952814    26App    0.967595
      36Ap     0.967611    37Ap     1.009733    38Ap     1.132923
      27App    1.132935    39Ap     1.155983    40Ap     1.168672
      28App    1.168684    41Ap     1.233508    42Ap     1.281084
      29App    1.281088    43Ap     1.285308    30App    1.329922
      44Ap     1.329923    45Ap     1.365398    31App    1.373493
      46Ap     1.373498    32App    1.395029    47Ap     1.407148
      33App    1.407151    34App    1.422376    48Ap     1.422383
      35App    1.429568    36App    1.493945    49Ap     1.509769
      50Ap     1.547868    37App    1.547868    38App    1.583821
      51Ap     1.583822    52Ap     1.674872    53Ap     1.746047
      39App    1.746058    54Ap     1.780603    40App    1.836860
      55Ap     1.836861    41App    1.974242    56Ap     2.026287
      42App    2.026290    57Ap     2.043064    58Ap     2.063465
      43App    2.063465    44App    2.747512    59Ap     2.747513
      45App    2.814595    60Ap     2.817013    61Ap     2.903736
      46App    2.903741    62Ap     2.925936    63Ap     2.932329
      47App    2.932339    48App    2.960376    64Ap     2.968767
      49App    2.968781    65Ap     3.041674    50App    3.083049
      66Ap     3.083060    51App    3.087847    67Ap     3.185256
      52App    3.185261    68Ap     3.190093    69Ap     3.290010
      53App    3.290011    70Ap     3.330978    54App    3.330983
      71Ap     3.381847    55App    3.494860    72Ap     3.494880
      56App    3.513318    73Ap     3.530167    57App    3.576538
      58App    3.581919    74Ap     3.581940    75Ap     3.671587
      59App    3.671598    76Ap     3.695141    60App    3.726952
      77Ap     3.726968    78Ap     3.786076    61App    3.786102
      79Ap     3.819476    80Ap     3.924192    62App    3.924199
      81Ap     4.047406    82Ap     4.120983    63App    4.120984
      83Ap     4.156310    64App    4.156320    84Ap     4.188715
      65App    4.211089    85Ap     4.211092    86Ap     4.212468
      66App    4.216927    87Ap     4.324749    67App    4.324769
      68App    4.364363    88Ap     4.435054    69App    4.435056
      70App    4.449020    71App    4.527475    89Ap     4.527476
      72App    4.592313    90Ap     4.592325    91Ap     4.632578
      92Ap     4.724316    93Ap     4.788119    73App    4.788126
      74App    4.844921    94Ap     4.970652    75App    5.008501
      95Ap     5.008514    96Ap     5.234926    76App    5.250129
      97Ap     5.250130    98Ap     5.364927    77App    5.364940
      78App    5.487828

    Final Occupation by Irrep:
             Ap   App
    DOCC [    10,    6 ]
    SOCC [     1,    0 ]

  @DF-UKS Final Energy:  -157.81305020145149

   => Energetics <=

    Nuclear Repulsion Energy =            125.5785725353090214
    One-Electron Energy =                -459.1109460499444026
    Two-Electron Energy =                 196.0303429795716568
    DFT Exchange-Correlation Energy =     -20.3110196663877893
    Empirical Dispersion Energy =           0.0000000000000000
    VV10 Nonlocal Energy =                  0.0000000000000000
    Total Energy =                       -157.8130502014514889

  UHF NO Occupations:
  HONO-2 :    9 Ap 1.9995977
  HONO-1 :   10 Ap 1.9989860
  HONO-0 :   11 Ap 1.0000000
  LUNO+0 :   12 Ap 0.0010140
  LUNO+1 :   13 Ap 0.0004023
  LUNO+2 :    7App 0.0001953
  LUNO+3 :   14 Ap 0.0001953

Computation Completed

Properties will be evaluated at   0.000000,   0.000000,   0.000000 [a0]

Properties computed using the SCF density matrix

  Nuclear Dipole Moment: [e a0]
     X:     0.8289      Y:    -0.0000      Z:     0.0000

  Electronic Dipole Moment: [e a0]
     X:    -0.7526      Y:     0.0000      Z:     0.0000

  Dipole Moment: [e a0]
     X:     0.0763      Y:    -0.0000      Z:     0.0000     Total:     0.0763

  Dipole Moment: [D]
     X:     0.1938      Y:    -0.0000      Z:     0.0000     Total:     0.1938

*** tstop() called on n059 at Fri Nov  5 11:42:36 2021
Module time:
	user time   =     538.44 seconds =       8.97 minutes
	system time =      11.79 seconds =       0.20 minutes
	total time  =        139 seconds =       2.32 minutes
Total time:
	user time   =     538.44 seconds =       8.97 minutes
	system time =      11.79 seconds =       0.20 minutes
	total time  =        139 seconds =       2.32 minutes
Grab this energy -157.8130502014515
    Psi4 stopped on: Friday, 05 November 2021 11:42AM
    Psi4 wall time for execution: 0:02:18.38

*** Psi4 exiting successfully. Buy a developer a beer!
