                               Psi4 1.4a2.dev629

  ==> Input File <==

--------------------------------------------------------------------------
import os
memory 14 GB

molecule {
 C   -0.3233286155    0.0002554003    0.0000000000
 C    0.0623489044   -1.4022711475   -2.4274649737
 C    0.0591523538    2.8034069610   -0.0000000000
 C    0.0623489044   -1.4022711475    2.4274649737
 H    2.0868879368   -1.6436755607   -2.8471159343
 H   -0.7657272219   -0.3878328101   -4.0250929574
 H   -0.7661261613   -3.2916472888   -2.3486696110
 H    2.0870517988    3.2875953417    0.0000000000
 H   -0.7651251649    3.6797857987    1.6768118859
 H   -0.7651251649    3.6797857987   -1.6768118859
 H    2.0868879368   -1.6436755607    2.8471159343
 H   -0.7661261613   -3.2916472888    2.3486696110
 H   -0.7657272219   -0.3878328101    4.0250929574
units bohr
0 2
}

basis {

assign 6-31g_2dfp_

[ 6-31g_2dfp_ ]

spherical

!----------------------------------------------------------------------
! Basis Set Exchange
! Version v0.8.13
! https://www.basissetexchange.org
!----------------------------------------------------------------------
!   Basis set: 6-31G(2df,p)
! Description: 6-31G(2df,p)
!        Role: orbital
!     Version: 0  (Data from the original Basis Set Exchange)
!----------------------------------------------------------------------

****
H     0
S    3   1.00
     18.7311370              0.03349460
      2.8253937              0.23472695
      0.6401217              0.81375733
S    1   1.00
      0.1612778              1.00000000
P    1   1.00
      1.5000000              1.0000000
P    1   1.00
      0.3750000              1.0000000
****
B     0
S    6   1.00
   2068.8823000              0.0018663
    310.6495700              0.0142515
     70.6830330              0.0695516
     19.8610800              0.2325729
      6.2993048              0.4670787
      2.1270270              0.3634314
SP   3   1.00
      4.7279710             -0.1303938              0.0745976
      1.1903377             -0.1307889              0.3078467
      0.3594117              1.1309444              0.7434568
SP   1   1.00
      0.1267512              1.0000000              1.0000000
D    1   1.00
      0.8020000              1.0000000
D    1   1.00
      0.2005000              1.0000000
F    1   1.00
      0.5000000              1.0000000
****
C     0
S    6   1.00
   3047.5249000              0.0018347
    457.3695100              0.0140373
    103.9486900              0.0688426
     29.2101550              0.2321844
      9.2866630              0.4679413
      3.1639270              0.3623120
SP   3   1.00
      7.8682724             -0.1193324              0.0689991
      1.8812885             -0.1608542              0.3164240
      0.5442493              1.1434564              0.7443083
SP   1   1.00
      0.1687144              1.0000000              1.0000000
D    1   1.00
      1.2520000              1.0000000
D    1   1.00
      0.3130000              1.0000000
F    1   1.00
      0.8000000              1.0000000
****
N     0
S    6   1.00
   4173.5110000              0.0018348
    627.4579000              0.0139950
    142.9021000              0.0685870
     40.2343300              0.2322410
     12.8202100              0.4690700
      4.3904370              0.3604550
SP   3   1.00
     11.6263580             -0.1149610              0.0675800
      2.7162800             -0.1691180              0.3239070
      0.7722180              1.1458520              0.7408950
SP   1   1.00
      0.2120313              1.0000000              1.0000000
D    1   1.00
      1.8260000              1.0000000
D    1   1.00
      0.4565000              1.0000000
F    1   1.00
      1.0000000              1.0000000
****
O     0
S    6   1.00
   5484.6717000              0.0018311
    825.2349500              0.0139501
    188.0469600              0.0684451
     52.9645000              0.2327143
     16.8975700              0.4701930
      5.7996353              0.3585209
SP   3   1.00
     15.5396160             -0.1107775              0.0708743
      3.5999336             -0.1480263              0.3397528
      1.0137618              1.1307670              0.7271586
SP   1   1.00
      0.2700058              1.0000000              1.0000000
D    1   1.00
      2.5840000              1.0000000
D    1   1.00
      0.6460000              1.0000000
F    1   1.00
      1.4000000              1.0000000
****
F     0
S    6   1.00
   7001.7130900              0.0018196169
   1051.3660900              0.0139160796
    239.2856900              0.0684053245
     67.3974453              0.233185760
     21.5199573              0.471267439
      7.40310130             0.356618546
SP   3   1.00
     20.8479528             -0.108506975            0.0716287243
      4.80830834            -0.146451658            0.3459121030
      1.34406986             1.128688580            0.7224699570
SP   1   1.00
      0.358151393            1.0000000              1.0000000
D    1   1.00
      3.5000000              1.0000000
D    1   1.00
      0.8750000              1.0000000
F    1   1.00
      1.8500000              1.0000000
****
Al     0
S    6   1.00
  13983.1000000              0.00194267
   2098.7500000              0.0148599
    477.7050000              0.0728494
    134.3600000              0.2468300
     42.8709000              0.4872580
     14.5189000              0.3234960
SP   6   1.00
    239.6680000             -0.00292619             0.00460285
     57.4419000             -0.0374080              0.0331990
     18.2859000             -0.1144870              0.1362820
      6.5991400              0.1156350              0.3304760
      2.4904900              0.6125950              0.4491460
      0.9445400              0.3937990              0.2657040
SP   3   1.00
      1.2779000             -0.2276060             -0.0175130
      0.3975900              0.00144583             0.2445330
      0.1600950              1.0927900              0.8049340
SP   1   1.00
      0.0556577              1.0000000              1.0000000
D    1   1.00
      0.6500000              1.0000000
D    1   1.00
      0.1625000              1.0000000
F    1   1.00
      0.2500000              1.0000000
****
Si     0
S    6   1.00
  16115.9000000              0.00195948
   2425.5800000              0.01492880
    553.8670000              0.07284780
    156.3400000              0.24613000
     50.0683000              0.48591400
     17.0178000              0.32500200
SP   6   1.00
    292.7180000             -0.00278094             0.00443826
     69.8731000             -0.03571460             0.03266790
     22.3363000             -0.11498500             0.13472100
      8.1503900              0.09356340             0.32867800
      3.1345800              0.60301700             0.44964000
      1.2254300              0.41895900             0.26137200
SP   3   1.00
      1.7273800             -0.24463000            -0.01779510
      0.5729220              0.00431572             0.25353900
      0.2221920              1.09818000             0.80066900
SP   1   1.00
      0.0778369              1.00000000             1.00000000
D    1   1.00
      0.9000000              1.0000000
D    1   1.00
      0.2250000              1.0000000
F    1   1.00
      0.3200000              1.0000000
****
P     0
S    6   1.00
  19413.3000000              0.0018516
   2909.4200000              0.0142062
    661.3640000              0.0699995
    185.7590000              0.2400790
     59.1943000              0.4847620
     20.0310000              0.3352000
SP   6   1.00
    339.4780000             -0.00278217             0.00456462
     81.0101000             -0.0360499              0.03369360
     25.8780000             -0.1166310              0.13975500
      9.4522100              0.0968328              0.33936200
      3.6656600              0.6144180              0.45092100
      1.4674600              0.4037980              0.23858600
SP   3   1.00
      2.1562300             -0.2529230             -0.01776530
      0.7489970              0.0328517              0.27405800
      0.2831450              1.0812500              0.78542100
SP   1   1.00
      0.0998317              1.0000000              1.00000000
D    1   1.00
      1.1000000              1.0000000
D    1   1.00
      0.2750000              1.0000000
F    1   1.00
      0.4500000              1.0000000
****
S     0
S    6   1.00
  21917.1000000              0.0018690
   3301.4900000              0.0142300
    754.1460000              0.0696960
    212.7110000              0.2384870
     67.9896000              0.4833070
     23.0515000              0.3380740
SP   6   1.00
    423.7350000             -0.0023767              0.0040610
    100.7100000             -0.0316930              0.0306810
     32.1599000             -0.1133170              0.1304520
     11.8079000              0.0560900              0.3272050
      4.6311000              0.5922550              0.4528510
      1.8702500              0.4550060              0.2560420
SP   3   1.00
      2.6158400             -0.2503740             -0.0145110
      0.9221670              0.0669570              0.3102630
      0.3412870              1.0545100              0.7544830
SP   1   1.00
      0.1171670              1.0000000              1.0000000
D    1   1.00
      1.3000000              1.0000000
D    1   1.00
      0.3250000              1.0000000
F    1   1.00
      0.5500000              1.0000000
****
Cl     0
S    6   1.00
  25180.1000000              0.0018330
   3780.3500000              0.0140340
    860.4740000              0.0690970
    242.1450000              0.2374520
     77.3349000              0.4830340
     26.2470000              0.3398560
SP   6   1.00
    491.7650000             -0.0022974              0.0039894
    116.9840000             -0.0307140              0.0303180
     37.4153000             -0.1125280              0.1298800
     13.7834000              0.0450160              0.3279510
      5.4521500              0.5893530              0.4535270
      2.2258800              0.4652060              0.2521540
SP   3   1.00
      3.1864900             -0.2518300             -0.0142990
      1.1442700              0.0615890              0.3235720
      0.4203770              1.0601800              0.7435070
SP   1   1.00
      0.1426570              1.0000000              1.0000000
D    1   1.00
      1.5000000              1.0000000
D    1   1.00
      0.3750000              1.0000000
F    1   1.00
      0.7000000              1.0000000
****
}

set {
reference uhf
freeze_core true
e_convergence 10
d_convergence 10
dft_spherical_points 1202
dft_radial_points 99
}

e = energy('b3lyp')

print_out('Grab this energy {0}'.format(e))
--------------------------------------------------------------------------

    Molecular point group: cs

    Geometry (in Bohr), charge = 0, multiplicity = 2:

       Center              X                  Y                   Z               Mass
    ------------   -----------------  -----------------  -----------------  -----------------
         C           -0.323436770597     0.000425311234     0.000000000000    12.000000000000
         C            0.062240749303    -1.402101236566    -2.427464973700    12.000000000000
         C            0.059044198703     2.803576871934     0.000000000000    12.000000000000
         C            0.062240749303    -1.402101236566     2.427464973700    12.000000000000
         H            2.086779781703    -1.643505649766    -2.847115934300     1.007825032230
         H           -0.765835376997    -0.387662899166    -4.025092957400     1.007825032230
         H           -0.766234316397    -3.291477377866    -2.348669611000     1.007825032230
         H            2.086943643703     3.287765252634     0.000000000000     1.007825032230
         H           -0.765233319997     3.679955709634     1.676811885900     1.007825032230
         H           -0.765233319997     3.679955709634    -1.676811885900     1.007825032230
         H            2.086779781703    -1.643505649766     2.847115934300     1.007825032230
         H           -0.766234316397    -3.291477377866     2.348669611000     1.007825032230
         H           -0.765835376997    -0.387662899166     4.025092957400     1.007825032230

  Charge       = 0
  Multiplicity = 2
  Basis Set: ANONYMOUSE60E2415
    Blend: 6-31G_2DFP_
  Basis Set: (ANONYMOUSE60E2415 AUX)
    Blend: DEF2-UNIVERSAL-JKFIT

    Orbital Energies [Eh]
    ---------------------

    Alpha Occupied:

       1Ap   -10.180393     2Ap   -10.167002     1App  -10.166961
       3Ap   -10.166924     4Ap    -0.797509     5Ap    -0.686211
       2App   -0.686144     6Ap    -0.530610     7Ap    -0.441116
       3App   -0.434706     8Ap    -0.434500     4App   -0.382887
       9Ap    -0.382586     5App   -0.363813    10Ap    -0.337924
       6App   -0.337753    11Ap    -0.168940

    Alpha Virtual:

      12Ap     0.076080    13Ap     0.134181     7App    0.134248
      14Ap     0.142698     8App    0.142824    15Ap     0.154774
      16Ap     0.178830     9App    0.179058    17Ap     0.203255
      10App    0.214926    11App    0.275687    18Ap     0.275799
      12App    0.399080    19Ap     0.399386    20Ap     0.403438
      13App    0.424102    21Ap     0.424199    22Ap     0.456412
      14App    0.495371    23Ap     0.495427    15App    0.512215
      24Ap     0.514037    25Ap     0.578769    16App    0.578947
      26Ap     0.591613    17App    0.591855    27Ap     0.602615
      28Ap     0.624882    18App    0.632005    29Ap     0.636086
      19App    0.636298    30Ap     0.663128    20App    0.663468
      21App    0.683718    31Ap     0.684014    32Ap     0.735126
      22App    0.825372    33Ap     0.825402    23App    0.853780
      34Ap     0.915050    24App    0.915086    25App    0.944080
      35Ap     0.944301    36Ap     0.961288    26App    0.961427
      37Ap     1.003622    38Ap     1.127926    27App    1.128143
      39Ap     1.141803    40Ap     1.163772    28App    1.163983
      41Ap     1.222903    42Ap     1.274217    29App    1.274506
      43Ap     1.279194    44Ap     1.323904    30App    1.324409
      45Ap     1.355650    31App    1.365609    46Ap     1.366222
      32App    1.392939    47Ap     1.404658    33App    1.404900
      48Ap     1.416830    34App    1.417410    35App    1.428167
      36App    1.490971    49Ap     1.499661    50Ap     1.542627
      37App    1.542700    38App    1.574199    51Ap     1.574495
      52Ap     1.670615    53Ap     1.738491    39App    1.739323
      54Ap     1.768349    40App    1.831634    55Ap     1.832038
      41App    1.971136    56Ap     2.017603    57Ap     2.018591
      42App    2.018913    58Ap     2.051852    43App    2.052583
      59Ap     2.738272    44App    2.738350    60Ap     2.790699
      45App    2.811340    46App    2.889582    61Ap     2.890116
      62Ap     2.894536    47App    2.929627    63Ap     2.929676
      48App    2.959046    64Ap     2.964291    49App    2.964514
      65Ap     3.033836    50App    3.071201    66Ap     3.071461
      51App    3.083955    67Ap     3.168552    52App    3.168806
      68Ap     3.179991    69Ap     3.285611    53App    3.285680
      70Ap     3.326756    54App    3.327072    71Ap     3.375707
      55App    3.489751    72Ap     3.490394    56App    3.513864
      73Ap     3.524975    74Ap     3.568047    57App    3.568247
      58App    3.575280    75Ap     3.666854    59App    3.667471
      76Ap     3.680226    60App    3.694212    77Ap     3.694280
      78Ap     3.776691    61App    3.776805    79Ap     3.789409
      62App    3.911044    80Ap     3.911198    81Ap     4.033904
      63App    4.111562    82Ap     4.111732    64App    4.148075
      83Ap     4.148197    84Ap     4.172566    85Ap     4.201603
      86Ap     4.202395    65App    4.202579    66App    4.210492
      67App    4.315636    87Ap     4.316484    68App    4.359620
      69App    4.425519    88Ap     4.425763    70App    4.445383
      89Ap     4.515457    71App    4.517568    72App    4.577335
      90Ap     4.577776    91Ap     4.617144    92Ap     4.708163
      93Ap     4.773273    73App    4.774293    74App    4.835575
      94Ap     4.964179    95Ap     5.003379    75App    5.004281
      96Ap     5.228576    97Ap     5.247073    76App    5.247109
      77App    5.355084    98Ap     5.355607    78App    5.478135

    Beta Occupied:

       1Ap   -10.167757     1App  -10.167711     2Ap   -10.167693
       3Ap   -10.166560     4Ap    -0.780849     5Ap    -0.684019
       2App   -0.683952     6Ap    -0.511535     3App   -0.431100
       7Ap    -0.430888     8Ap    -0.421854     4App   -0.376996
       9Ap    -0.376678     5App   -0.362801    10Ap    -0.333033
       6App   -0.332860

    Beta Virtual:

      11Ap    -0.025573    12Ap     0.077086    13Ap     0.135071
       7App    0.135120    14Ap     0.144571     8App    0.144688
      15Ap     0.163191    16Ap     0.182484     9App    0.182716
      10App    0.215154    17Ap     0.218687    11App    0.282057
      18Ap     0.282164    12App    0.400242    19Ap     0.400553
      20Ap     0.419874    13App    0.426909    21Ap     0.427012
      22Ap     0.468244    14App    0.497627    23Ap     0.497677
      15App    0.513941    24Ap     0.556413    25Ap     0.584325
      16App    0.584494    26Ap     0.597797    17App    0.598049
      27Ap     0.610045    28Ap     0.628219    18App    0.632157
      29Ap     0.639354    19App    0.639567    30Ap     0.666706
      20App    0.667015    21App    0.686340    31Ap     0.686641
      32Ap     0.757726    22App    0.830528    33Ap     0.830553
      23App    0.855121    34Ap     0.923026    24App    0.923059
      25App    0.945909    35Ap     0.953217    36Ap     0.966577
      26App    0.966731    37Ap     1.008871    38Ap     1.131923
      27App    1.132214    39Ap     1.155145    40Ap     1.168903
      28App    1.169019    41Ap     1.231934    42Ap     1.279778
      29App    1.280076    43Ap     1.284971    44Ap     1.328860
      30App    1.329387    45Ap     1.365055    31App    1.370912
      46Ap     1.371527    32App    1.393987    47Ap     1.408078
      33App    1.408349    48Ap     1.421897    34App    1.422442
      35App    1.428448    36App    1.492006    49Ap     1.510083
      37App    1.547017    50Ap     1.547082    38App    1.582141
      51Ap     1.582333    52Ap     1.675468    53Ap     1.744262
      39App    1.745079    54Ap     1.779088    40App    1.835464
      55Ap     1.835869    41App    1.971988    56Ap     2.023992
      42App    2.025277    57Ap     2.039894    58Ap     2.058630
      43App    2.059310    59Ap     2.746644    44App    2.746711
      45App    2.811753    60Ap     2.815868    46App    2.902318
      61Ap     2.902837    62Ap     2.924208    47App    2.932080
      63Ap     2.932123    48App    2.960110    64Ap     2.968809
      49App    2.969024    65Ap     3.041729    50App    3.081063
      66Ap     3.081321    51App    3.085774    67Ap     3.184409
      52App    3.184630    68Ap     3.187704    69Ap     3.290370
      53App    3.290420    70Ap     3.330552    54App    3.330896
      71Ap     3.383493    55App    3.492475    72Ap     3.493115
      56App    3.512229    73Ap     3.528057    57App    3.575133
      74Ap     3.581518    58App    3.581593    75Ap     3.671857
      59App    3.672348    76Ap     3.693524    77Ap     3.725626
      60App    3.725887    78Ap     3.781167    61App    3.781256
      79Ap     3.818009    62App    3.920883    80Ap     3.921068
      81Ap     4.044870    63App    4.118333    82Ap     4.118401
      64App    4.155290    83Ap     4.155499    84Ap     4.186575
      85Ap     4.208104    65App    4.208522    86Ap     4.209761
      66App    4.214945    67App    4.323142    87Ap     4.324041
      68App    4.362963    69App    4.433679    88Ap     4.433905
      70App    4.448263    89Ap     4.523187    71App    4.525291
      72App    4.587933    90Ap     4.588345    91Ap     4.624315
      92Ap     4.718507    93Ap     4.780247    73App    4.781229
      74App    4.838495    94Ap     4.968952    95Ap     5.007414
      75App    5.008279    96Ap     5.234275    97Ap     5.248848
      76App    5.248884    77App    5.361538    98Ap     5.362058
      78App    5.480448

    Final Occupation by Irrep:
             Ap   App
    DOCC [    10,    6 ]
    SOCC [     1,    0 ]

  @DF-UKS Final Energy:  -157.81304715624992

   => Energetics <=

    Nuclear Repulsion Energy =            125.3666500570858631
    One-Electron Energy =                -458.6938662383987548
    Two-Electron Energy =                 195.8214276386412394
    DFT Exchange-Correlation Energy =     -20.3072586135782664
    Empirical Dispersion Energy =           0.0000000000000000
    VV10 Nonlocal Energy =                  0.0000000000000000
    Total Energy =                       -157.8130471562499224

  UHF NO Occupations:
  HONO-2 :    9 Ap 1.9996025
  HONO-1 :   10 Ap 1.9989782
  HONO-0 :   11 Ap 1.0000000
  LUNO+0 :   12 Ap 0.0010218
  LUNO+1 :   13 Ap 0.0003975
  LUNO+2 :    7App 0.0001984
  LUNO+3 :   14 Ap 0.0001982

Computation Completed

Properties will be evaluated at   0.000000,   0.000000,   0.000000 [a0]

Properties computed using the SCF density matrix

  Nuclear Dipole Moment: [e a0]
     X:     0.8264      Y:     0.0012      Z:     0.0000

  Electronic Dipole Moment: [e a0]
     X:    -0.7484      Y:    -0.0011      Z:     0.0000

  Dipole Moment: [e a0]
     X:     0.0780      Y:     0.0001      Z:     0.0000     Total:     0.0780

  Dipole Moment: [D]
     X:     0.1984      Y:     0.0003      Z:     0.0000     Total:     0.1984

*** tstop() called on n079 at Fri Nov  5 12:28:37 2021
Module time:
	user time   =     493.84 seconds =       8.23 minutes
	system time =       4.54 seconds =       0.08 minutes
	total time  =        125 seconds =       2.08 minutes
Total time:
	user time   =     493.84 seconds =       8.23 minutes
	system time =       4.54 seconds =       0.08 minutes
	total time  =        125 seconds =       2.08 minutes
Grab this energy -157.81304715624992
    Psi4 stopped on: Friday, 05 November 2021 12:28PM
    Psi4 wall time for execution: 0:02:05.41

*** Psi4 exiting successfully. Buy a developer a beer!
