                               Psi4 1.4a2.dev629

  ==> Input File <==

--------------------------------------------------------------------------
import os
memory 14 GB

molecule {
 C   -0.3233393702   -0.0010233154   -0.0000000000
 C    0.0615136163   -1.3994279611   -2.4269893992
 C    0.0602725239    2.8021534513    0.0000000000
 C    0.0615136163   -1.3994279611    2.4269893992
 H    2.0868955844   -1.6446448484   -2.8471787147
 H   -0.7656395135   -0.3885308315   -4.0254352654
 H   -0.7655471687   -3.2921521174   -2.3488539462
 H    2.0868811006    3.2880064830   -0.0000000000
 H   -0.7654335840    3.6801752922    1.6765946808
 H   -0.7654335840    3.6801752922   -1.6765946808
 H    2.0868955844   -1.6446448484    2.8471787147
 H   -0.7655471687   -3.2921521174    2.3488539462
 H   -0.7656395135   -0.3885308315    4.0254352654
units bohr
0 2
}

basis {

assign 6-31g_2dfp_

[ 6-31g_2dfp_ ]

spherical

!----------------------------------------------------------------------
! Basis Set Exchange
! Version v0.8.13
! https://www.basissetexchange.org
!----------------------------------------------------------------------
!   Basis set: 6-31G(2df,p)
! Description: 6-31G(2df,p)
!        Role: orbital
!     Version: 0  (Data from the original Basis Set Exchange)
!----------------------------------------------------------------------

****
H     0
S    3   1.00
     18.7311370              0.03349460
      2.8253937              0.23472695
      0.6401217              0.81375733
S    1   1.00
      0.1612778              1.00000000
P    1   1.00
      1.5000000              1.0000000
P    1   1.00
      0.3750000              1.0000000
****
B     0
S    6   1.00
   2068.8823000              0.0018663
    310.6495700              0.0142515
     70.6830330              0.0695516
     19.8610800              0.2325729
      6.2993048              0.4670787
      2.1270270              0.3634314
SP   3   1.00
      4.7279710             -0.1303938              0.0745976
      1.1903377             -0.1307889              0.3078467
      0.3594117              1.1309444              0.7434568
SP   1   1.00
      0.1267512              1.0000000              1.0000000
D    1   1.00
      0.8020000              1.0000000
D    1   1.00
      0.2005000              1.0000000
F    1   1.00
      0.5000000              1.0000000
****
C     0
S    6   1.00
   3047.5249000              0.0018347
    457.3695100              0.0140373
    103.9486900              0.0688426
     29.2101550              0.2321844
      9.2866630              0.4679413
      3.1639270              0.3623120
SP   3   1.00
      7.8682724             -0.1193324              0.0689991
      1.8812885             -0.1608542              0.3164240
      0.5442493              1.1434564              0.7443083
SP   1   1.00
      0.1687144              1.0000000              1.0000000
D    1   1.00
      1.2520000              1.0000000
D    1   1.00
      0.3130000              1.0000000
F    1   1.00
      0.8000000              1.0000000
****
N     0
S    6   1.00
   4173.5110000              0.0018348
    627.4579000              0.0139950
    142.9021000              0.0685870
     40.2343300              0.2322410
     12.8202100              0.4690700
      4.3904370              0.3604550
SP   3   1.00
     11.6263580             -0.1149610              0.0675800
      2.7162800             -0.1691180              0.3239070
      0.7722180              1.1458520              0.7408950
SP   1   1.00
      0.2120313              1.0000000              1.0000000
D    1   1.00
      1.8260000              1.0000000
D    1   1.00
      0.4565000              1.0000000
F    1   1.00
      1.0000000              1.0000000
****
O     0
S    6   1.00
   5484.6717000              0.0018311
    825.2349500              0.0139501
    188.0469600              0.0684451
     52.9645000              0.2327143
     16.8975700              0.4701930
      5.7996353              0.3585209
SP   3   1.00
     15.5396160             -0.1107775              0.0708743
      3.5999336             -0.1480263              0.3397528
      1.0137618              1.1307670              0.7271586
SP   1   1.00
      0.2700058              1.0000000              1.0000000
D    1   1.00
      2.5840000              1.0000000
D    1   1.00
      0.6460000              1.0000000
F    1   1.00
      1.4000000              1.0000000
****
F     0
S    6   1.00
   7001.7130900              0.0018196169
   1051.3660900              0.0139160796
    239.2856900              0.0684053245
     67.3974453              0.233185760
     21.5199573              0.471267439
      7.40310130             0.356618546
SP   3   1.00
     20.8479528             -0.108506975            0.0716287243
      4.80830834            -0.146451658            0.3459121030
      1.34406986             1.128688580            0.7224699570
SP   1   1.00
      0.358151393            1.0000000              1.0000000
D    1   1.00
      3.5000000              1.0000000
D    1   1.00
      0.8750000              1.0000000
F    1   1.00
      1.8500000              1.0000000
****
Al     0
S    6   1.00
  13983.1000000              0.00194267
   2098.7500000              0.0148599
    477.7050000              0.0728494
    134.3600000              0.2468300
     42.8709000              0.4872580
     14.5189000              0.3234960
SP   6   1.00
    239.6680000             -0.00292619             0.00460285
     57.4419000             -0.0374080              0.0331990
     18.2859000             -0.1144870              0.1362820
      6.5991400              0.1156350              0.3304760
      2.4904900              0.6125950              0.4491460
      0.9445400              0.3937990              0.2657040
SP   3   1.00
      1.2779000             -0.2276060             -0.0175130
      0.3975900              0.00144583             0.2445330
      0.1600950              1.0927900              0.8049340
SP   1   1.00
      0.0556577              1.0000000              1.0000000
D    1   1.00
      0.6500000              1.0000000
D    1   1.00
      0.1625000              1.0000000
F    1   1.00
      0.2500000              1.0000000
****
Si     0
S    6   1.00
  16115.9000000              0.00195948
   2425.5800000              0.01492880
    553.8670000              0.07284780
    156.3400000              0.24613000
     50.0683000              0.48591400
     17.0178000              0.32500200
SP   6   1.00
    292.7180000             -0.00278094             0.00443826
     69.8731000             -0.03571460             0.03266790
     22.3363000             -0.11498500             0.13472100
      8.1503900              0.09356340             0.32867800
      3.1345800              0.60301700             0.44964000
      1.2254300              0.41895900             0.26137200
SP   3   1.00
      1.7273800             -0.24463000            -0.01779510
      0.5729220              0.00431572             0.25353900
      0.2221920              1.09818000             0.80066900
SP   1   1.00
      0.0778369              1.00000000             1.00000000
D    1   1.00
      0.9000000              1.0000000
D    1   1.00
      0.2250000              1.0000000
F    1   1.00
      0.3200000              1.0000000
****
P     0
S    6   1.00
  19413.3000000              0.0018516
   2909.4200000              0.0142062
    661.3640000              0.0699995
    185.7590000              0.2400790
     59.1943000              0.4847620
     20.0310000              0.3352000
SP   6   1.00
    339.4780000             -0.00278217             0.00456462
     81.0101000             -0.0360499              0.03369360
     25.8780000             -0.1166310              0.13975500
      9.4522100              0.0968328              0.33936200
      3.6656600              0.6144180              0.45092100
      1.4674600              0.4037980              0.23858600
SP   3   1.00
      2.1562300             -0.2529230             -0.01776530
      0.7489970              0.0328517              0.27405800
      0.2831450              1.0812500              0.78542100
SP   1   1.00
      0.0998317              1.0000000              1.00000000
D    1   1.00
      1.1000000              1.0000000
D    1   1.00
      0.2750000              1.0000000
F    1   1.00
      0.4500000              1.0000000
****
S     0
S    6   1.00
  21917.1000000              0.0018690
   3301.4900000              0.0142300
    754.1460000              0.0696960
    212.7110000              0.2384870
     67.9896000              0.4833070
     23.0515000              0.3380740
SP   6   1.00
    423.7350000             -0.0023767              0.0040610
    100.7100000             -0.0316930              0.0306810
     32.1599000             -0.1133170              0.1304520
     11.8079000              0.0560900              0.3272050
      4.6311000              0.5922550              0.4528510
      1.8702500              0.4550060              0.2560420
SP   3   1.00
      2.6158400             -0.2503740             -0.0145110
      0.9221670              0.0669570              0.3102630
      0.3412870              1.0545100              0.7544830
SP   1   1.00
      0.1171670              1.0000000              1.0000000
D    1   1.00
      1.3000000              1.0000000
D    1   1.00
      0.3250000              1.0000000
F    1   1.00
      0.5500000              1.0000000
****
Cl     0
S    6   1.00
  25180.1000000              0.0018330
   3780.3500000              0.0140340
    860.4740000              0.0690970
    242.1450000              0.2374520
     77.3349000              0.4830340
     26.2470000              0.3398560
SP   6   1.00
    491.7650000             -0.0022974              0.0039894
    116.9840000             -0.0307140              0.0303180
     37.4153000             -0.1125280              0.1298800
     13.7834000              0.0450160              0.3279510
      5.4521500              0.5893530              0.4535270
      2.2258800              0.4652060              0.2521540
SP   3   1.00
      3.1864900             -0.2518300             -0.0142990
      1.1442700              0.0615890              0.3235720
      0.4203770              1.0601800              0.7435070
SP   1   1.00
      0.1426570              1.0000000              1.0000000
D    1   1.00
      1.5000000              1.0000000
D    1   1.00
      0.3750000              1.0000000
F    1   1.00
      0.7000000              1.0000000
****
}

set {
reference uhf
freeze_core true
e_convergence 10
d_convergence 10
dft_spherical_points 1202
dft_radial_points 99
}

e = energy('b3lyp')

print_out('Grab this energy {0}'.format(e))
--------------------------------------------------------------------------

    Molecular point group: cs

    Geometry (in Bohr), charge = 0, multiplicity = 2:

       Center              X                  Y                   Z               Mass
    ------------   -----------------  -----------------  -----------------  -----------------
         C           -0.323339441685    -0.001460915979     0.000000000000    12.000000000000
         C            0.061513544815    -1.399865561679    -2.426989399200    12.000000000000
         C            0.060272452415     2.801715850721     0.000000000000    12.000000000000
         C            0.061513544815    -1.399865561679     2.426989399200    12.000000000000
         H            2.086895512915    -1.645082448979    -2.847178714700     1.007825032230
         H           -0.765639584985    -0.388968432079    -4.025435265400     1.007825032230
         H           -0.765547240185    -3.292589717979    -2.348853946200     1.007825032230
         H            2.086881029115     3.287568882421     0.000000000000     1.007825032230
         H           -0.765433655485     3.679737691621     1.676594680800     1.007825032230
         H           -0.765433655485     3.679737691621    -1.676594680800     1.007825032230
         H            2.086895512915    -1.645082448979     2.847178714700     1.007825032230
         H           -0.765547240185    -3.292589717979     2.348853946200     1.007825032230
         H           -0.765639584985    -0.388968432079     4.025435265400     1.007825032230

  Charge       = 0
  Multiplicity = 2
  Basis Set: ANONYMOUS3DEC001F
    Blend: 6-31G_2DFP_
  Basis Set: (ANONYMOUS3DEC001F AUX)
    Blend: DEF2-UNIVERSAL-JKFIT

    Orbital Energies [Eh]
    ---------------------

    Alpha Occupied:

       1Ap   -10.180342     1App  -10.167045     2Ap   -10.167026
       3Ap   -10.166973     4Ap    -0.797766     2App   -0.686266
       5Ap    -0.686107     6Ap    -0.530776     7Ap    -0.441125
       8Ap    -0.434678     3App   -0.434663     4App   -0.382638
       9Ap    -0.382561     5App   -0.363609     6App   -0.338293
      10Ap    -0.337706    11Ap    -0.168961

    Alpha Virtual:

      12Ap     0.076072    13Ap     0.134118     7App    0.134195
      14Ap     0.142564     8App    0.142692    15Ap     0.154879
       9App    0.178727    16Ap     0.178828    17Ap     0.203546
      10App    0.214803    18Ap     0.275861    11App    0.276111
      19Ap     0.399118    12App    0.399340    20Ap     0.403342
      13App    0.424092    21Ap     0.424103    22Ap     0.456593
      14App    0.495355    23Ap     0.495424    15App    0.512160
      24Ap     0.513979    25Ap     0.578771    16App    0.578864
      26Ap     0.591615    17App    0.591652    27Ap     0.602571
      28Ap     0.624760    18App    0.631770    29Ap     0.636249
      19App    0.636252    30Ap     0.663322    20App    0.663501
      21App    0.683842    31Ap     0.683863    32Ap     0.734994
      22App    0.825403    33Ap     0.825412    23App    0.853916
      24App    0.914918    34Ap     0.915134    25App    0.944126
      35Ap     0.944613    36Ap     0.961237    26App    0.961347
      37Ap     1.003453    27App    1.128101    38Ap     1.128123
      39Ap     1.142211    28App    1.163253    40Ap     1.163289
      41Ap     1.223324    42Ap     1.274307    29App    1.274672
      43Ap     1.279355    44Ap     1.324304    30App    1.324413
      45Ap     1.355993    31App    1.365814    46Ap     1.366296
      32App    1.392439    47Ap     1.403811    33App    1.404306
      48Ap     1.416847    34App    1.417370    35App    1.427916
      36App    1.491494    49Ap     1.499079    50Ap     1.542658
      37App    1.542998    38App    1.574133    51Ap     1.574762
      52Ap     1.669815    53Ap     1.739295    39App    1.739533
      54Ap     1.768333    40App    1.831325    55Ap     1.831470
      41App    1.971722    56Ap     2.018211    42App    2.018628
      57Ap     2.019552    43App    2.052032    58Ap     2.053241
      59Ap     2.738439    44App    2.738532    60Ap     2.790922
      45App    2.811427    61Ap     2.889283    46App    2.890627
      62Ap     2.894937    63Ap     2.929325    47App    2.929666
      48App    2.958992    49App    2.964096    64Ap     2.964660
      65Ap     3.034009    66Ap     3.071159    50App    3.071411
      51App    3.084350    52App    3.168667    67Ap     3.168876
      68Ap     3.180604    69Ap     3.285096    53App    3.285532
      54App    3.327119    70Ap     3.327200    71Ap     3.375621
      72Ap     3.490132    55App    3.490188    56App    3.514017
      73Ap     3.525330    57App    3.568277    74Ap     3.568501
      58App    3.575145    75Ap     3.666145    59App    3.666606
      76Ap     3.679684    77Ap     3.694117    60App    3.694129
      78Ap     3.776796    61App    3.776812    79Ap     3.789115
      80Ap     3.911863    62App    3.912576    81Ap     4.034461
      63App    4.111156    82Ap     4.111595    83Ap     4.147934
      64App    4.148317    84Ap     4.173248    85Ap     4.202588
      65App    4.203093    86Ap     4.203112    66App    4.210845
      87Ap     4.315162    67App    4.316758    68App    4.358970
      69App    4.423866    88Ap     4.425009    70App    4.443458
      89Ap     4.516655    71App    4.517020    90Ap     4.577989
      72App    4.578559    91Ap     4.617527    92Ap     4.709457
      73App    4.774438    93Ap     4.774740    74App    4.836907
      94Ap     4.962862    75App    5.002658    95Ap     5.003236
      96Ap     5.228032    97Ap     5.246584    76App    5.247047
      98Ap     5.355474    77App    5.355532    78App    5.479351

    Beta Occupied:

       1App  -10.167799     1Ap   -10.167785     2Ap   -10.167740
       3Ap   -10.166519     4Ap    -0.781091     2App   -0.684066
       5Ap    -0.683912     6Ap    -0.511747     7Ap    -0.431058
       3App   -0.431027     8Ap    -0.421821     4App   -0.376731
       9Ap    -0.376639     5App   -0.362593     6App   -0.333415
      10Ap    -0.332829

    Beta Virtual:

      11Ap    -0.025742    12Ap     0.077081    13Ap     0.134995
       7App    0.135096    14Ap     0.144453     8App    0.144544
      15Ap     0.163338     9App    0.182411    16Ap     0.182488
      10App    0.215032    17Ap     0.218929    18Ap     0.282223
      11App    0.282444    19Ap     0.400287    12App    0.400509
      20Ap     0.419789    13App    0.426902    21Ap     0.426916
      22Ap     0.468501    14App    0.497618    23Ap     0.497682
      15App    0.513895    24Ap     0.556325    25Ap     0.584322
      16App    0.584414    26Ap     0.597785    17App    0.597841
      27Ap     0.609994    28Ap     0.628136    18App    0.631928
      19App    0.639532    29Ap     0.639538    30Ap     0.666882
      20App    0.667069    21App    0.686475    31Ap     0.686500
      32Ap     0.757518    22App    0.830574    33Ap     0.830577
      23App    0.855269    24App    0.922889    34Ap     0.923106
      25App    0.945963    35Ap     0.953542    36Ap     0.966552
      26App    0.966643    37Ap     1.008693    27App    1.132140
      38Ap     1.132141    39Ap     1.155583    28App    1.168315
      40Ap     1.168381    41Ap     1.232297    42Ap     1.279877
      29App    1.280296    43Ap     1.285110    44Ap     1.329282
      30App    1.329414    45Ap     1.365410    31App    1.371031
      46Ap     1.371564    32App    1.393497    47Ap     1.407267
      33App    1.407778    48Ap     1.421918    34App    1.422397
      35App    1.428187    36App    1.492542    49Ap     1.509523
      50Ap     1.547052    37App    1.547419    38App    1.582012
      51Ap     1.582628    52Ap     1.674663    53Ap     1.745059
      39App    1.745292    54Ap     1.779111    40App    1.835182
      55Ap     1.835323    41App    1.972582    42App    2.025046
      56Ap     2.025847    57Ap     2.039677    43App    2.058725
      58Ap     2.059978    59Ap     2.746781    44App    2.746861
      45App    2.811839    60Ap     2.816058    61Ap     2.901984
      46App    2.903301    62Ap     2.924645    63Ap     2.931776
      47App    2.932180    48App    2.960056    49App    2.968650
      64Ap     2.969192    65Ap     3.041944    66Ap     3.081061
      50App    3.081330    51App    3.086165    52App    3.184399
      67Ap     3.184617    68Ap     3.188314    69Ap     3.289924
      53App    3.290300    54App    3.330910    70Ap     3.331017
      71Ap     3.383439    72Ap     3.492847    55App    3.492932
      56App    3.512381    73Ap     3.528375    57App    3.574992
      58App    3.581675    74Ap     3.581796    75Ap     3.670806
      59App    3.671450    76Ap     3.692969    60App    3.725572
      77Ap     3.725937    78Ap     3.781263    61App    3.781397
      79Ap     3.817660    80Ap     3.921658    62App    3.922415
      81Ap     4.045348    63App    4.117969    82Ap     4.118412
      83Ap     4.155178    64App    4.155489    84Ap     4.187310
      85Ap     4.208959    65App    4.209043    86Ap     4.210635
      66App    4.215317    87Ap     4.322570    67App    4.324232
      68App    4.362332    69App    4.432072    88Ap     4.433224
      70App    4.446350    89Ap     4.524460    71App    4.524797
      90Ap     4.588613    72App    4.589139    91Ap     4.624719
      92Ap     4.719803    73App    4.781410    93Ap     4.781674
      74App    4.839823    94Ap     4.967656    75App    5.006696
      95Ap     5.007276    96Ap     5.233746    97Ap     5.248378
      76App    5.248823    98Ap     5.361935    77App    5.362032
      78App    5.481672

    Final Occupation by Irrep:
             Ap   App
    DOCC [    10,    6 ]
    SOCC [     1,    0 ]

  @DF-UKS Final Energy:  -157.81307179441777

   => Energetics <=

    Nuclear Repulsion Energy =            125.3945911179099681
    One-Electron Energy =                -458.7488544575513174
    Two-Electron Energy =                 195.8483332933193708
    DFT Exchange-Correlation Energy =     -20.3071417480957841
    Empirical Dispersion Energy =           0.0000000000000000
    VV10 Nonlocal Energy =                  0.0000000000000000
    Total Energy =                       -157.8130717944177661

  UHF NO Occupations:
  HONO-2 :    9 Ap 1.9996009
  HONO-1 :   10 Ap 1.9989805
  HONO-0 :   11 Ap 1.0000000
  LUNO+0 :   12 Ap 0.0010195
  LUNO+1 :   13 Ap 0.0003991
  LUNO+2 :   14 Ap 0.0001980
  LUNO+3 :    7App 0.0001971

Computation Completed

Properties will be evaluated at   0.000000,   0.000000,   0.000000 [a0]

Properties computed using the SCF density matrix

  Nuclear Dipole Moment: [e a0]
     X:     0.8272      Y:    -0.0031      Z:    -0.0000

  Electronic Dipole Moment: [e a0]
     X:    -0.7493      Y:     0.0030      Z:     0.0000

  Dipole Moment: [e a0]
     X:     0.0779      Y:    -0.0000      Z:    -0.0000     Total:     0.0779

  Dipole Moment: [D]
     X:     0.1980      Y:    -0.0001      Z:    -0.0000     Total:     0.1980

*** tstop() called on n079 at Fri Nov  5 11:42:53 2021
Module time:
	user time   =     497.76 seconds =       8.30 minutes
	system time =       4.54 seconds =       0.08 minutes
	total time  =        126 seconds =       2.10 minutes
Total time:
	user time   =     497.76 seconds =       8.30 minutes
	system time =       4.54 seconds =       0.08 minutes
	total time  =        126 seconds =       2.10 minutes
Grab this energy -157.81307179441777
    Psi4 stopped on: Friday, 05 November 2021 11:42AM
    Psi4 wall time for execution: 0:02:06.31

*** Psi4 exiting successfully. Buy a developer a beer!
