                               Psi4 1.4a2.dev629

  ==> Input File <==

--------------------------------------------------------------------------
import os
memory 14 GB

molecule {
 C   -0.3233517035    0.0004305496   -0.0000000000
 C    0.0608031758   -1.3990430425   -2.4256072582
 C    0.0611467348    2.8000139916   -0.0000000000
 C    0.0608031758   -1.3990430425    2.4256072582
 H    2.0873410083   -1.6417240245   -2.8493835164
 H   -0.7626855026   -0.3903885776   -4.0239645552
 H   -0.7683993348   -3.2939756172   -2.3493975361
 H    2.0858335558    3.2886117768   -0.0000000000
 H   -0.7651775784    3.6805909459    1.6773113977
 H   -0.7651775784    3.6805909459   -1.6773113977
 H    2.0873410083   -1.6417240245    2.8493835164
 H   -0.7683993348   -3.2939756172    2.3493975361
 H   -0.7626855026   -0.3903885776    4.0239645552
units bohr
0 2
}

basis {

assign 6-31g_2dfp_

[ 6-31g_2dfp_ ]

spherical

!----------------------------------------------------------------------
! Basis Set Exchange
! Version v0.8.13
! https://www.basissetexchange.org
!----------------------------------------------------------------------
!   Basis set: 6-31G(2df,p)
! Description: 6-31G(2df,p)
!        Role: orbital
!     Version: 0  (Data from the original Basis Set Exchange)
!----------------------------------------------------------------------

****
H     0
S    3   1.00
     18.7311370              0.03349460
      2.8253937              0.23472695
      0.6401217              0.81375733
S    1   1.00
      0.1612778              1.00000000
P    1   1.00
      1.5000000              1.0000000
P    1   1.00
      0.3750000              1.0000000
****
B     0
S    6   1.00
   2068.8823000              0.0018663
    310.6495700              0.0142515
     70.6830330              0.0695516
     19.8610800              0.2325729
      6.2993048              0.4670787
      2.1270270              0.3634314
SP   3   1.00
      4.7279710             -0.1303938              0.0745976
      1.1903377             -0.1307889              0.3078467
      0.3594117              1.1309444              0.7434568
SP   1   1.00
      0.1267512              1.0000000              1.0000000
D    1   1.00
      0.8020000              1.0000000
D    1   1.00
      0.2005000              1.0000000
F    1   1.00
      0.5000000              1.0000000
****
C     0
S    6   1.00
   3047.5249000              0.0018347
    457.3695100              0.0140373
    103.9486900              0.0688426
     29.2101550              0.2321844
      9.2866630              0.4679413
      3.1639270              0.3623120
SP   3   1.00
      7.8682724             -0.1193324              0.0689991
      1.8812885             -0.1608542              0.3164240
      0.5442493              1.1434564              0.7443083
SP   1   1.00
      0.1687144              1.0000000              1.0000000
D    1   1.00
      1.2520000              1.0000000
D    1   1.00
      0.3130000              1.0000000
F    1   1.00
      0.8000000              1.0000000
****
N     0
S    6   1.00
   4173.5110000              0.0018348
    627.4579000              0.0139950
    142.9021000              0.0685870
     40.2343300              0.2322410
     12.8202100              0.4690700
      4.3904370              0.3604550
SP   3   1.00
     11.6263580             -0.1149610              0.0675800
      2.7162800             -0.1691180              0.3239070
      0.7722180              1.1458520              0.7408950
SP   1   1.00
      0.2120313              1.0000000              1.0000000
D    1   1.00
      1.8260000              1.0000000
D    1   1.00
      0.4565000              1.0000000
F    1   1.00
      1.0000000              1.0000000
****
O     0
S    6   1.00
   5484.6717000              0.0018311
    825.2349500              0.0139501
    188.0469600              0.0684451
     52.9645000              0.2327143
     16.8975700              0.4701930
      5.7996353              0.3585209
SP   3   1.00
     15.5396160             -0.1107775              0.0708743
      3.5999336             -0.1480263              0.3397528
      1.0137618              1.1307670              0.7271586
SP   1   1.00
      0.2700058              1.0000000              1.0000000
D    1   1.00
      2.5840000              1.0000000
D    1   1.00
      0.6460000              1.0000000
F    1   1.00
      1.4000000              1.0000000
****
F     0
S    6   1.00
   7001.7130900              0.0018196169
   1051.3660900              0.0139160796
    239.2856900              0.0684053245
     67.3974453              0.233185760
     21.5199573              0.471267439
      7.40310130             0.356618546
SP   3   1.00
     20.8479528             -0.108506975            0.0716287243
      4.80830834            -0.146451658            0.3459121030
      1.34406986             1.128688580            0.7224699570
SP   1   1.00
      0.358151393            1.0000000              1.0000000
D    1   1.00
      3.5000000              1.0000000
D    1   1.00
      0.8750000              1.0000000
F    1   1.00
      1.8500000              1.0000000
****
Al     0
S    6   1.00
  13983.1000000              0.00194267
   2098.7500000              0.0148599
    477.7050000              0.0728494
    134.3600000              0.2468300
     42.8709000              0.4872580
     14.5189000              0.3234960
SP   6   1.00
    239.6680000             -0.00292619             0.00460285
     57.4419000             -0.0374080              0.0331990
     18.2859000             -0.1144870              0.1362820
      6.5991400              0.1156350              0.3304760
      2.4904900              0.6125950              0.4491460
      0.9445400              0.3937990              0.2657040
SP   3   1.00
      1.2779000             -0.2276060             -0.0175130
      0.3975900              0.00144583             0.2445330
      0.1600950              1.0927900              0.8049340
SP   1   1.00
      0.0556577              1.0000000              1.0000000
D    1   1.00
      0.6500000              1.0000000
D    1   1.00
      0.1625000              1.0000000
F    1   1.00
      0.2500000              1.0000000
****
Si     0
S    6   1.00
  16115.9000000              0.00195948
   2425.5800000              0.01492880
    553.8670000              0.07284780
    156.3400000              0.24613000
     50.0683000              0.48591400
     17.0178000              0.32500200
SP   6   1.00
    292.7180000             -0.00278094             0.00443826
     69.8731000             -0.03571460             0.03266790
     22.3363000             -0.11498500             0.13472100
      8.1503900              0.09356340             0.32867800
      3.1345800              0.60301700             0.44964000
      1.2254300              0.41895900             0.26137200
SP   3   1.00
      1.7273800             -0.24463000            -0.01779510
      0.5729220              0.00431572             0.25353900
      0.2221920              1.09818000             0.80066900
SP   1   1.00
      0.0778369              1.00000000             1.00000000
D    1   1.00
      0.9000000              1.0000000
D    1   1.00
      0.2250000              1.0000000
F    1   1.00
      0.3200000              1.0000000
****
P     0
S    6   1.00
  19413.3000000              0.0018516
   2909.4200000              0.0142062
    661.3640000              0.0699995
    185.7590000              0.2400790
     59.1943000              0.4847620
     20.0310000              0.3352000
SP   6   1.00
    339.4780000             -0.00278217             0.00456462
     81.0101000             -0.0360499              0.03369360
     25.8780000             -0.1166310              0.13975500
      9.4522100              0.0968328              0.33936200
      3.6656600              0.6144180              0.45092100
      1.4674600              0.4037980              0.23858600
SP   3   1.00
      2.1562300             -0.2529230             -0.01776530
      0.7489970              0.0328517              0.27405800
      0.2831450              1.0812500              0.78542100
SP   1   1.00
      0.0998317              1.0000000              1.00000000
D    1   1.00
      1.1000000              1.0000000
D    1   1.00
      0.2750000              1.0000000
F    1   1.00
      0.4500000              1.0000000
****
S     0
S    6   1.00
  21917.1000000              0.0018690
   3301.4900000              0.0142300
    754.1460000              0.0696960
    212.7110000              0.2384870
     67.9896000              0.4833070
     23.0515000              0.3380740
SP   6   1.00
    423.7350000             -0.0023767              0.0040610
    100.7100000             -0.0316930              0.0306810
     32.1599000             -0.1133170              0.1304520
     11.8079000              0.0560900              0.3272050
      4.6311000              0.5922550              0.4528510
      1.8702500              0.4550060              0.2560420
SP   3   1.00
      2.6158400             -0.2503740             -0.0145110
      0.9221670              0.0669570              0.3102630
      0.3412870              1.0545100              0.7544830
SP   1   1.00
      0.1171670              1.0000000              1.0000000
D    1   1.00
      1.3000000              1.0000000
D    1   1.00
      0.3250000              1.0000000
F    1   1.00
      0.5500000              1.0000000
****
Cl     0
S    6   1.00
  25180.1000000              0.0018330
   3780.3500000              0.0140340
    860.4740000              0.0690970
    242.1450000              0.2374520
     77.3349000              0.4830340
     26.2470000              0.3398560
SP   6   1.00
    491.7650000             -0.0022974              0.0039894
    116.9840000             -0.0307140              0.0303180
     37.4153000             -0.1125280              0.1298800
     13.7834000              0.0450160              0.3279510
      5.4521500              0.5893530              0.4535270
      2.2258800              0.4652060              0.2521540
SP   3   1.00
      3.1864900             -0.2518300             -0.0142990
      1.1442700              0.0615890              0.3235720
      0.4203770              1.0601800              0.7435070
SP   1   1.00
      0.1426570              1.0000000              1.0000000
D    1   1.00
      1.5000000              1.0000000
D    1   1.00
      0.3750000              1.0000000
F    1   1.00
      0.7000000              1.0000000
****
}

set {
reference uhf
freeze_core true
e_convergence 10
d_convergence 10
dft_spherical_points 1202
dft_radial_points 99
}

e = energy('b3lyp')

print_out('Grab this energy {0}'.format(e))
--------------------------------------------------------------------------

    Molecular point group: cs

    Geometry (in Bohr), charge = 0, multiplicity = 2:

       Center              X                  Y                   Z               Mass
    ------------   -----------------  -----------------  -----------------  -----------------
         C           -0.323244106911    -0.000023276686     0.000000000000    12.000000000000
         C            0.060910772389    -1.399496868786    -2.425607258200    12.000000000000
         C            0.061254331389     2.799560165314     0.000000000000    12.000000000000
         C            0.060910772389    -1.399496868786     2.425607258200    12.000000000000
         H            2.087448604889    -1.642177850786    -2.849383516400     1.007825032230
         H           -0.762577906011    -0.390842403886    -4.023964555200     1.007825032230
         H           -0.768291738211    -3.294429443486    -2.349397536100     1.007825032230
         H            2.085941152389     3.288157950514     0.000000000000     1.007825032230
         H           -0.765069981811     3.680137119614     1.677311397700     1.007825032230
         H           -0.765069981811     3.680137119614    -1.677311397700     1.007825032230
         H            2.087448604889    -1.642177850786     2.849383516400     1.007825032230
         H           -0.768291738211    -3.294429443486     2.349397536100     1.007825032230
         H           -0.762577906011    -0.390842403886     4.023964555200     1.007825032230

  Charge       = 0
  Multiplicity = 2
  Basis Set: ANONYMOUS556342E5
    Blend: 6-31G_2DFP_
  Basis Set: (ANONYMOUS556342E5 AUX)
    Blend: DEF2-UNIVERSAL-JKFIT

    Orbital Energies [Eh]
    ---------------------

    Alpha Occupied:

       1Ap   -10.180291     2Ap   -10.167087     1App  -10.167079
       3Ap   -10.167036     4Ap    -0.798024     2App   -0.686257
       5Ap    -0.686137     6Ap    -0.530944     7Ap    -0.441136
       8Ap    -0.434923     3App   -0.434553     9Ap    -0.382484
       4App   -0.382438     5App   -0.363411     6App   -0.338320
      10Ap    -0.337996    11Ap    -0.168982

    Alpha Virtual:

      12Ap     0.076062    13Ap     0.133982     7App    0.134209
       8App    0.142290    14Ap     0.142698    15Ap     0.154988
       9App    0.178518    16Ap     0.178706    17Ap     0.203837
      10App    0.214680    11App    0.276117    18Ap     0.276337
      19Ap     0.398972    12App    0.399471    20Ap     0.403254
      21Ap     0.423881    13App    0.424206    22Ap     0.456774
      23Ap     0.495329    14App    0.495432    15App    0.512106
      24Ap     0.513921    16App    0.578719    25Ap     0.578829
      17App    0.591390    26Ap     0.591675    27Ap     0.602527
      28Ap     0.624599    18App    0.631539    19App    0.636024
      29Ap     0.636635    20App    0.663317    30Ap     0.663737
      31Ap     0.683643    21App    0.684049    32Ap     0.734862
      22App    0.825174    33Ap     0.825681    23App    0.854051
      34Ap     0.914772    24App    0.915196    25App    0.944171
      35Ap     0.944919    36Ap     0.961154    26App    0.961301
      37Ap     1.003286    38Ap     1.127900    27App    1.128481
      39Ap     1.142639    40Ap     1.162592    28App    1.162726
      41Ap     1.223751    29App    1.274375    42Ap     1.274858
      43Ap     1.279520    30App    1.324337    44Ap     1.324767
      45Ap     1.356326    31App    1.365888    46Ap     1.366501
      32App    1.391955    33App    1.403284    47Ap     1.403375
      48Ap     1.416394    34App    1.417796    35App    1.427650
      36App    1.492021    49Ap     1.498488    50Ap     1.542977
      37App    1.543012    38App    1.574358    51Ap     1.574743
      52Ap     1.669048    39App    1.739209    53Ap     1.740621
      54Ap     1.768298    55Ap     1.830192    40App    1.831732
      41App    1.972354    56Ap     2.017773    42App    2.019207
      57Ap     2.020675    43App    2.052546    58Ap     2.053620
      44App    2.738477    59Ap     2.738843    60Ap     2.791147
      45App    2.811514    46App    2.889910    61Ap     2.890209
      62Ap     2.895346    47App    2.929320    63Ap     2.929358
      48App    2.958912    49App    2.964333    64Ap     2.964401
      65Ap     3.034183    66Ap     3.070700    50App    3.071703
      51App    3.084841    52App    3.168470    67Ap     3.169296
      68Ap     3.181183    69Ap     3.284817    53App    3.285141
      54App    3.327026    70Ap     3.327786    71Ap     3.375528
      72Ap     3.489985    55App    3.490516    56App    3.514164
      73Ap     3.525674    74Ap     3.568206    57App    3.569062
      58App    3.574984    59App    3.665166    75Ap     3.666053
      76Ap     3.679074    77Ap     3.693840    60App    3.694243
      61App    3.776760    78Ap     3.776941    79Ap     3.788832
      80Ap     3.912743    62App    3.913906    81Ap     4.035005
      63App    4.110545    82Ap     4.111575    83Ap     4.147755
      64App    4.148413    84Ap     4.174019    85Ap     4.202966
      86Ap     4.203542    65App    4.204405    66App    4.211351
      87Ap     4.315172    67App    4.316507    68App    4.358339
      69App    4.422739    88Ap     4.423835    70App    4.441488
      71App    4.516139    89Ap     4.518215    72App    4.578981
      90Ap     4.579000    91Ap     4.617924    92Ap     4.710715
      73App    4.774402    93Ap     4.776395    74App    4.838232
      94Ap     4.961554    75App    5.001716    95Ap     5.002452
      96Ap     5.227063    76App    5.246585    97Ap     5.246876
      77App    5.354403    98Ap     5.356955    78App    5.480632

    Beta Occupied:

       1Ap   -10.167842     1App  -10.167834     2Ap   -10.167810
       3Ap   -10.166479     4Ap    -0.781334     2App   -0.684056
       5Ap    -0.683932     6Ap    -0.511962     7Ap    -0.431278
       3App   -0.430904     8Ap    -0.421788     9Ap    -0.376549
       4App   -0.376512     5App   -0.362391     6App   -0.333453
      10Ap    -0.333138

    Beta Virtual:

      11Ap    -0.025912    12Ap     0.077075    13Ap     0.134856
       7App    0.135133     8App    0.144134    14Ap     0.144599
      15Ap     0.163488     9App    0.182205    16Ap     0.182392
      10App    0.214911    17Ap     0.219170    11App    0.282446
      18Ap     0.282665    19Ap     0.400145    12App    0.400651
      20Ap     0.419708    21Ap     0.426694    13App    0.427018
      22Ap     0.468759    23Ap     0.497592    14App    0.497705
      15App    0.513850    24Ap     0.556236    16App    0.584270
      25Ap     0.584376    17App    0.597537    26Ap     0.597866
      27Ap     0.609946    28Ap     0.628014    18App    0.631700
      19App    0.639346    29Ap     0.639916    20App    0.666899
      30Ap     0.667287    31Ap     0.686312    21App    0.686671
      32Ap     0.757309    22App    0.830370    33Ap     0.830853
      23App    0.855417    34Ap     0.922760    24App    0.923145
      25App    0.946015    35Ap     0.953858    36Ap     0.966452
      26App    0.966634    37Ap     1.008517    38Ap     1.131926
      27App    1.132497    39Ap     1.156056    40Ap     1.167660
      28App    1.167784    41Ap     1.232665    29App    1.279987
      42Ap     1.280504    43Ap     1.285250    30App    1.329350
      44Ap     1.329776    45Ap     1.365753    31App    1.371132
      46Ap     1.371618    32App    1.393023    33App    1.406762
      47Ap     1.406893    48Ap     1.421496    34App    1.422797
      35App    1.427906    36App    1.493083    49Ap     1.508953
      50Ap     1.547377    37App    1.547475    38App    1.582206
      51Ap     1.582598    52Ap     1.673889    39App    1.744953
      53Ap     1.746397    54Ap     1.779115    55Ap     1.834069
      40App    1.835616    41App    1.973221    42App    2.025694
      56Ap     2.026766    57Ap     2.039490    43App    2.059208
      58Ap     2.060320    44App    2.746769    59Ap     2.747159
      45App    2.811925    60Ap     2.816249    46App    2.902515
      61Ap     2.902900    62Ap     2.925094    63Ap     2.931821
      47App    2.931875    48App    2.959986    49App    2.968886
      64Ap     2.968986    65Ap     3.042160    66Ap     3.080656
      50App    3.081526    51App    3.086797    52App    3.184163
      67Ap     3.184911    68Ap     3.188843    69Ap     3.289655
      53App    3.289999    54App    3.330791    70Ap     3.331618
      71Ap     3.383379    72Ap     3.492737    55App    3.493242
      56App    3.512526    73Ap     3.528682    57App    3.574849
      74Ap     3.581395    58App    3.582410    59App    3.669861
      75Ap     3.670506    76Ap     3.692378    77Ap     3.725743
      60App    3.725805    61App    3.781316    78Ap     3.781567
      79Ap     3.817318    80Ap     3.922454    62App    3.923751
      81Ap     4.045813    63App    4.117247    82Ap     4.118701
      83Ap     4.154700    64App    4.155796    84Ap     4.188110
      85Ap     4.208939    65App    4.210294    86Ap     4.211542
      66App    4.215863    87Ap     4.322564    67App    4.323816
      68App    4.361723    69App    4.431036    88Ap     4.432098
      70App    4.444374    71App    4.523986    89Ap     4.526075
      72App    4.589568    90Ap     4.589653    91Ap     4.625137
      92Ap     4.721062    73App    4.781379    93Ap     4.783321
      74App    4.841146    94Ap     4.966371    75App    5.005780
      95Ap     5.006512    96Ap     5.232692    76App    5.248368
      97Ap     5.248788    77App    5.360920    98Ap     5.363451
      78App    5.482962

    Final Occupation by Irrep:
             Ap   App
    DOCC [    10,    6 ]
    SOCC [     1,    0 ]

  @DF-UKS Final Energy:  -157.81308141802066

   => Energetics <=

    Nuclear Repulsion Energy =            125.4225939672307817
    One-Electron Energy =                -458.8039192267779072
    Two-Electron Energy =                 195.8752739730406915
    DFT Exchange-Correlation Energy =     -20.3070301315142459
    Empirical Dispersion Energy =           0.0000000000000000
    VV10 Nonlocal Energy =                  0.0000000000000000
    Total Energy =                       -157.8130814180206585

  UHF NO Occupations:
  HONO-2 :    9 Ap 1.9995993
  HONO-1 :   10 Ap 1.9989827
  HONO-0 :   11 Ap 1.0000000
  LUNO+0 :   12 Ap 0.0010173
  LUNO+1 :   13 Ap 0.0004007
  LUNO+2 :   14 Ap 0.0001968
  LUNO+3 :    7App 0.0001968

Computation Completed

Properties will be evaluated at   0.000000,   0.000000,   0.000000 [a0]

Properties computed using the SCF density matrix

  Nuclear Dipole Moment: [e a0]
     X:     0.8279      Y:    -0.0032      Z:    -0.0000

  Electronic Dipole Moment: [e a0]
     X:    -0.7502      Y:     0.0050      Z:     0.0000

  Dipole Moment: [e a0]
     X:     0.0778      Y:     0.0018      Z:    -0.0000     Total:     0.0778

  Dipole Moment: [D]
     X:     0.1977      Y:     0.0044      Z:    -0.0000     Total:     0.1978

*** tstop() called on n033 at Fri Nov  5 13:21:50 2021
Module time:
	user time   =     594.63 seconds =       9.91 minutes
	system time =      11.18 seconds =       0.19 minutes
	total time  =        152 seconds =       2.53 minutes
Total time:
	user time   =     594.63 seconds =       9.91 minutes
	system time =      11.18 seconds =       0.19 minutes
	total time  =        152 seconds =       2.53 minutes
Grab this energy -157.81308141802066
    Psi4 stopped on: Friday, 05 November 2021 01:21PM
    Psi4 wall time for execution: 0:02:32.40

*** Psi4 exiting successfully. Buy a developer a beer!
