                               Psi4 1.4a2.dev629

  ==> Input File <==

--------------------------------------------------------------------------
import os
memory 14 GB

molecule {
 C   -0.3265086837   -0.0000026577   -0.0019975004
 C    0.0596801051   -1.4001009691   -2.4261901394
 C    0.0596942903    2.8019382959   -0.0011546429
 C    0.0599494038   -1.4018339815    2.4268824894
 H    2.0874617842   -1.6404663350   -2.8452505168
 H   -0.7646262720   -0.3901713664   -4.0275384582
 H   -0.7634219550   -3.2906814196   -2.3464391263
 H    2.0871280486    3.2883682487   -0.0040948558
 H   -0.7632495242    3.6743829325    1.6776844105
 H   -0.7659894949    3.6856328826   -1.6761013427
 H    2.0870727758   -1.6479887326    2.8500898665
 H   -0.7656670268   -3.2937663184    2.3507133809
 H   -0.7641313278   -0.3853348928    4.0233964352
units bohr
0 2
}

basis {

assign 6-31g_2dfp_

[ 6-31g_2dfp_ ]

spherical

!----------------------------------------------------------------------
! Basis Set Exchange
! Version v0.8.13
! https://www.basissetexchange.org
!----------------------------------------------------------------------
!   Basis set: 6-31G(2df,p)
! Description: 6-31G(2df,p)
!        Role: orbital
!     Version: 0  (Data from the original Basis Set Exchange)
!----------------------------------------------------------------------

****
H     0
S    3   1.00
     18.7311370              0.03349460
      2.8253937              0.23472695
      0.6401217              0.81375733
S    1   1.00
      0.1612778              1.00000000
P    1   1.00
      1.5000000              1.0000000
P    1   1.00
      0.3750000              1.0000000
****
B     0
S    6   1.00
   2068.8823000              0.0018663
    310.6495700              0.0142515
     70.6830330              0.0695516
     19.8610800              0.2325729
      6.2993048              0.4670787
      2.1270270              0.3634314
SP   3   1.00
      4.7279710             -0.1303938              0.0745976
      1.1903377             -0.1307889              0.3078467
      0.3594117              1.1309444              0.7434568
SP   1   1.00
      0.1267512              1.0000000              1.0000000
D    1   1.00
      0.8020000              1.0000000
D    1   1.00
      0.2005000              1.0000000
F    1   1.00
      0.5000000              1.0000000
****
C     0
S    6   1.00
   3047.5249000              0.0018347
    457.3695100              0.0140373
    103.9486900              0.0688426
     29.2101550              0.2321844
      9.2866630              0.4679413
      3.1639270              0.3623120
SP   3   1.00
      7.8682724             -0.1193324              0.0689991
      1.8812885             -0.1608542              0.3164240
      0.5442493              1.1434564              0.7443083
SP   1   1.00
      0.1687144              1.0000000              1.0000000
D    1   1.00
      1.2520000              1.0000000
D    1   1.00
      0.3130000              1.0000000
F    1   1.00
      0.8000000              1.0000000
****
N     0
S    6   1.00
   4173.5110000              0.0018348
    627.4579000              0.0139950
    142.9021000              0.0685870
     40.2343300              0.2322410
     12.8202100              0.4690700
      4.3904370              0.3604550
SP   3   1.00
     11.6263580             -0.1149610              0.0675800
      2.7162800             -0.1691180              0.3239070
      0.7722180              1.1458520              0.7408950
SP   1   1.00
      0.2120313              1.0000000              1.0000000
D    1   1.00
      1.8260000              1.0000000
D    1   1.00
      0.4565000              1.0000000
F    1   1.00
      1.0000000              1.0000000
****
O     0
S    6   1.00
   5484.6717000              0.0018311
    825.2349500              0.0139501
    188.0469600              0.0684451
     52.9645000              0.2327143
     16.8975700              0.4701930
      5.7996353              0.3585209
SP   3   1.00
     15.5396160             -0.1107775              0.0708743
      3.5999336             -0.1480263              0.3397528
      1.0137618              1.1307670              0.7271586
SP   1   1.00
      0.2700058              1.0000000              1.0000000
D    1   1.00
      2.5840000              1.0000000
D    1   1.00
      0.6460000              1.0000000
F    1   1.00
      1.4000000              1.0000000
****
F     0
S    6   1.00
   7001.7130900              0.0018196169
   1051.3660900              0.0139160796
    239.2856900              0.0684053245
     67.3974453              0.233185760
     21.5199573              0.471267439
      7.40310130             0.356618546
SP   3   1.00
     20.8479528             -0.108506975            0.0716287243
      4.80830834            -0.146451658            0.3459121030
      1.34406986             1.128688580            0.7224699570
SP   1   1.00
      0.358151393            1.0000000              1.0000000
D    1   1.00
      3.5000000              1.0000000
D    1   1.00
      0.8750000              1.0000000
F    1   1.00
      1.8500000              1.0000000
****
Al     0
S    6   1.00
  13983.1000000              0.00194267
   2098.7500000              0.0148599
    477.7050000              0.0728494
    134.3600000              0.2468300
     42.8709000              0.4872580
     14.5189000              0.3234960
SP   6   1.00
    239.6680000             -0.00292619             0.00460285
     57.4419000             -0.0374080              0.0331990
     18.2859000             -0.1144870              0.1362820
      6.5991400              0.1156350              0.3304760
      2.4904900              0.6125950              0.4491460
      0.9445400              0.3937990              0.2657040
SP   3   1.00
      1.2779000             -0.2276060             -0.0175130
      0.3975900              0.00144583             0.2445330
      0.1600950              1.0927900              0.8049340
SP   1   1.00
      0.0556577              1.0000000              1.0000000
D    1   1.00
      0.6500000              1.0000000
D    1   1.00
      0.1625000              1.0000000
F    1   1.00
      0.2500000              1.0000000
****
Si     0
S    6   1.00
  16115.9000000              0.00195948
   2425.5800000              0.01492880
    553.8670000              0.07284780
    156.3400000              0.24613000
     50.0683000              0.48591400
     17.0178000              0.32500200
SP   6   1.00
    292.7180000             -0.00278094             0.00443826
     69.8731000             -0.03571460             0.03266790
     22.3363000             -0.11498500             0.13472100
      8.1503900              0.09356340             0.32867800
      3.1345800              0.60301700             0.44964000
      1.2254300              0.41895900             0.26137200
SP   3   1.00
      1.7273800             -0.24463000            -0.01779510
      0.5729220              0.00431572             0.25353900
      0.2221920              1.09818000             0.80066900
SP   1   1.00
      0.0778369              1.00000000             1.00000000
D    1   1.00
      0.9000000              1.0000000
D    1   1.00
      0.2250000              1.0000000
F    1   1.00
      0.3200000              1.0000000
****
P     0
S    6   1.00
  19413.3000000              0.0018516
   2909.4200000              0.0142062
    661.3640000              0.0699995
    185.7590000              0.2400790
     59.1943000              0.4847620
     20.0310000              0.3352000
SP   6   1.00
    339.4780000             -0.00278217             0.00456462
     81.0101000             -0.0360499              0.03369360
     25.8780000             -0.1166310              0.13975500
      9.4522100              0.0968328              0.33936200
      3.6656600              0.6144180              0.45092100
      1.4674600              0.4037980              0.23858600
SP   3   1.00
      2.1562300             -0.2529230             -0.01776530
      0.7489970              0.0328517              0.27405800
      0.2831450              1.0812500              0.78542100
SP   1   1.00
      0.0998317              1.0000000              1.00000000
D    1   1.00
      1.1000000              1.0000000
D    1   1.00
      0.2750000              1.0000000
F    1   1.00
      0.4500000              1.0000000
****
S     0
S    6   1.00
  21917.1000000              0.0018690
   3301.4900000              0.0142300
    754.1460000              0.0696960
    212.7110000              0.2384870
     67.9896000              0.4833070
     23.0515000              0.3380740
SP   6   1.00
    423.7350000             -0.0023767              0.0040610
    100.7100000             -0.0316930              0.0306810
     32.1599000             -0.1133170              0.1304520
     11.8079000              0.0560900              0.3272050
      4.6311000              0.5922550              0.4528510
      1.8702500              0.4550060              0.2560420
SP   3   1.00
      2.6158400             -0.2503740             -0.0145110
      0.9221670              0.0669570              0.3102630
      0.3412870              1.0545100              0.7544830
SP   1   1.00
      0.1171670              1.0000000              1.0000000
D    1   1.00
      1.3000000              1.0000000
D    1   1.00
      0.3250000              1.0000000
F    1   1.00
      0.5500000              1.0000000
****
Cl     0
S    6   1.00
  25180.1000000              0.0018330
   3780.3500000              0.0140340
    860.4740000              0.0690970
    242.1450000              0.2374520
     77.3349000              0.4830340
     26.2470000              0.3398560
SP   6   1.00
    491.7650000             -0.0022974              0.0039894
    116.9840000             -0.0307140              0.0303180
     37.4153000             -0.1125280              0.1298800
     13.7834000              0.0450160              0.3279510
      5.4521500              0.5893530              0.4535270
      2.2258800              0.4652060              0.2521540
SP   3   1.00
      3.1864900             -0.2518300             -0.0142990
      1.1442700              0.0615890              0.3235720
      0.4203770              1.0601800              0.7435070
SP   1   1.00
      0.1426570              1.0000000              1.0000000
D    1   1.00
      1.5000000              1.0000000
D    1   1.00
      0.3750000              1.0000000
F    1   1.00
      0.7000000              1.0000000
****
}

set {
reference uhf
freeze_core true
e_convergence 10
d_convergence 10
dft_spherical_points 1202
dft_radial_points 99
}

e = energy('b3lyp')

print_out('Grab this energy {0}'.format(e))
--------------------------------------------------------------------------

    Molecular point group: c1

    Geometry (in Bohr), charge = 0, multiplicity = 2:

       Center              X                  Y                   Z               Mass
    ------------   -----------------  -----------------  -----------------  -----------------
         C           -0.325132524566    -0.000002360779    -0.001523726493    12.000000000000
         C            0.061056264234    -1.400100672179    -2.425716365493    12.000000000000
         C            0.061070449434     2.801938592821    -0.000680868993    12.000000000000
         C            0.061325562934    -1.401833684579     2.427356263307    12.000000000000
         H            2.088837943334    -1.640466038079    -2.844776742893     1.007825032230
         H           -0.763250112866    -0.390171069479    -4.027064684293     1.007825032230
         H           -0.762045795866    -3.290681122679    -2.345965352393     1.007825032230
         H            2.088504207734     3.288368545621    -0.003621081893     1.007825032230
         H           -0.761873365066     3.674383229421     1.678158184407     1.007825032230
         H           -0.764613335766     3.685633179521    -1.675627568793     1.007825032230
         H            2.088448934934    -1.647988435679     2.850563640407     1.007825032230
         H           -0.764290867666    -3.293766021479     2.351187154807     1.007825032230
         H           -0.762755168666    -0.385334595879     4.023870209107     1.007825032230

  Charge       = 0
  Multiplicity = 2
  Basis Set: ANONYMOUS87BDFEE5
    Blend: 6-31G_2DFP_
  Basis Set: (ANONYMOUS87BDFEE5 AUX)
    Blend: DEF2-UNIVERSAL-JKFIT

    Orbital Energies [Eh]
    ---------------------

    Alpha Occupied:

       1A    -10.180455     2A    -10.167198     3A    -10.167039
       4A    -10.166879     5A     -0.797713     6A     -0.686296
       7A     -0.686052     8A     -0.530797     9A     -0.440894
      10A     -0.434885    11A     -0.434745    12A     -0.382386
      13A     -0.382317    14A     -0.363893    15A     -0.338113
      16A     -0.337980    17A     -0.169076

    Alpha Virtual:

      18A      0.076090    19A      0.134128    20A      0.134194
      21A      0.142648    22A      0.142770    23A      0.154814
      24A      0.178633    25A      0.178716    26A      0.203502
      27A      0.214936    28A      0.275578    29A      0.276115
      30A      0.399171    31A      0.399243    32A      0.403311
      33A      0.424036    34A      0.424147    35A      0.456589
      36A      0.495382    37A      0.495500    38A      0.512055
      39A      0.513983    40A      0.578619    41A      0.579195
      42A      0.591033    43A      0.591621    44A      0.602266
      45A      0.624901    46A      0.631918    47A      0.636344
      48A      0.636420    49A      0.663208    50A      0.663271
      51A      0.683848    52A      0.683905    53A      0.734865
      54A      0.825016    55A      0.825447    56A      0.853963
      57A      0.914716    58A      0.914993    59A      0.944021
      60A      0.944593    61A      0.960698    62A      0.962076
      63A      1.004343    64A      1.128088    65A      1.128560
      66A      1.141849    67A      1.163055    68A      1.163224
      69A      1.222904    70A      1.274045    71A      1.274361
      72A      1.279197    73A      1.324461    74A      1.324477
      75A      1.354968    76A      1.366240    77A      1.366558
      78A      1.392530    79A      1.403115    80A      1.403740
      81A      1.416105    82A      1.416914    83A      1.427730
      84A      1.491960    85A      1.498575    86A      1.542938
      87A      1.543483    88A      1.574534    89A      1.574553
      90A      1.670365    91A      1.738837    92A      1.739582
      93A      1.768101    94A      1.831233    95A      1.832217
      96A      1.972286    97A      2.017749    98A      2.018735
      99A      2.019028   100A      2.051458   101A      2.053077
     102A      2.737874   103A      2.738431   104A      2.790711
     105A      2.811690   106A      2.889494   107A      2.890027
     108A      2.895023   109A      2.929625   110A      2.929674
     111A      2.959161   112A      2.964193   113A      2.964491
     114A      3.033969   115A      3.070531   116A      3.070798
     117A      3.084413   118A      3.168565   119A      3.168971
     120A      3.180776   121A      3.285619   122A      3.285710
     123A      3.327763   124A      3.328420   125A      3.375320
     126A      3.489814   127A      3.490120   128A      3.513565
     129A      3.525467   130A      3.567615   131A      3.568244
     132A      3.574792   133A      3.666203   134A      3.666515
     135A      3.680653   136A      3.693441   137A      3.694280
     138A      3.774681   139A      3.777177   140A      3.787834
     141A      3.912067   142A      3.912602   143A      4.033279
     144A      4.110482   145A      4.112997   146A      4.147452
     147A      4.149215   148A      4.173143   149A      4.202242
     150A      4.202711   151A      4.202814   152A      4.210756
     153A      4.314951   154A      4.316514   155A      4.359122
     156A      4.423572   157A      4.424072   158A      4.444338
     159A      4.516552   160A      4.517391   161A      4.578024
     162A      4.578690   163A      4.616654   164A      4.709040
     165A      4.773270   166A      4.775423   167A      4.836718
     168A      4.962920   169A      5.001895   170A      5.002596
     171A      5.227971   172A      5.246353   173A      5.247294
     174A      5.355234   175A      5.356673   176A      5.478840

    Beta Occupied:

       1A    -10.167956     2A    -10.167798     3A    -10.167640
       4A    -10.166634     5A     -0.781054     6A     -0.684095
       7A     -0.683867     8A     -0.511773     9A     -0.431262
      10A     -0.431141    11A     -0.421576    12A     -0.376455
      13A     -0.376395    14A     -0.362879    15A     -0.333229
      16A     -0.333105

    Beta Virtual:

      17A     -0.025891    18A      0.077100    19A      0.135059
      20A      0.135108    21A      0.144508    22A      0.144633
      23A      0.163305    24A      0.182312    25A      0.182358
      26A      0.215162    27A      0.218862    28A      0.281948
      29A      0.282465    30A      0.400349    31A      0.400420
      32A      0.419807    33A      0.426843    34A      0.426958
      35A      0.468433    36A      0.497646    37A      0.497759
      38A      0.513795    39A      0.556280    40A      0.584158
      41A      0.584737    42A      0.597243    43A      0.597803
      44A      0.609713    45A      0.628246    46A      0.632074
      47A      0.639594    48A      0.639709    49A      0.666797
      50A      0.666864    51A      0.686459    52A      0.686559
      53A      0.757394    54A      0.830183    55A      0.830658
      56A      0.855319    57A      0.922725    58A      0.922934
      59A      0.945858    60A      0.953483    61A      0.966043
      62A      0.967312    63A      1.009632    64A      1.131938
      65A      1.132557    66A      1.155240    67A      1.168266
      68A      1.168278    69A      1.231870    70A      1.279660
      71A      1.279974    72A      1.284944    73A      1.329508
      74A      1.329526    75A      1.364367    76A      1.371517
      77A      1.371773    78A      1.393601    79A      1.406533
      80A      1.407214    81A      1.421146    82A      1.421943
      83A      1.427981    84A      1.493012    85A      1.508999
      86A      1.547451    87A      1.548003    88A      1.582305
      89A      1.582317    90A      1.675197    91A      1.744599
      92A      1.745360    93A      1.778887    94A      1.835085
      95A      1.836064    96A      1.973143    97A      2.025033
      98A      2.025168    99A      2.039442   100A      2.058168
     101A      2.059840   102A      2.746229   103A      2.746754
     104A      2.812103   105A      2.815793   106A      2.902272
     107A      2.902685   108A      2.924616   109A      2.932093
     110A      2.932115   111A      2.960223   112A      2.968770
     113A      2.969033   114A      3.041944   115A      3.080474
     116A      3.080723   117A      3.086235   118A      3.184210
     119A      3.184683   120A      3.188513   121A      3.290350
     122A      3.290491   123A      3.331600   124A      3.332222
     125A      3.383101   126A      3.492570   127A      3.492839
     128A      3.511934   129A      3.528483   130A      3.574457
     131A      3.581067   132A      3.581784   133A      3.670995
     134A      3.671117   135A      3.693932   136A      3.725384
     137A      3.725617   138A      3.779291   139A      3.781697
     140A      3.816407   141A      3.921903   142A      3.922404
     143A      4.044178   144A      4.117387   145A      4.119679
     146A      4.154655   147A      4.156468   148A      4.187226
     149A      4.208619   150A      4.208743   151A      4.210226
     152A      4.215266   153A      4.322353   154A      4.323962
     155A      4.362503   156A      4.431892   157A      4.432299
     158A      4.447193   159A      4.524355   160A      4.525175
     161A      4.588603   162A      4.589263   163A      4.623777
     164A      4.719474   165A      4.780242   166A      4.782310
     167A      4.839634   168A      4.967731   169A      5.005937
     170A      5.006657   171A      5.233656   172A      5.248119
     173A      5.249077   174A      5.361676   175A      5.363157
     176A      5.481160

    Final Occupation by Irrep:
              A
    DOCC [    16 ]
    SOCC [     1 ]

  @DF-UKS Final Energy:  -157.81306207117515

   => Energetics <=

    Nuclear Repulsion Energy =            125.3858913627217362
    One-Electron Energy =                -458.7313394055823892
    Two-Electron Energy =                 195.8392738384470420
    DFT Exchange-Correlation Energy =     -20.3068878667615351
    Empirical Dispersion Energy =           0.0000000000000000
    VV10 Nonlocal Energy =                  0.0000000000000000
    Total Energy =                       -157.8130620711751533

  UHF NO Occupations:
  HONO-2 :   15  A 1.9995999
  HONO-1 :   16  A 1.9989813
  HONO-0 :   17  A 1.0000000
  LUNO+0 :   18  A 0.0010187
  LUNO+1 :   19  A 0.0004001
  LUNO+2 :   20  A 0.0001980
  LUNO+3 :   21  A 0.0001973

Computation Completed

Properties will be evaluated at   0.000000,   0.000000,   0.000000 [a0]

Properties computed using the SCF density matrix

  Nuclear Dipole Moment: [e a0]
     X:     0.8369      Y:    -0.0000      Z:     0.0033

  Electronic Dipole Moment: [e a0]
     X:    -0.7591      Y:     0.0000      Z:    -0.0034

  Dipole Moment: [e a0]
     X:     0.0778      Y:    -0.0000      Z:    -0.0000     Total:     0.0778

  Dipole Moment: [D]
     X:     0.1977      Y:    -0.0000      Z:    -0.0001     Total:     0.1977

*** tstop() called on n089 at Fri Nov  5 13:37:58 2021
Module time:
	user time   =     514.93 seconds =       8.58 minutes
	system time =       4.67 seconds =       0.08 minutes
	total time  =        131 seconds =       2.18 minutes
Total time:
	user time   =     514.93 seconds =       8.58 minutes
	system time =       4.67 seconds =       0.08 minutes
	total time  =        131 seconds =       2.18 minutes
Grab this energy -157.81306207117515
    Psi4 stopped on: Friday, 05 November 2021 01:37PM
    Psi4 wall time for execution: 0:02:10.63

*** Psi4 exiting successfully. Buy a developer a beer!
