                               Psi4 1.4a2.dev629

  ==> Input File <==

--------------------------------------------------------------------------
import os
memory 14 GB

molecule {
 C   -0.3218896745   -0.0000016698   -0.0002481782
 C    0.0593229230   -1.4010421460   -2.4265186667
 C    0.0601643525    2.8018539600    0.0001475583
 C    0.0612470297   -1.4008063261    2.4264054845
 H    2.0841718182   -1.6422411083   -2.8423724267
 H   -0.7661811772   -0.3889299907   -4.0275881655
 H   -0.7673067223   -3.2936805505   -2.3521694736
 H    2.0868482178    3.2880595104    0.0018547691
 H   -0.7664489694    3.6816722246    1.6759825286
 H   -0.7645211179    3.6788388560   -1.6771285908
 H    2.0897915463   -1.6459129478    2.8524419368
 H   -0.7635020598   -3.2904133218    2.3457578451
 H   -0.7643040430   -0.3874208037    4.0234353790
units bohr
0 2
}

basis {

assign 6-31g_2dfp_

[ 6-31g_2dfp_ ]

spherical

!----------------------------------------------------------------------
! Basis Set Exchange
! Version v0.8.13
! https://www.basissetexchange.org
!----------------------------------------------------------------------
!   Basis set: 6-31G(2df,p)
! Description: 6-31G(2df,p)
!        Role: orbital
!     Version: 0  (Data from the original Basis Set Exchange)
!----------------------------------------------------------------------

****
H     0
S    3   1.00
     18.7311370              0.03349460
      2.8253937              0.23472695
      0.6401217              0.81375733
S    1   1.00
      0.1612778              1.00000000
P    1   1.00
      1.5000000              1.0000000
P    1   1.00
      0.3750000              1.0000000
****
B     0
S    6   1.00
   2068.8823000              0.0018663
    310.6495700              0.0142515
     70.6830330              0.0695516
     19.8610800              0.2325729
      6.2993048              0.4670787
      2.1270270              0.3634314
SP   3   1.00
      4.7279710             -0.1303938              0.0745976
      1.1903377             -0.1307889              0.3078467
      0.3594117              1.1309444              0.7434568
SP   1   1.00
      0.1267512              1.0000000              1.0000000
D    1   1.00
      0.8020000              1.0000000
D    1   1.00
      0.2005000              1.0000000
F    1   1.00
      0.5000000              1.0000000
****
C     0
S    6   1.00
   3047.5249000              0.0018347
    457.3695100              0.0140373
    103.9486900              0.0688426
     29.2101550              0.2321844
      9.2866630              0.4679413
      3.1639270              0.3623120
SP   3   1.00
      7.8682724             -0.1193324              0.0689991
      1.8812885             -0.1608542              0.3164240
      0.5442493              1.1434564              0.7443083
SP   1   1.00
      0.1687144              1.0000000              1.0000000
D    1   1.00
      1.2520000              1.0000000
D    1   1.00
      0.3130000              1.0000000
F    1   1.00
      0.8000000              1.0000000
****
N     0
S    6   1.00
   4173.5110000              0.0018348
    627.4579000              0.0139950
    142.9021000              0.0685870
     40.2343300              0.2322410
     12.8202100              0.4690700
      4.3904370              0.3604550
SP   3   1.00
     11.6263580             -0.1149610              0.0675800
      2.7162800             -0.1691180              0.3239070
      0.7722180              1.1458520              0.7408950
SP   1   1.00
      0.2120313              1.0000000              1.0000000
D    1   1.00
      1.8260000              1.0000000
D    1   1.00
      0.4565000              1.0000000
F    1   1.00
      1.0000000              1.0000000
****
O     0
S    6   1.00
   5484.6717000              0.0018311
    825.2349500              0.0139501
    188.0469600              0.0684451
     52.9645000              0.2327143
     16.8975700              0.4701930
      5.7996353              0.3585209
SP   3   1.00
     15.5396160             -0.1107775              0.0708743
      3.5999336             -0.1480263              0.3397528
      1.0137618              1.1307670              0.7271586
SP   1   1.00
      0.2700058              1.0000000              1.0000000
D    1   1.00
      2.5840000              1.0000000
D    1   1.00
      0.6460000              1.0000000
F    1   1.00
      1.4000000              1.0000000
****
F     0
S    6   1.00
   7001.7130900              0.0018196169
   1051.3660900              0.0139160796
    239.2856900              0.0684053245
     67.3974453              0.233185760
     21.5199573              0.471267439
      7.40310130             0.356618546
SP   3   1.00
     20.8479528             -0.108506975            0.0716287243
      4.80830834            -0.146451658            0.3459121030
      1.34406986             1.128688580            0.7224699570
SP   1   1.00
      0.358151393            1.0000000              1.0000000
D    1   1.00
      3.5000000              1.0000000
D    1   1.00
      0.8750000              1.0000000
F    1   1.00
      1.8500000              1.0000000
****
Al     0
S    6   1.00
  13983.1000000              0.00194267
   2098.7500000              0.0148599
    477.7050000              0.0728494
    134.3600000              0.2468300
     42.8709000              0.4872580
     14.5189000              0.3234960
SP   6   1.00
    239.6680000             -0.00292619             0.00460285
     57.4419000             -0.0374080              0.0331990
     18.2859000             -0.1144870              0.1362820
      6.5991400              0.1156350              0.3304760
      2.4904900              0.6125950              0.4491460
      0.9445400              0.3937990              0.2657040
SP   3   1.00
      1.2779000             -0.2276060             -0.0175130
      0.3975900              0.00144583             0.2445330
      0.1600950              1.0927900              0.8049340
SP   1   1.00
      0.0556577              1.0000000              1.0000000
D    1   1.00
      0.6500000              1.0000000
D    1   1.00
      0.1625000              1.0000000
F    1   1.00
      0.2500000              1.0000000
****
Si     0
S    6   1.00
  16115.9000000              0.00195948
   2425.5800000              0.01492880
    553.8670000              0.07284780
    156.3400000              0.24613000
     50.0683000              0.48591400
     17.0178000              0.32500200
SP   6   1.00
    292.7180000             -0.00278094             0.00443826
     69.8731000             -0.03571460             0.03266790
     22.3363000             -0.11498500             0.13472100
      8.1503900              0.09356340             0.32867800
      3.1345800              0.60301700             0.44964000
      1.2254300              0.41895900             0.26137200
SP   3   1.00
      1.7273800             -0.24463000            -0.01779510
      0.5729220              0.00431572             0.25353900
      0.2221920              1.09818000             0.80066900
SP   1   1.00
      0.0778369              1.00000000             1.00000000
D    1   1.00
      0.9000000              1.0000000
D    1   1.00
      0.2250000              1.0000000
F    1   1.00
      0.3200000              1.0000000
****
P     0
S    6   1.00
  19413.3000000              0.0018516
   2909.4200000              0.0142062
    661.3640000              0.0699995
    185.7590000              0.2400790
     59.1943000              0.4847620
     20.0310000              0.3352000
SP   6   1.00
    339.4780000             -0.00278217             0.00456462
     81.0101000             -0.0360499              0.03369360
     25.8780000             -0.1166310              0.13975500
      9.4522100              0.0968328              0.33936200
      3.6656600              0.6144180              0.45092100
      1.4674600              0.4037980              0.23858600
SP   3   1.00
      2.1562300             -0.2529230             -0.01776530
      0.7489970              0.0328517              0.27405800
      0.2831450              1.0812500              0.78542100
SP   1   1.00
      0.0998317              1.0000000              1.00000000
D    1   1.00
      1.1000000              1.0000000
D    1   1.00
      0.2750000              1.0000000
F    1   1.00
      0.4500000              1.0000000
****
S     0
S    6   1.00
  21917.1000000              0.0018690
   3301.4900000              0.0142300
    754.1460000              0.0696960
    212.7110000              0.2384870
     67.9896000              0.4833070
     23.0515000              0.3380740
SP   6   1.00
    423.7350000             -0.0023767              0.0040610
    100.7100000             -0.0316930              0.0306810
     32.1599000             -0.1133170              0.1304520
     11.8079000              0.0560900              0.3272050
      4.6311000              0.5922550              0.4528510
      1.8702500              0.4550060              0.2560420
SP   3   1.00
      2.6158400             -0.2503740             -0.0145110
      0.9221670              0.0669570              0.3102630
      0.3412870              1.0545100              0.7544830
SP   1   1.00
      0.1171670              1.0000000              1.0000000
D    1   1.00
      1.3000000              1.0000000
D    1   1.00
      0.3250000              1.0000000
F    1   1.00
      0.5500000              1.0000000
****
Cl     0
S    6   1.00
  25180.1000000              0.0018330
   3780.3500000              0.0140340
    860.4740000              0.0690970
    242.1450000              0.2374520
     77.3349000              0.4830340
     26.2470000              0.3398560
SP   6   1.00
    491.7650000             -0.0022974              0.0039894
    116.9840000             -0.0307140              0.0303180
     37.4153000             -0.1125280              0.1298800
     13.7834000              0.0450160              0.3279510
      5.4521500              0.5893530              0.4535270
      2.2258800              0.4652060              0.2521540
SP   3   1.00
      3.1864900             -0.2518300             -0.0142990
      1.1442700              0.0615890              0.3235720
      0.4203770              1.0601800              0.7435070
SP   1   1.00
      0.1426570              1.0000000              1.0000000
D    1   1.00
      1.5000000              1.0000000
D    1   1.00
      0.3750000              1.0000000
F    1   1.00
      0.7000000              1.0000000
****
}

set {
reference uhf
freeze_core true
e_convergence 10
d_convergence 10
dft_spherical_points 1202
dft_radial_points 99
}

e = energy('b3lyp')

print_out('Grab this energy {0}'.format(e))
--------------------------------------------------------------------------

    Molecular point group: c1

    Geometry (in Bohr), charge = 0, multiplicity = 2:

       Center              X                  Y                   Z               Mass
    ------------   -----------------  -----------------  -----------------  -----------------
         C           -0.321674843422    -0.000001975830    -0.000206998374    12.000000000000
         C            0.059537754078    -1.401042452030    -2.426477486874    12.000000000000
         C            0.060379183578     2.801853653970     0.000188738126    12.000000000000
         C            0.061461860778    -1.400806632130     2.426446664326    12.000000000000
         H            2.084386649278    -1.642241414330    -2.842331246874     1.007825032230
         H           -0.765966346122    -0.388930296730    -4.027546985674     1.007825032230
         H           -0.767091891222    -3.293680856530    -2.352128293774     1.007825032230
         H            2.087063048878     3.288059204370     0.001895948926     1.007825032230
         H           -0.766234138322     3.681671918570     1.676023708426     1.007825032230
         H           -0.764306286822     3.678838549970    -1.677087410974     1.007825032230
         H            2.090006377378    -1.645913253830     2.852483116626     1.007825032230
         H           -0.763287228722    -3.290413627830     2.345799024926     1.007825032230
         H           -0.764089211922    -0.387421109730     4.023476558826     1.007825032230

  Charge       = 0
  Multiplicity = 2
  Basis Set: ANONYMOUS4A252E55
    Blend: 6-31G_2DFP_
  Basis Set: (ANONYMOUS4A252E55 AUX)
    Blend: DEF2-UNIVERSAL-JKFIT

    Orbital Energies [Eh]
    ---------------------

    Alpha Occupied:

       1A    -10.180277     2A    -10.167060     3A    -10.167028
       4A    -10.166982     5A     -0.797782     6A     -0.686234
       7A     -0.686175     8A     -0.530770     9A     -0.441068
      10A     -0.434822    11A     -0.434648    12A     -0.382716
      13A     -0.382266    14A     -0.363737    15A     -0.338243
      16A     -0.337938    17A     -0.168778

    Alpha Virtual:

      18A      0.076069    19A      0.134110    20A      0.134207
      21A      0.142445    22A      0.142857    23A      0.154800
      24A      0.178573    25A      0.178842    26A      0.203524
      27A      0.214850    28A      0.276137    29A      0.276179
      30A      0.399123    31A      0.399374    32A      0.403424
      33A      0.424023    34A      0.424228    35A      0.456501
      36A      0.495403    37A      0.495426    38A      0.512116
      39A      0.514080    40A      0.578558    41A      0.578809
      42A      0.591342    43A      0.591853    44A      0.602383
      45A      0.624844    46A      0.631810    47A      0.636198
      48A      0.636637    49A      0.663213    50A      0.663295
      51A      0.683848    52A      0.684075    53A      0.735189
      54A      0.825402    55A      0.825521    56A      0.853914
      57A      0.914771    58A      0.915406    59A      0.944061
      60A      0.944565    61A      0.961206    62A      0.961367
      63A      1.003451    64A      1.127609    65A      1.128421
      66A      1.142188    67A      1.162687    68A      1.163002
      69A      1.223488    70A      1.274444    71A      1.274651
      72A      1.279130    73A      1.324534    74A      1.324676
      75A      1.355739    76A      1.366431    77A      1.366442
      78A      1.392445    79A      1.403517    80A      1.404481
      81A      1.416516    82A      1.417213    83A      1.427874
      84A      1.491684    85A      1.498668    86A      1.542774
      87A      1.542803    88A      1.574249    89A      1.575224
      90A      1.670097    91A      1.739558    92A      1.739745
      93A      1.768273    94A      1.831356    95A      1.832218
      96A      1.971984    97A      2.018672    98A      2.018831
      99A      2.019307   100A      2.051789   101A      2.052708
     102A      2.738670   103A      2.738693   104A      2.790727
     105A      2.811460   106A      2.890023   107A      2.890350
     108A      2.894668   109A      2.929166   110A      2.929783
     111A      2.959057   112A      2.964308   113A      2.964671
     114A      3.033649   115A      3.071483   116A      3.072772
     117A      3.084424   118A      3.168435   119A      3.168895
     120A      3.180614   121A      3.284400   122A      3.284632
     123A      3.325938   124A      3.327685   125A      3.375449
     126A      3.489327   127A      3.491451   128A      3.514189
     129A      3.524872   130A      3.568492   131A      3.568702
     132A      3.574694   133A      3.666505   134A      3.667386
     135A      3.679886   136A      3.693397   137A      3.694699
     138A      3.777016   139A      3.777147   140A      3.790434
     141A      3.912125   142A      3.912378   143A      4.034760
     144A      4.111481   145A      4.111731   146A      4.148123
     147A      4.148169   148A      4.173284   149A      4.202200
     150A      4.202847   151A      4.203583   152A      4.210782
     153A      4.315570   154A      4.315954   155A      4.358495
     156A      4.424537   157A      4.424711   158A      4.443667
     159A      4.515904   160A      4.517149   161A      4.578157
     162A      4.578174   163A      4.618076   164A      4.709074
     165A      4.774161   166A      4.775345   167A      4.838105
     168A      4.962766   169A      5.002253   170A      5.003356
     171A      5.228174   172A      5.246370   173A      5.247466
     174A      5.355727   175A      5.355845   176A      5.479711

    Beta Occupied:

       1A    -10.167814     2A    -10.167787     3A    -10.167754
       4A    -10.166459     5A     -0.781103     6A     -0.684034
       7A     -0.683985     8A     -0.511750     9A     -0.431214
      10A     -0.431018    11A     -0.421735    12A     -0.376797
      13A     -0.376334    14A     -0.362722    15A     -0.333351
      16A     -0.333069

    Beta Virtual:

      17A     -0.025642    18A      0.077083    19A      0.135018
      20A      0.135100    21A      0.144335    22A      0.144703
      23A      0.163270    24A      0.182239    25A      0.182518
      26A      0.215079    27A      0.218928    28A      0.282468
      29A      0.282520    30A      0.400296    31A      0.400540
      32A      0.419898    33A      0.426830    34A      0.427038
      35A      0.468395    36A      0.497658    37A      0.497683
      38A      0.513856    39A      0.556425    40A      0.584116
      41A      0.584379    42A      0.597512    43A      0.598033
      44A      0.609827    45A      0.628198    46A      0.631975
      47A      0.639477    48A      0.639910    49A      0.666766
      50A      0.666865    51A      0.686505    52A      0.686699
      53A      0.757692    54A      0.830570    55A      0.830683
      56A      0.855271    57A      0.922759    58A      0.923341
      59A      0.945903    60A      0.953497    61A      0.966559
      62A      0.966693    63A      1.008672    64A      1.131675
      65A      1.132396    66A      1.155591    67A      1.167733
      68A      1.168115    69A      1.232463    70A      1.280039
      71A      1.280220    72A      1.284874    73A      1.329509
      74A      1.329663    75A      1.365168    76A      1.371669
      77A      1.371712    78A      1.393510    79A      1.406977
      80A      1.407955    81A      1.421587    82A      1.422272
      83A      1.428150    84A      1.492734    85A      1.509102
      86A      1.547093    87A      1.547310    88A      1.582029
      89A      1.583183    90A      1.674928    91A      1.745325
      92A      1.745506    93A      1.779072    94A      1.835224
      95A      1.836077    96A      1.972845    97A      2.025101
      98A      2.025221    99A      2.040669   100A      2.058472
     101A      2.059417   102A      2.746994   103A      2.747041
     104A      2.811864   105A      2.815882   106A      2.902659
     107A      2.903032   108A      2.924360   109A      2.931672
     110A      2.932265   111A      2.960125   112A      2.968840
     113A      2.969203   114A      3.041625   115A      3.081311
     116A      3.082684   117A      3.086245   118A      3.184288
     119A      3.184751   120A      3.188238   121A      3.289201
     122A      3.289506   123A      3.329744   124A      3.331471
     125A      3.383257   126A      3.492062   127A      3.494141
     128A      3.512549   129A      3.527909   130A      3.574280
     131A      3.581881   132A      3.582176   133A      3.671289
     134A      3.672140   135A      3.693175   136A      3.725273
     137A      3.726086   138A      3.781530   139A      3.781614
     140A      3.818974   141A      3.921974   142A      3.922238
     143A      4.045619   144A      4.118340   145A      4.118536
     146A      4.155234   147A      4.155445   148A      4.187383
     149A      4.208323   150A      4.209013   151A      4.211126
     152A      4.215276   153A      4.323019   154A      4.323346
     155A      4.361855   156A      4.432784   157A      4.432979
     158A      4.446545   159A      4.523719   160A      4.524951
     161A      4.588710   162A      4.588755   163A      4.625277
     164A      4.719393   165A      4.781071   166A      4.782314
     167A      4.841011   168A      4.967564   169A      5.006321
     170A      5.007394   171A      5.233889   172A      5.248155
     173A      5.249248   174A      5.362206   175A      5.362310
     176A      5.482026

    Final Occupation by Irrep:
              A
    DOCC [    16 ]
    SOCC [     1 ]

  @DF-UKS Final Energy:  -157.81307511622975

   => Energetics <=

    Nuclear Repulsion Energy =            125.3970311254820729
    One-Electron Energy =                -458.7535517029936614
    Two-Electron Energy =                 195.8506569509770259
    DFT Exchange-Correlation Energy =     -20.3072114896952343
    Empirical Dispersion Energy =           0.0000000000000000
    VV10 Nonlocal Energy =                  0.0000000000000000
    Total Energy =                       -157.8130751162297543

  UHF NO Occupations:
  HONO-2 :   15  A 1.9995994
  HONO-1 :   16  A 1.9989790
  HONO-0 :   17  A 1.0000000
  LUNO+0 :   18  A 0.0010210
  LUNO+1 :   19  A 0.0004006
  LUNO+2 :   20  A 0.0001976
  LUNO+3 :   21  A 0.0001973

Computation Completed

Properties will be evaluated at   0.000000,   0.000000,   0.000000 [a0]

Properties computed using the SCF density matrix

  Nuclear Dipole Moment: [e a0]
     X:     0.8287      Y:    -0.0000      Z:     0.0003

  Electronic Dipole Moment: [e a0]
     X:    -0.7516      Y:     0.0000      Z:    -0.0011

  Dipole Moment: [e a0]
     X:     0.0771      Y:     0.0000      Z:    -0.0008     Total:     0.0771

  Dipole Moment: [D]
     X:     0.1961      Y:     0.0000      Z:    -0.0020     Total:     0.1961

*** tstop() called on n066 at Fri Nov  5 11:37:13 2021
Module time:
	user time   =     507.07 seconds =       8.45 minutes
	system time =      11.26 seconds =       0.19 minutes
	total time  =        130 seconds =       2.17 minutes
Total time:
	user time   =     507.07 seconds =       8.45 minutes
	system time =      11.26 seconds =       0.19 minutes
	total time  =        130 seconds =       2.17 minutes
Grab this energy -157.81307511622975
    Psi4 stopped on: Friday, 05 November 2021 11:37AM
    Psi4 wall time for execution: 0:02:10.39

*** Psi4 exiting successfully. Buy a developer a beer!
