                               Psi4 1.4a2.dev629

  ==> Input File <==

--------------------------------------------------------------------------
import os
memory 14 GB

molecule {
 C   -0.3233382821   -0.0053457553   -0.0019986555
 C    0.0609317369   -1.4008591128   -2.4255769710
 C    0.0611676021    2.8017035902   -0.0011535412
 C    0.0612000551   -1.4025875618    2.4262682712
 H    2.0872452448   -1.6394407444   -2.8451943319
 H   -0.7648988289   -0.3900924084   -4.0282466881
 H   -0.7651391782   -3.2895042324   -2.3460701895
 H    2.0865575326    3.2887098304   -0.0040924122
 H   -0.7643252651    3.6754618500    1.6769008586
 H   -0.7670721513    3.6867070846   -1.6753013539
 H    2.0868592033   -1.6469524070    2.8500308257
 H   -0.7673905279   -3.2925781721    2.3503339051
 H   -0.7644050180   -0.3852462745    4.0241002827
units bohr
0 2
}

basis {

assign 6-31g_2dfp_

[ 6-31g_2dfp_ ]

spherical

!----------------------------------------------------------------------
! Basis Set Exchange
! Version v0.8.13
! https://www.basissetexchange.org
!----------------------------------------------------------------------
!   Basis set: 6-31G(2df,p)
! Description: 6-31G(2df,p)
!        Role: orbital
!     Version: 0  (Data from the original Basis Set Exchange)
!----------------------------------------------------------------------

****
H     0
S    3   1.00
     18.7311370              0.03349460
      2.8253937              0.23472695
      0.6401217              0.81375733
S    1   1.00
      0.1612778              1.00000000
P    1   1.00
      1.5000000              1.0000000
P    1   1.00
      0.3750000              1.0000000
****
B     0
S    6   1.00
   2068.8823000              0.0018663
    310.6495700              0.0142515
     70.6830330              0.0695516
     19.8610800              0.2325729
      6.2993048              0.4670787
      2.1270270              0.3634314
SP   3   1.00
      4.7279710             -0.1303938              0.0745976
      1.1903377             -0.1307889              0.3078467
      0.3594117              1.1309444              0.7434568
SP   1   1.00
      0.1267512              1.0000000              1.0000000
D    1   1.00
      0.8020000              1.0000000
D    1   1.00
      0.2005000              1.0000000
F    1   1.00
      0.5000000              1.0000000
****
C     0
S    6   1.00
   3047.5249000              0.0018347
    457.3695100              0.0140373
    103.9486900              0.0688426
     29.2101550              0.2321844
      9.2866630              0.4679413
      3.1639270              0.3623120
SP   3   1.00
      7.8682724             -0.1193324              0.0689991
      1.8812885             -0.1608542              0.3164240
      0.5442493              1.1434564              0.7443083
SP   1   1.00
      0.1687144              1.0000000              1.0000000
D    1   1.00
      1.2520000              1.0000000
D    1   1.00
      0.3130000              1.0000000
F    1   1.00
      0.8000000              1.0000000
****
N     0
S    6   1.00
   4173.5110000              0.0018348
    627.4579000              0.0139950
    142.9021000              0.0685870
     40.2343300              0.2322410
     12.8202100              0.4690700
      4.3904370              0.3604550
SP   3   1.00
     11.6263580             -0.1149610              0.0675800
      2.7162800             -0.1691180              0.3239070
      0.7722180              1.1458520              0.7408950
SP   1   1.00
      0.2120313              1.0000000              1.0000000
D    1   1.00
      1.8260000              1.0000000
D    1   1.00
      0.4565000              1.0000000
F    1   1.00
      1.0000000              1.0000000
****
O     0
S    6   1.00
   5484.6717000              0.0018311
    825.2349500              0.0139501
    188.0469600              0.0684451
     52.9645000              0.2327143
     16.8975700              0.4701930
      5.7996353              0.3585209
SP   3   1.00
     15.5396160             -0.1107775              0.0708743
      3.5999336             -0.1480263              0.3397528
      1.0137618              1.1307670              0.7271586
SP   1   1.00
      0.2700058              1.0000000              1.0000000
D    1   1.00
      2.5840000              1.0000000
D    1   1.00
      0.6460000              1.0000000
F    1   1.00
      1.4000000              1.0000000
****
F     0
S    6   1.00
   7001.7130900              0.0018196169
   1051.3660900              0.0139160796
    239.2856900              0.0684053245
     67.3974453              0.233185760
     21.5199573              0.471267439
      7.40310130             0.356618546
SP   3   1.00
     20.8479528             -0.108506975            0.0716287243
      4.80830834            -0.146451658            0.3459121030
      1.34406986             1.128688580            0.7224699570
SP   1   1.00
      0.358151393            1.0000000              1.0000000
D    1   1.00
      3.5000000              1.0000000
D    1   1.00
      0.8750000              1.0000000
F    1   1.00
      1.8500000              1.0000000
****
Al     0
S    6   1.00
  13983.1000000              0.00194267
   2098.7500000              0.0148599
    477.7050000              0.0728494
    134.3600000              0.2468300
     42.8709000              0.4872580
     14.5189000              0.3234960
SP   6   1.00
    239.6680000             -0.00292619             0.00460285
     57.4419000             -0.0374080              0.0331990
     18.2859000             -0.1144870              0.1362820
      6.5991400              0.1156350              0.3304760
      2.4904900              0.6125950              0.4491460
      0.9445400              0.3937990              0.2657040
SP   3   1.00
      1.2779000             -0.2276060             -0.0175130
      0.3975900              0.00144583             0.2445330
      0.1600950              1.0927900              0.8049340
SP   1   1.00
      0.0556577              1.0000000              1.0000000
D    1   1.00
      0.6500000              1.0000000
D    1   1.00
      0.1625000              1.0000000
F    1   1.00
      0.2500000              1.0000000
****
Si     0
S    6   1.00
  16115.9000000              0.00195948
   2425.5800000              0.01492880
    553.8670000              0.07284780
    156.3400000              0.24613000
     50.0683000              0.48591400
     17.0178000              0.32500200
SP   6   1.00
    292.7180000             -0.00278094             0.00443826
     69.8731000             -0.03571460             0.03266790
     22.3363000             -0.11498500             0.13472100
      8.1503900              0.09356340             0.32867800
      3.1345800              0.60301700             0.44964000
      1.2254300              0.41895900             0.26137200
SP   3   1.00
      1.7273800             -0.24463000            -0.01779510
      0.5729220              0.00431572             0.25353900
      0.2221920              1.09818000             0.80066900
SP   1   1.00
      0.0778369              1.00000000             1.00000000
D    1   1.00
      0.9000000              1.0000000
D    1   1.00
      0.2250000              1.0000000
F    1   1.00
      0.3200000              1.0000000
****
P     0
S    6   1.00
  19413.3000000              0.0018516
   2909.4200000              0.0142062
    661.3640000              0.0699995
    185.7590000              0.2400790
     59.1943000              0.4847620
     20.0310000              0.3352000
SP   6   1.00
    339.4780000             -0.00278217             0.00456462
     81.0101000             -0.0360499              0.03369360
     25.8780000             -0.1166310              0.13975500
      9.4522100              0.0968328              0.33936200
      3.6656600              0.6144180              0.45092100
      1.4674600              0.4037980              0.23858600
SP   3   1.00
      2.1562300             -0.2529230             -0.01776530
      0.7489970              0.0328517              0.27405800
      0.2831450              1.0812500              0.78542100
SP   1   1.00
      0.0998317              1.0000000              1.00000000
D    1   1.00
      1.1000000              1.0000000
D    1   1.00
      0.2750000              1.0000000
F    1   1.00
      0.4500000              1.0000000
****
S     0
S    6   1.00
  21917.1000000              0.0018690
   3301.4900000              0.0142300
    754.1460000              0.0696960
    212.7110000              0.2384870
     67.9896000              0.4833070
     23.0515000              0.3380740
SP   6   1.00
    423.7350000             -0.0023767              0.0040610
    100.7100000             -0.0316930              0.0306810
     32.1599000             -0.1133170              0.1304520
     11.8079000              0.0560900              0.3272050
      4.6311000              0.5922550              0.4528510
      1.8702500              0.4550060              0.2560420
SP   3   1.00
      2.6158400             -0.2503740             -0.0145110
      0.9221670              0.0669570              0.3102630
      0.3412870              1.0545100              0.7544830
SP   1   1.00
      0.1171670              1.0000000              1.0000000
D    1   1.00
      1.3000000              1.0000000
D    1   1.00
      0.3250000              1.0000000
F    1   1.00
      0.5500000              1.0000000
****
Cl     0
S    6   1.00
  25180.1000000              0.0018330
   3780.3500000              0.0140340
    860.4740000              0.0690970
    242.1450000              0.2374520
     77.3349000              0.4830340
     26.2470000              0.3398560
SP   6   1.00
    491.7650000             -0.0022974              0.0039894
    116.9840000             -0.0307140              0.0303180
     37.4153000             -0.1125280              0.1298800
     13.7834000              0.0450160              0.3279510
      5.4521500              0.5893530              0.4535270
      2.2258800              0.4652060              0.2521540
SP   3   1.00
      3.1864900             -0.2518300             -0.0142990
      1.1442700              0.0615890              0.3235720
      0.4203770              1.0601800              0.7435070
SP   1   1.00
      0.1426570              1.0000000              1.0000000
D    1   1.00
      1.5000000              1.0000000
D    1   1.00
      0.3750000              1.0000000
F    1   1.00
      0.7000000              1.0000000
****
}

set {
reference uhf
freeze_core true
e_convergence 10
d_convergence 10
dft_spherical_points 1202
dft_radial_points 99
}

e = energy('b3lyp')

print_out('Grab this energy {0}'.format(e))
--------------------------------------------------------------------------

    Molecular point group: c1

    Geometry (in Bohr), charge = 0, multiplicity = 2:

       Center              X                  Y                   Z               Mass
    ------------   -----------------  -----------------  -----------------  -----------------
         C           -0.323338493360    -0.003979964356    -0.001524669109    12.000000000000
         C            0.060931525640    -1.399493321856    -2.425102984609    12.000000000000
         C            0.061167390840     2.803069381144    -0.000679554809    12.000000000000
         C            0.061199843840    -1.401221770856     2.426742257591    12.000000000000
         H            2.087245033540    -1.638074953456    -2.844720345509     1.007825032230
         H           -0.764899040160    -0.388726617456    -4.027772701709     1.007825032230
         H           -0.765139389460    -3.288138441456    -2.345596203109     1.007825032230
         H            2.086557321340     3.290075621344    -0.003618425809     1.007825032230
         H           -0.764325476360     3.676827640944     1.677374844991     1.007825032230
         H           -0.767072362560     3.688072875544    -1.674827367509     1.007825032230
         H            2.086858992040    -1.645586616056     2.850504812091     1.007825032230
         H           -0.767390739160    -3.291212381156     2.350807891491     1.007825032230
         H           -0.764405229260    -0.383880483556     4.024574269091     1.007825032230

  Charge       = 0
  Multiplicity = 2
  Basis Set: ANONYMOUSF575AD8E
    Blend: 6-31G_2DFP_
  Basis Set: (ANONYMOUSF575AD8E AUX)
    Blend: DEF2-UNIVERSAL-JKFIT

    Orbital Energies [Eh]
    ---------------------

    Alpha Occupied:

       1A    -10.180341     2A    -10.167158     3A    -10.167047
       4A    -10.166838     5A     -0.797770     6A     -0.686411
       7A     -0.685962     8A     -0.530775     9A     -0.441136
      10A     -0.434892    11A     -0.434442    12A     -0.382722
      13A     -0.382479    14A     -0.363609    15A     -0.338522
      16A     -0.337472    17A     -0.168960

    Alpha Virtual:

      18A      0.076072    19A      0.134121    20A      0.134190
      21A      0.142440    22A      0.142810    23A      0.154880
      24A      0.178737    25A      0.178820    26A      0.203544
      27A      0.214804    28A      0.275592    29A      0.276377
      30A      0.399098    31A      0.399352    32A      0.403353
      33A      0.424044    34A      0.424152    35A      0.456593
      36A      0.495312    37A      0.495467    38A      0.512159
      39A      0.513978    40A      0.578463    41A      0.579164
      42A      0.591348    43A      0.591932    44A      0.602579
      45A      0.624747    46A      0.631775    47A      0.636111
      48A      0.636408    49A      0.663338    50A      0.663487
      51A      0.683794    52A      0.683911    53A      0.734993
      54A      0.825166    55A      0.825646    56A      0.853916
      57A      0.914840    58A      0.915190    59A      0.944123
      60A      0.944619    61A      0.960585    62A      0.962007
      63A      1.003463    64A      1.127736    65A      1.128427
      66A      1.142263    67A      1.162870    68A      1.163682
      69A      1.223330    70A      1.274001    71A      1.274979
      72A      1.279345    73A      1.324260    74A      1.324453
      75A      1.355997    76A      1.365741    77A      1.366367
      78A      1.392441    79A      1.403721    80A      1.404376
      81A      1.416604    82A      1.417627    83A      1.427924
      84A      1.491491    85A      1.499078    86A      1.542559
      87A      1.543105    88A      1.574425    89A      1.574465
      90A      1.669829    91A      1.739001    92A      1.739848
      93A      1.768309    94A      1.830838    95A      1.831954
      96A      1.971732    97A      2.017848    98A      2.018924
      99A      2.019629   100A      2.051683   101A      2.053612
     102A      2.738118   103A      2.738850   104A      2.790931
     105A      2.811413   106A      2.889339   107A      2.890522
     108A      2.894992   109A      2.929102   110A      2.929894
     111A      2.958990   112A      2.964169   113A      2.964588
     114A      3.034001   115A      3.070777   116A      3.071803
     117A      3.084349   118A      3.168558   119A      3.168958
     120A      3.180655   121A      3.285010   122A      3.285614
     123A      3.326651   124A      3.327656   125A      3.375607
     126A      3.489598   127A      3.490670   128A      3.514033
     129A      3.525315   130A      3.567977   131A      3.568726
     132A      3.575245   133A      3.666003   134A      3.666719
     135A      3.679634   136A      3.693737   137A      3.694540
     138A      3.775330   139A      3.778257   140A      3.789204
     141A      3.911700   142A      3.912767   143A      4.034431
     144A      4.110058   145A      4.112652   146A      4.146791
     147A      4.149412   148A      4.173300   149A      4.202053
     150A      4.203239   151A      4.203489   152A      4.210890
     153A      4.314980   154A      4.316914   155A      4.359033
     156A      4.424190   157A      4.424707   158A      4.443459
     159A      4.516401   160A      4.517264   161A      4.577850
     162A      4.578368   163A      4.617829   164A      4.709467
     165A      4.773438   166A      4.775777   167A      4.836940
     168A      4.962821   169A      5.002520   170A      5.003441
     171A      5.228038   172A      5.246341   173A      5.247299
     174A      5.354588   175A      5.356415   176A      5.479355

    Beta Occupied:

       1A    -10.167918     2A    -10.167804     3A    -10.167602
       4A    -10.166519     5A     -0.781095     6A     -0.684200
       7A     -0.683779     8A     -0.511747     9A     -0.431264
      10A     -0.430829    11A     -0.421815    12A     -0.376768
      13A     -0.376604    14A     -0.362592    15A     -0.333654
      16A     -0.332586

    Beta Virtual:

      17A     -0.025743    18A      0.077081    19A      0.135021
      20A      0.135068    21A      0.144320    22A      0.144673
      23A      0.163339    24A      0.182420    25A      0.182479
      26A      0.215034    27A      0.218927    28A      0.281972
      29A      0.282693    30A      0.400270    31A      0.400526
      32A      0.419790    33A      0.426854    34A      0.426967
      35A      0.468500    36A      0.497573    37A      0.497727
      38A      0.513895    39A      0.556320    40A      0.584001
      41A      0.584729    42A      0.597540    43A      0.598098
      44A      0.610001    45A      0.628123    46A      0.631931
      47A      0.639380    48A      0.639712    49A      0.666906
      50A      0.667046    51A      0.686415    52A      0.686561
      53A      0.757516    54A      0.830316    55A      0.830833
      56A      0.855269    57A      0.922813    58A      0.923158
      59A      0.945961    60A      0.953543    61A      0.965942
      62A      0.967267    63A      1.008704    64A      1.131746
      65A      1.132493    66A      1.155624    67A      1.167960
      68A      1.168735    69A      1.232302    70A      1.279649
      71A      1.280528    72A      1.285098    73A      1.329259
      74A      1.329432    75A      1.365412    76A      1.371042
      77A      1.371554    78A      1.393502    79A      1.407148
      80A      1.407875    81A      1.421662    82A      1.422667
      83A      1.428197    84A      1.492539    85A      1.509522
      86A      1.546966    87A      1.547514    88A      1.582308
      89A      1.582326    90A      1.674676    91A      1.744753
      92A      1.745620    93A      1.779087    94A      1.834688
      95A      1.835814    96A      1.972591    97A      2.024870
      98A      2.026015    99A      2.039691   100A      2.058383
     101A      2.060347   102A      2.746446   103A      2.747195
     104A      2.811826   105A      2.816064   106A      2.902131
     107A      2.903144   108A      2.924658   109A      2.931532
     110A      2.932430   111A      2.960054   112A      2.968725
     113A      2.969119   114A      3.041937   115A      3.080761
     116A      3.081636   117A      3.086165   118A      3.184209
     119A      3.184693   120A      3.188451   121A      3.289844
     122A      3.290378   123A      3.330465   124A      3.331451
     125A      3.383426   126A      3.492321   127A      3.493399
     128A      3.512406   129A      3.528368   130A      3.574907
     131A      3.581386   132A      3.582187   133A      3.670887
     134A      3.671361   135A      3.692930   136A      3.725580
     137A      3.725930   138A      3.779916   139A      3.782745
     140A      3.817720   141A      3.921532   142A      3.922574
     143A      4.045318   144A      4.116994   145A      4.119352
     146A      4.154002   147A      4.156624   148A      4.187352
     149A      4.208420   150A      4.209401   151A      4.210795
     152A      4.215371   153A      4.322359   154A      4.324407
     155A      4.362402   156A      4.432456   157A      4.432864
     158A      4.446353   159A      4.524183   160A      4.525061
     161A      4.588450   162A      4.588943   163A      4.625048
     164A      4.719813   165A      4.780409   166A      4.782713
     167A      4.839859   168A      4.967612   169A      5.006560
     170A      5.007483   171A      5.233754   172A      5.248118
     173A      5.249091   174A      5.361036   175A      5.362929
     176A      5.481677

    Final Occupation by Irrep:
              A
    DOCC [    16 ]
    SOCC [     1 ]

  @DF-UKS Final Energy:  -157.81306054343014

   => Energetics <=

    Nuclear Repulsion Energy =            125.3947107199908544
    One-Electron Energy =                -458.7490600145157487
    Two-Electron Energy =                 195.8484352612537407
    DFT Exchange-Correlation Energy =     -20.3071465101589546
    Empirical Dispersion Energy =           0.0000000000000000
    VV10 Nonlocal Energy =                  0.0000000000000000
    Total Energy =                       -157.8130605434301401

  UHF NO Occupations:
  HONO-2 :   15  A 1.9996009
  HONO-1 :   16  A 1.9989804
  HONO-0 :   17  A 1.0000000
  LUNO+0 :   18  A 0.0010196
  LUNO+1 :   19  A 0.0003991
  LUNO+2 :   20  A 0.0001987
  LUNO+3 :   21  A 0.0001964

Computation Completed

Properties will be evaluated at   0.000000,   0.000000,   0.000000 [a0]

Properties computed using the SCF density matrix

  Nuclear Dipole Moment: [e a0]
     X:     0.8272      Y:     0.0096      Z:     0.0033

  Electronic Dipole Moment: [e a0]
     X:    -0.7493      Y:    -0.0108      Z:    -0.0034

  Dipole Moment: [e a0]
     X:     0.0779      Y:    -0.0012      Z:    -0.0000     Total:     0.0779

  Dipole Moment: [D]
     X:     0.1980      Y:    -0.0031      Z:    -0.0001     Total:     0.1981

*** tstop() called on n059 at Fri Nov  5 13:49:15 2021
Module time:
	user time   =     575.25 seconds =       9.59 minutes
	system time =      12.63 seconds =       0.21 minutes
	total time  =        148 seconds =       2.47 minutes
Total time:
	user time   =     575.25 seconds =       9.59 minutes
	system time =      12.63 seconds =       0.21 minutes
	total time  =        148 seconds =       2.47 minutes
Grab this energy -157.81306054343014
    Psi4 stopped on: Friday, 05 November 2021 01:49PM
    Psi4 wall time for execution: 0:02:27.77

*** Psi4 exiting successfully. Buy a developer a beer!
