                               Psi4 1.4a2.dev629

  ==> Input File <==

--------------------------------------------------------------------------
import os
memory 14 GB

molecule {
 C   -0.3265066381   -0.0000033458    0.0053442409
 C    0.0599448219   -1.4014199095   -2.4262181598
 C    0.0596945191    2.8019347818    0.0011074761
 C    0.0596847673   -1.4005099289    2.4268569928
 H    2.0870658004   -1.6440537643   -2.8483746251
 H   -0.7640089708   -0.3882983249   -4.0264780159
 H   -0.7650081212   -3.2917583062   -2.3491774887
 H    2.0871298790    3.2883623560   -0.0010055695
 H   -0.7654565076    3.6791451641    1.6761731276
 H   -0.7637875522    3.6808606557   -1.6776311407
 H    2.0874743375   -1.6444011763    2.8469652400
 H   -0.7640822092   -3.2926848677    2.3479738821
 H   -0.7647520028   -0.3871976476    4.0244640401
units bohr
0 2
}

basis {

assign 6-31g_2dfp_

[ 6-31g_2dfp_ ]

spherical

!----------------------------------------------------------------------
! Basis Set Exchange
! Version v0.8.13
! https://www.basissetexchange.org
!----------------------------------------------------------------------
!   Basis set: 6-31G(2df,p)
! Description: 6-31G(2df,p)
!        Role: orbital
!     Version: 0  (Data from the original Basis Set Exchange)
!----------------------------------------------------------------------

****
H     0
S    3   1.00
     18.7311370              0.03349460
      2.8253937              0.23472695
      0.6401217              0.81375733
S    1   1.00
      0.1612778              1.00000000
P    1   1.00
      1.5000000              1.0000000
P    1   1.00
      0.3750000              1.0000000
****
B     0
S    6   1.00
   2068.8823000              0.0018663
    310.6495700              0.0142515
     70.6830330              0.0695516
     19.8610800              0.2325729
      6.2993048              0.4670787
      2.1270270              0.3634314
SP   3   1.00
      4.7279710             -0.1303938              0.0745976
      1.1903377             -0.1307889              0.3078467
      0.3594117              1.1309444              0.7434568
SP   1   1.00
      0.1267512              1.0000000              1.0000000
D    1   1.00
      0.8020000              1.0000000
D    1   1.00
      0.2005000              1.0000000
F    1   1.00
      0.5000000              1.0000000
****
C     0
S    6   1.00
   3047.5249000              0.0018347
    457.3695100              0.0140373
    103.9486900              0.0688426
     29.2101550              0.2321844
      9.2866630              0.4679413
      3.1639270              0.3623120
SP   3   1.00
      7.8682724             -0.1193324              0.0689991
      1.8812885             -0.1608542              0.3164240
      0.5442493              1.1434564              0.7443083
SP   1   1.00
      0.1687144              1.0000000              1.0000000
D    1   1.00
      1.2520000              1.0000000
D    1   1.00
      0.3130000              1.0000000
F    1   1.00
      0.8000000              1.0000000
****
N     0
S    6   1.00
   4173.5110000              0.0018348
    627.4579000              0.0139950
    142.9021000              0.0685870
     40.2343300              0.2322410
     12.8202100              0.4690700
      4.3904370              0.3604550
SP   3   1.00
     11.6263580             -0.1149610              0.0675800
      2.7162800             -0.1691180              0.3239070
      0.7722180              1.1458520              0.7408950
SP   1   1.00
      0.2120313              1.0000000              1.0000000
D    1   1.00
      1.8260000              1.0000000
D    1   1.00
      0.4565000              1.0000000
F    1   1.00
      1.0000000              1.0000000
****
O     0
S    6   1.00
   5484.6717000              0.0018311
    825.2349500              0.0139501
    188.0469600              0.0684451
     52.9645000              0.2327143
     16.8975700              0.4701930
      5.7996353              0.3585209
SP   3   1.00
     15.5396160             -0.1107775              0.0708743
      3.5999336             -0.1480263              0.3397528
      1.0137618              1.1307670              0.7271586
SP   1   1.00
      0.2700058              1.0000000              1.0000000
D    1   1.00
      2.5840000              1.0000000
D    1   1.00
      0.6460000              1.0000000
F    1   1.00
      1.4000000              1.0000000
****
F     0
S    6   1.00
   7001.7130900              0.0018196169
   1051.3660900              0.0139160796
    239.2856900              0.0684053245
     67.3974453              0.233185760
     21.5199573              0.471267439
      7.40310130             0.356618546
SP   3   1.00
     20.8479528             -0.108506975            0.0716287243
      4.80830834            -0.146451658            0.3459121030
      1.34406986             1.128688580            0.7224699570
SP   1   1.00
      0.358151393            1.0000000              1.0000000
D    1   1.00
      3.5000000              1.0000000
D    1   1.00
      0.8750000              1.0000000
F    1   1.00
      1.8500000              1.0000000
****
Al     0
S    6   1.00
  13983.1000000              0.00194267
   2098.7500000              0.0148599
    477.7050000              0.0728494
    134.3600000              0.2468300
     42.8709000              0.4872580
     14.5189000              0.3234960
SP   6   1.00
    239.6680000             -0.00292619             0.00460285
     57.4419000             -0.0374080              0.0331990
     18.2859000             -0.1144870              0.1362820
      6.5991400              0.1156350              0.3304760
      2.4904900              0.6125950              0.4491460
      0.9445400              0.3937990              0.2657040
SP   3   1.00
      1.2779000             -0.2276060             -0.0175130
      0.3975900              0.00144583             0.2445330
      0.1600950              1.0927900              0.8049340
SP   1   1.00
      0.0556577              1.0000000              1.0000000
D    1   1.00
      0.6500000              1.0000000
D    1   1.00
      0.1625000              1.0000000
F    1   1.00
      0.2500000              1.0000000
****
Si     0
S    6   1.00
  16115.9000000              0.00195948
   2425.5800000              0.01492880
    553.8670000              0.07284780
    156.3400000              0.24613000
     50.0683000              0.48591400
     17.0178000              0.32500200
SP   6   1.00
    292.7180000             -0.00278094             0.00443826
     69.8731000             -0.03571460             0.03266790
     22.3363000             -0.11498500             0.13472100
      8.1503900              0.09356340             0.32867800
      3.1345800              0.60301700             0.44964000
      1.2254300              0.41895900             0.26137200
SP   3   1.00
      1.7273800             -0.24463000            -0.01779510
      0.5729220              0.00431572             0.25353900
      0.2221920              1.09818000             0.80066900
SP   1   1.00
      0.0778369              1.00000000             1.00000000
D    1   1.00
      0.9000000              1.0000000
D    1   1.00
      0.2250000              1.0000000
F    1   1.00
      0.3200000              1.0000000
****
P     0
S    6   1.00
  19413.3000000              0.0018516
   2909.4200000              0.0142062
    661.3640000              0.0699995
    185.7590000              0.2400790
     59.1943000              0.4847620
     20.0310000              0.3352000
SP   6   1.00
    339.4780000             -0.00278217             0.00456462
     81.0101000             -0.0360499              0.03369360
     25.8780000             -0.1166310              0.13975500
      9.4522100              0.0968328              0.33936200
      3.6656600              0.6144180              0.45092100
      1.4674600              0.4037980              0.23858600
SP   3   1.00
      2.1562300             -0.2529230             -0.01776530
      0.7489970              0.0328517              0.27405800
      0.2831450              1.0812500              0.78542100
SP   1   1.00
      0.0998317              1.0000000              1.00000000
D    1   1.00
      1.1000000              1.0000000
D    1   1.00
      0.2750000              1.0000000
F    1   1.00
      0.4500000              1.0000000
****
S     0
S    6   1.00
  21917.1000000              0.0018690
   3301.4900000              0.0142300
    754.1460000              0.0696960
    212.7110000              0.2384870
     67.9896000              0.4833070
     23.0515000              0.3380740
SP   6   1.00
    423.7350000             -0.0023767              0.0040610
    100.7100000             -0.0316930              0.0306810
     32.1599000             -0.1133170              0.1304520
     11.8079000              0.0560900              0.3272050
      4.6311000              0.5922550              0.4528510
      1.8702500              0.4550060              0.2560420
SP   3   1.00
      2.6158400             -0.2503740             -0.0145110
      0.9221670              0.0669570              0.3102630
      0.3412870              1.0545100              0.7544830
SP   1   1.00
      0.1171670              1.0000000              1.0000000
D    1   1.00
      1.3000000              1.0000000
D    1   1.00
      0.3250000              1.0000000
F    1   1.00
      0.5500000              1.0000000
****
Cl     0
S    6   1.00
  25180.1000000              0.0018330
   3780.3500000              0.0140340
    860.4740000              0.0690970
    242.1450000              0.2374520
     77.3349000              0.4830340
     26.2470000              0.3398560
SP   6   1.00
    491.7650000             -0.0022974              0.0039894
    116.9840000             -0.0307140              0.0303180
     37.4153000             -0.1125280              0.1298800
     13.7834000              0.0450160              0.3279510
      5.4521500              0.5893530              0.4535270
      2.2258800              0.4652060              0.2521540
SP   3   1.00
      3.1864900             -0.2518300             -0.0142990
      1.1442700              0.0615890              0.3235720
      0.4203770              1.0601800              0.7435070
SP   1   1.00
      0.1426570              1.0000000              1.0000000
D    1   1.00
      1.5000000              1.0000000
D    1   1.00
      0.3750000              1.0000000
F    1   1.00
      0.7000000              1.0000000
****
}

set {
reference uhf
freeze_core true
e_convergence 10
d_convergence 10
dft_spherical_points 1202
dft_radial_points 99
}

e = energy('b3lyp')

print_out('Grab this energy {0}'.format(e))
--------------------------------------------------------------------------

    Molecular point group: c1

    Geometry (in Bohr), charge = 0, multiplicity = 2:

       Center              X                  Y                   Z               Mass
    ------------   -----------------  -----------------  -----------------  -----------------
         C           -0.325130932496    -0.000003224148     0.003978549901    12.000000000000
         C            0.061320527504    -1.401419787848    -2.427583850799    12.000000000000
         C            0.061070224704     2.801934903452    -0.000258214899    12.000000000000
         C            0.061060472904    -1.400509807248     2.425491301801    12.000000000000
         H            2.088441506004    -1.644053642648    -2.849740316099     1.007825032230
         H           -0.762633265196    -0.388298203248    -4.027843706899     1.007825032230
         H           -0.763632415596    -3.291758184548    -2.350543179699     1.007825032230
         H            2.088505584604     3.288362477652    -0.002371260499     1.007825032230
         H           -0.764080801996     3.679145285752     1.674807436601     1.007825032230
         H           -0.762411846596     3.680860777352    -1.678996831699     1.007825032230
         H            2.088850043104    -1.644401054648     2.845599549001     1.007825032230
         H           -0.762706503596    -3.292684746048     2.346608191101     1.007825032230
         H           -0.763376297196    -0.387197525948     4.023098349101     1.007825032230

  Charge       = 0
  Multiplicity = 2
  Basis Set: ANONYMOUS8DC0A161
    Blend: 6-31G_2DFP_
  Basis Set: (ANONYMOUS8DC0A161 AUX)
    Blend: DEF2-UNIVERSAL-JKFIT

    Orbital Energies [Eh]
    ---------------------

    Alpha Occupied:

       1A    -10.180454     2A    -10.167075     3A    -10.167043
       4A    -10.166997     5A     -0.797715     6A     -0.686363
       7A     -0.685985     8A     -0.530797     9A     -0.440896
      10A     -0.435028    11A     -0.434600    12A     -0.382470
      13A     -0.382236    14A     -0.363890    15A     -0.338566
      16A     -0.337527    17A     -0.169076

    Alpha Virtual:

      18A      0.076089    19A      0.134145    20A      0.134176
      21A      0.142534    22A      0.142886    23A      0.154814
      24A      0.178667    25A      0.178683    26A      0.203497
      27A      0.214935    28A      0.275557    29A      0.276135
      30A      0.399086    31A      0.399337    32A      0.403303
      33A      0.424090    34A      0.424092    35A      0.456589
      36A      0.495394    37A      0.495488    38A      0.512057
      39A      0.513981    40A      0.578713    41A      0.579095
      42A      0.591337    43A      0.591339    44A      0.602264
      45A      0.624894    46A      0.631916    47A      0.636234
      48A      0.636536    49A      0.663174    50A      0.663307
      51A      0.683826    52A      0.683926    53A      0.734865
      54A      0.825124    55A      0.825340    56A      0.853963
      57A      0.914745    58A      0.914969    59A      0.944023
      60A      0.944600    61A      0.961208    62A      0.961559
      63A      1.004334    64A      1.128066    65A      1.128554
      66A      1.141895    67A      1.162743    68A      1.163516
      69A      1.222907    70A      1.273737    71A      1.274674
      72A      1.279199    73A      1.324369    74A      1.324566
      75A      1.354967    76A      1.366129    77A      1.366677
      78A      1.392516    79A      1.403368    80A      1.403474
      81A      1.416186    82A      1.416833    83A      1.427743
      84A      1.491957    85A      1.498577    86A      1.543209
      87A      1.543219    88A      1.574522    89A      1.574568
      90A      1.670357    91A      1.739009    92A      1.739414
      93A      1.768102    94A      1.831456    95A      1.831981
      96A      1.972289    97A      2.018002    98A      2.018208
      99A      2.019305   100A      2.051748   101A      2.052800
     102A      2.737918   103A      2.738393   104A      2.790707
     105A      2.811698   106A      2.889211   107A      2.890336
     108A      2.894974   109A      2.929260   110A      2.930037
     111A      2.959157   112A      2.964192   113A      2.964502
     114A      3.033961   115A      3.070167   116A      3.071177
     117A      3.084412   118A      3.168666   119A      3.168813
     120A      3.180846   121A      3.285368   122A      3.285956
     123A      3.327707   124A      3.328473   125A      3.375305
     126A      3.489436   127A      3.490496   128A      3.513566
     129A      3.525496   130A      3.567735   131A      3.568193
     132A      3.574699   133A      3.666073   134A      3.666680
     135A      3.680689   136A      3.693798   137A      3.693856
     138A      3.775182   139A      3.776646   140A      3.787853
     141A      3.911867   142A      3.912791   143A      4.033265
     144A      4.111429   145A      4.112062   146A      4.147362
     147A      4.149330   148A      4.173119   149A      4.201814
     150A      4.202602   151A      4.203347   152A      4.210771
     153A      4.315198   154A      4.316325   155A      4.359074
     156A      4.423731   157A      4.423894   158A      4.444330
     159A      4.516870   160A      4.517092   161A      4.578008
     162A      4.578431   163A      4.616967   164A      4.709052
     165A      4.773799   166A      4.774924   167A      4.836657
     168A      4.962885   169A      5.002011   170A      5.002528
     171A      5.227977   172A      5.246799   173A      5.246860
     174A      5.355393   175A      5.356520   176A      5.478832

    Beta Occupied:

       1A    -10.167826     2A    -10.167799     3A    -10.167768
       4A    -10.166634     5A     -0.781056     6A     -0.684157
       7A     -0.683804     8A     -0.511773     9A     -0.431412
      10A     -0.430990    11A     -0.421576    12A     -0.376502
      13A     -0.376350    14A     -0.362875    15A     -0.333696
      16A     -0.332638

    Beta Virtual:

      17A     -0.025891    18A      0.077100    19A      0.135082
      20A      0.135084    21A      0.144405    22A      0.144737
      23A      0.163305    24A      0.182316    25A      0.182355
      26A      0.215160    27A      0.218858    28A      0.281951
      29A      0.282460    30A      0.400262    31A      0.400507
      32A      0.419809    33A      0.426888    34A      0.426909
      35A      0.468433    36A      0.497652    37A      0.497752
      38A      0.513796    39A      0.556277    40A      0.584232
      41A      0.584661    42A      0.597523    43A      0.597542
      44A      0.609713    45A      0.628236    46A      0.632072
      47A      0.639491    48A      0.639820    49A      0.666771
      50A      0.666892    51A      0.686457    52A      0.686560
      53A      0.757394    54A      0.830318    55A      0.830525
      56A      0.855319    57A      0.922693    58A      0.922971
      59A      0.945859    60A      0.953494    61A      0.966489
      62A      0.966855    63A      1.009622    64A      1.132023
      65A      1.132463    66A      1.155265    67A      1.167884
      68A      1.168642    69A      1.231872    70A      1.279405
      71A      1.280237    72A      1.284943    73A      1.329429
      74A      1.329602    75A      1.364365    76A      1.371426
      77A      1.371875    78A      1.393586    79A      1.406761
      80A      1.406973    81A      1.421229    82A      1.421858
      83A      1.427996    84A      1.493008    85A      1.509000
      86A      1.547721    87A      1.547740    88A      1.582308
      89A      1.582316    90A      1.675189    91A      1.744775
      92A      1.745188    93A      1.778888    94A      1.835291
      95A      1.835844    96A      1.973146    97A      2.024559
      98A      2.025653    99A      2.039428   100A      2.058502
     101A      2.059526   102A      2.746225   103A      2.746762
     104A      2.812109   105A      2.815791   106A      2.901999
     107A      2.902950   108A      2.924597   109A      2.931663
     110A      2.932546   111A      2.960221   112A      2.968752
     113A      2.969058   114A      3.041936   115A      3.080177
     116A      3.081035   117A      3.086233   118A      3.184279
     119A      3.184448   120A      3.188690   121A      3.290164
     122A      3.290672   123A      3.331524   124A      3.332295
     125A      3.383086   126A      3.492163   127A      3.493241
     128A      3.511936   129A      3.528505   130A      3.574542
     131A      3.581196   132A      3.581564   133A      3.670824
     134A      3.671280   135A      3.693965   136A      3.725344
     137A      3.725630   138A      3.779769   139A      3.781214
     140A      3.816392   141A      3.921691   142A      3.922610
     143A      4.044164   144A      4.118267   145A      4.118811
     146A      4.154612   147A      4.156529   148A      4.187209
     149A      4.208179   150A      4.208956   151A      4.210445
     152A      4.215284   153A      4.322563   154A      4.323816
     155A      4.362450   156A      4.432006   157A      4.432162
     158A      4.447188   159A      4.524618   160A      4.524933
     161A      4.588565   162A      4.589004   163A      4.624110
     164A      4.719488   165A      4.780692   166A      4.781890
     167A      4.839571   168A      4.967693   169A      5.006079
     170A      5.006567   171A      5.233661   172A      5.248579
     173A      5.248628   174A      5.361830   175A      5.363009
     176A      5.481152

    Final Occupation by Irrep:
              A
    DOCC [    16 ]
    SOCC [     1 ]

  @DF-UKS Final Energy:  -157.81305816431831

   => Energetics <=

    Nuclear Repulsion Energy =            125.3859510472906607
    One-Electron Energy =                -458.7314466452967281
    Two-Electron Energy =                 195.8393279405299268
    DFT Exchange-Correlation Energy =     -20.3068905068421444
    Empirical Dispersion Energy =           0.0000000000000000
    VV10 Nonlocal Energy =                  0.0000000000000000
    Total Energy =                       -157.8130581643183064

  UHF NO Occupations:
  HONO-2 :   15  A 1.9995999
  HONO-1 :   16  A 1.9989813
  HONO-0 :   17  A 1.0000000
  LUNO+0 :   18  A 0.0010187
  LUNO+1 :   19  A 0.0004001
  LUNO+2 :   20  A 0.0001987
  LUNO+3 :   21  A 0.0001966

Computation Completed

Properties will be evaluated at   0.000000,   0.000000,   0.000000 [a0]

Properties computed using the SCF density matrix

  Nuclear Dipole Moment: [e a0]
     X:     0.8369      Y:    -0.0000      Z:    -0.0096

  Electronic Dipole Moment: [e a0]
     X:    -0.7591      Y:     0.0000      Z:     0.0108

  Dipole Moment: [e a0]
     X:     0.0778      Y:     0.0000      Z:     0.0012     Total:     0.0778

  Dipole Moment: [D]
     X:     0.1977      Y:     0.0000      Z:     0.0031     Total:     0.1977

*** tstop() called on n079 at Fri Nov  5 13:31:08 2021
Module time:
	user time   =     495.14 seconds =       8.25 minutes
	system time =       4.55 seconds =       0.08 minutes
	total time  =        126 seconds =       2.10 minutes
Total time:
	user time   =     495.14 seconds =       8.25 minutes
	system time =       4.55 seconds =       0.08 minutes
	total time  =        126 seconds =       2.10 minutes
Grab this energy -157.8130581643183
    Psi4 stopped on: Friday, 05 November 2021 01:31PM
    Psi4 wall time for execution: 0:02:05.66

*** Psi4 exiting successfully. Buy a developer a beer!
