                               Psi4 1.4a2.dev629

  ==> Input File <==

--------------------------------------------------------------------------
import os
memory 14 GB

molecule {
 C   -0.3233441805    0.0049900796    0.0000000000
 C    0.0612586146   -1.4027437815   -2.4188258877
 C    0.0602369785    2.8080280049   -0.0000000000
 C    0.0612586146   -1.4027437815    2.4188258877
 H    2.0872708742   -1.6504065852   -2.8390661053
 H   -0.7623734801   -0.3970394823   -4.0239441947
 H   -0.7673075816   -3.2938665001   -2.3362813152
 H    2.0859676234    3.2977587026   -0.0000000000
 H   -0.7665825762    3.6886557987    1.6765902429
 H   -0.7665825762    3.6886557987   -1.6765902429
 H    2.0872708742   -1.6504065852    2.8390661053
 H   -0.7673075816   -3.2938665001    2.3362813152
 H   -0.7623734801   -0.3970394823    4.0239441947
units bohr
0 2
}

basis {

assign 6-31g_2dfp_

[ 6-31g_2dfp_ ]

spherical

!----------------------------------------------------------------------
! Basis Set Exchange
! Version v0.8.13
! https://www.basissetexchange.org
!----------------------------------------------------------------------
!   Basis set: 6-31G(2df,p)
! Description: 6-31G(2df,p)
!        Role: orbital
!     Version: 0  (Data from the original Basis Set Exchange)
!----------------------------------------------------------------------

****
H     0
S    3   1.00
     18.7311370              0.03349460
      2.8253937              0.23472695
      0.6401217              0.81375733
S    1   1.00
      0.1612778              1.00000000
P    1   1.00
      1.5000000              1.0000000
P    1   1.00
      0.3750000              1.0000000
****
B     0
S    6   1.00
   2068.8823000              0.0018663
    310.6495700              0.0142515
     70.6830330              0.0695516
     19.8610800              0.2325729
      6.2993048              0.4670787
      2.1270270              0.3634314
SP   3   1.00
      4.7279710             -0.1303938              0.0745976
      1.1903377             -0.1307889              0.3078467
      0.3594117              1.1309444              0.7434568
SP   1   1.00
      0.1267512              1.0000000              1.0000000
D    1   1.00
      0.8020000              1.0000000
D    1   1.00
      0.2005000              1.0000000
F    1   1.00
      0.5000000              1.0000000
****
C     0
S    6   1.00
   3047.5249000              0.0018347
    457.3695100              0.0140373
    103.9486900              0.0688426
     29.2101550              0.2321844
      9.2866630              0.4679413
      3.1639270              0.3623120
SP   3   1.00
      7.8682724             -0.1193324              0.0689991
      1.8812885             -0.1608542              0.3164240
      0.5442493              1.1434564              0.7443083
SP   1   1.00
      0.1687144              1.0000000              1.0000000
D    1   1.00
      1.2520000              1.0000000
D    1   1.00
      0.3130000              1.0000000
F    1   1.00
      0.8000000              1.0000000
****
N     0
S    6   1.00
   4173.5110000              0.0018348
    627.4579000              0.0139950
    142.9021000              0.0685870
     40.2343300              0.2322410
     12.8202100              0.4690700
      4.3904370              0.3604550
SP   3   1.00
     11.6263580             -0.1149610              0.0675800
      2.7162800             -0.1691180              0.3239070
      0.7722180              1.1458520              0.7408950
SP   1   1.00
      0.2120313              1.0000000              1.0000000
D    1   1.00
      1.8260000              1.0000000
D    1   1.00
      0.4565000              1.0000000
F    1   1.00
      1.0000000              1.0000000
****
O     0
S    6   1.00
   5484.6717000              0.0018311
    825.2349500              0.0139501
    188.0469600              0.0684451
     52.9645000              0.2327143
     16.8975700              0.4701930
      5.7996353              0.3585209
SP   3   1.00
     15.5396160             -0.1107775              0.0708743
      3.5999336             -0.1480263              0.3397528
      1.0137618              1.1307670              0.7271586
SP   1   1.00
      0.2700058              1.0000000              1.0000000
D    1   1.00
      2.5840000              1.0000000
D    1   1.00
      0.6460000              1.0000000
F    1   1.00
      1.4000000              1.0000000
****
F     0
S    6   1.00
   7001.7130900              0.0018196169
   1051.3660900              0.0139160796
    239.2856900              0.0684053245
     67.3974453              0.233185760
     21.5199573              0.471267439
      7.40310130             0.356618546
SP   3   1.00
     20.8479528             -0.108506975            0.0716287243
      4.80830834            -0.146451658            0.3459121030
      1.34406986             1.128688580            0.7224699570
SP   1   1.00
      0.358151393            1.0000000              1.0000000
D    1   1.00
      3.5000000              1.0000000
D    1   1.00
      0.8750000              1.0000000
F    1   1.00
      1.8500000              1.0000000
****
Al     0
S    6   1.00
  13983.1000000              0.00194267
   2098.7500000              0.0148599
    477.7050000              0.0728494
    134.3600000              0.2468300
     42.8709000              0.4872580
     14.5189000              0.3234960
SP   6   1.00
    239.6680000             -0.00292619             0.00460285
     57.4419000             -0.0374080              0.0331990
     18.2859000             -0.1144870              0.1362820
      6.5991400              0.1156350              0.3304760
      2.4904900              0.6125950              0.4491460
      0.9445400              0.3937990              0.2657040
SP   3   1.00
      1.2779000             -0.2276060             -0.0175130
      0.3975900              0.00144583             0.2445330
      0.1600950              1.0927900              0.8049340
SP   1   1.00
      0.0556577              1.0000000              1.0000000
D    1   1.00
      0.6500000              1.0000000
D    1   1.00
      0.1625000              1.0000000
F    1   1.00
      0.2500000              1.0000000
****
Si     0
S    6   1.00
  16115.9000000              0.00195948
   2425.5800000              0.01492880
    553.8670000              0.07284780
    156.3400000              0.24613000
     50.0683000              0.48591400
     17.0178000              0.32500200
SP   6   1.00
    292.7180000             -0.00278094             0.00443826
     69.8731000             -0.03571460             0.03266790
     22.3363000             -0.11498500             0.13472100
      8.1503900              0.09356340             0.32867800
      3.1345800              0.60301700             0.44964000
      1.2254300              0.41895900             0.26137200
SP   3   1.00
      1.7273800             -0.24463000            -0.01779510
      0.5729220              0.00431572             0.25353900
      0.2221920              1.09818000             0.80066900
SP   1   1.00
      0.0778369              1.00000000             1.00000000
D    1   1.00
      0.9000000              1.0000000
D    1   1.00
      0.2250000              1.0000000
F    1   1.00
      0.3200000              1.0000000
****
P     0
S    6   1.00
  19413.3000000              0.0018516
   2909.4200000              0.0142062
    661.3640000              0.0699995
    185.7590000              0.2400790
     59.1943000              0.4847620
     20.0310000              0.3352000
SP   6   1.00
    339.4780000             -0.00278217             0.00456462
     81.0101000             -0.0360499              0.03369360
     25.8780000             -0.1166310              0.13975500
      9.4522100              0.0968328              0.33936200
      3.6656600              0.6144180              0.45092100
      1.4674600              0.4037980              0.23858600
SP   3   1.00
      2.1562300             -0.2529230             -0.01776530
      0.7489970              0.0328517              0.27405800
      0.2831450              1.0812500              0.78542100
SP   1   1.00
      0.0998317              1.0000000              1.00000000
D    1   1.00
      1.1000000              1.0000000
D    1   1.00
      0.2750000              1.0000000
F    1   1.00
      0.4500000              1.0000000
****
S     0
S    6   1.00
  21917.1000000              0.0018690
   3301.4900000              0.0142300
    754.1460000              0.0696960
    212.7110000              0.2384870
     67.9896000              0.4833070
     23.0515000              0.3380740
SP   6   1.00
    423.7350000             -0.0023767              0.0040610
    100.7100000             -0.0316930              0.0306810
     32.1599000             -0.1133170              0.1304520
     11.8079000              0.0560900              0.3272050
      4.6311000              0.5922550              0.4528510
      1.8702500              0.4550060              0.2560420
SP   3   1.00
      2.6158400             -0.2503740             -0.0145110
      0.9221670              0.0669570              0.3102630
      0.3412870              1.0545100              0.7544830
SP   1   1.00
      0.1171670              1.0000000              1.0000000
D    1   1.00
      1.3000000              1.0000000
D    1   1.00
      0.3250000              1.0000000
F    1   1.00
      0.5500000              1.0000000
****
Cl     0
S    6   1.00
  25180.1000000              0.0018330
   3780.3500000              0.0140340
    860.4740000              0.0690970
    242.1450000              0.2374520
     77.3349000              0.4830340
     26.2470000              0.3398560
SP   6   1.00
    491.7650000             -0.0022974              0.0039894
    116.9840000             -0.0307140              0.0303180
     37.4153000             -0.1125280              0.1298800
     13.7834000              0.0450160              0.3279510
      5.4521500              0.5893530              0.4535270
      2.2258800              0.4652060              0.2521540
SP   3   1.00
      3.1864900             -0.2518300             -0.0142990
      1.1442700              0.0615890              0.3235720
      0.4203770              1.0601800              0.7435070
SP   1   1.00
      0.1426570              1.0000000              1.0000000
D    1   1.00
      1.5000000              1.0000000
D    1   1.00
      0.3750000              1.0000000
F    1   1.00
      0.7000000              1.0000000
****
}

set {
reference uhf
freeze_core true
e_convergence 10
d_convergence 10
dft_spherical_points 1202
dft_radial_points 99
}

e = energy('b3lyp')

print_out('Grab this energy {0}'.format(e))
--------------------------------------------------------------------------

    Molecular point group: cs

    Geometry (in Bohr), charge = 0, multiplicity = 2:

       Center              X                  Y                   Z               Mass
    ------------   -----------------  -----------------  -----------------  -----------------
         C           -0.323238248857     0.003540076283     0.000000000000    12.000000000000
         C            0.061364546243    -1.404193784817    -2.418825887700    12.000000000000
         C            0.060342910143     2.806578001583     0.000000000000    12.000000000000
         C            0.061364546243    -1.404193784817     2.418825887700    12.000000000000
         H            2.087376805843    -1.651856588517    -2.839066105300     1.007825032230
         H           -0.762267548457    -0.398489485617    -4.023944194700     1.007825032230
         H           -0.767201649957    -3.295316503417    -2.336281315200     1.007825032230
         H            2.086073555043     3.296308699283     0.000000000000     1.007825032230
         H           -0.766476644557     3.687205795383     1.676590242900     1.007825032230
         H           -0.766476644557     3.687205795383    -1.676590242900     1.007825032230
         H            2.087376805843    -1.651856588517     2.839066105300     1.007825032230
         H           -0.767201649957    -3.295316503417     2.336281315200     1.007825032230
         H           -0.762267548457    -0.398489485617     4.023944194700     1.007825032230

  Charge       = 0
  Multiplicity = 2
  Basis Set: ANONYMOUSE79AC373
    Blend: 6-31G_2DFP_
  Basis Set: (ANONYMOUSE79AC373 AUX)
    Blend: DEF2-UNIVERSAL-JKFIT

    Orbital Energies [Eh]
    ---------------------

    Alpha Occupied:

       1Ap   -10.180290     2Ap   -10.167381     1App  -10.166927
       3Ap   -10.166895     4Ap    -0.798027     5Ap    -0.686417
       2App   -0.685973     6Ap    -0.530943     7Ap    -0.441136
       8Ap    -0.435004     3App   -0.434474     9Ap    -0.382607
       4App   -0.382314     5App   -0.363409    10Ap    -0.338435
       6App   -0.337880    11Ap    -0.168982

    Alpha Virtual:

      12Ap     0.076064    13Ap     0.133857     7App    0.134338
      14Ap     0.142355     8App    0.142634    15Ap     0.154986
      16Ap     0.178389     9App    0.178838    17Ap     0.203834
      10App    0.214683    18Ap     0.276057    11App    0.276397
      19Ap     0.399016    12App    0.399365    20Ap     0.403321
      21Ap     0.423914    13App    0.424183    22Ap     0.456776
      23Ap     0.494974    14App    0.495777    15App    0.512118
      24Ap     0.513929    25Ap     0.578496    16App    0.579027
      26Ap     0.591519    17App    0.591556    27Ap     0.602531
      28Ap     0.624648    18App    0.631539    19App    0.636084
      29Ap     0.636530    30Ap     0.663310    20App    0.663747
      31Ap     0.683594    21App    0.684086    32Ap     0.734861
      33Ap     0.824602    22App    0.826242    23App    0.854050
      34Ap     0.914737    24App    0.915234    25App    0.944094
      35Ap     0.944828    26App    0.961063    36Ap     0.961599
      37Ap     1.003301    38Ap     1.127025    27App    1.129370
      39Ap     1.142631    40Ap     1.162159    28App    1.163154
      41Ap     1.223760    42Ap     1.274106    29App    1.275146
      43Ap     1.279515    30App    1.324463    44Ap     1.324647
      45Ap     1.356329    46Ap     1.365472    31App    1.366859
      32App    1.391947    47Ap     1.402548    33App    1.404186
      48Ap     1.416622    34App    1.417585    35App    1.427676
      36App    1.491959    49Ap     1.498481    50Ap     1.542626
      37App    1.543358    51Ap     1.572688    38App    1.576518
      52Ap     1.669036    53Ap     1.738834    39App    1.740968
      54Ap     1.768323    55Ap     1.830457    40App    1.831495
      41App    1.972323    56Ap     2.018024    57Ap     2.018393
      42App    2.021214    58Ap     2.050533    43App    2.055714
      59Ap     2.738392    44App    2.738929    60Ap     2.791144
      45App    2.811527    46App    2.889968    61Ap     2.890143
      62Ap     2.895351    63Ap     2.929148    47App    2.929521
      48App    2.958941    64Ap     2.963448    49App    2.965277
      65Ap     3.034185    66Ap     3.070246    50App    3.072191
      51App    3.084786    67Ap     3.168104    52App    3.169706
      68Ap     3.181154    53App    3.284275    69Ap     3.285676
      70Ap     3.326454    54App    3.328367    71Ap     3.375565
      72Ap     3.489758    55App    3.490665    56App    3.514181
      73Ap     3.525646    74Ap     3.567552    57App    3.569527
      58App    3.575283    75Ap     3.665465    59App    3.665731
      76Ap     3.679087    60App    3.693561    77Ap     3.694461
      61App    3.776069    78Ap     3.777549    79Ap     3.789008
      80Ap     3.911900    62App    3.914759    81Ap     4.035035
      82Ap     4.109741    63App    4.112472    83Ap     4.146446
      64App    4.149760    84Ap     4.173912    85Ap     4.202059
      86Ap     4.203570    65App    4.205303    66App    4.211349
      67App    4.315802    87Ap     4.315841    68App    4.358362
      88Ap     4.423134    69App    4.423308    70App    4.441589
      89Ap     4.516335    71App    4.518049    90Ap     4.577913
      72App    4.580065    91Ap     4.617912    92Ap     4.710723
      93Ap     4.774118    73App    4.776665    74App    4.838265
      94Ap     4.961550    95Ap     5.001111    75App    5.003059
      96Ap     5.227499    76App    5.246376    97Ap     5.246704
      98Ap     5.354954    77App    5.356370    78App    5.480550

    Beta Occupied:

       1Ap   -10.168139     1App  -10.167682     2Ap   -10.167666
       3Ap   -10.166478     4Ap    -0.781337     5Ap    -0.684217
       2App   -0.683766     6Ap    -0.511960     7Ap    -0.431366
       3App   -0.430818     8Ap    -0.421790     9Ap    -0.376686
       4App   -0.376373     5App   -0.362389    10Ap    -0.333576
       6App   -0.333014

    Beta Virtual:

      11Ap    -0.025913    12Ap     0.077077    13Ap     0.134745
       7App    0.135247    14Ap     0.144234     8App    0.144500
      15Ap     0.163488    16Ap     0.182065     9App    0.182534
      10App    0.214915    17Ap     0.219167    18Ap     0.282373
      11App    0.282737    19Ap     0.400272    12App    0.400517
      20Ap     0.419715    21Ap     0.426712    13App    0.427011
      22Ap     0.468763    23Ap     0.497242    14App    0.498048
      15App    0.513862    24Ap     0.556239    25Ap     0.584077
      16App    0.584546    26Ap     0.597673    17App    0.597740
      27Ap     0.609945    28Ap     0.628066    18App    0.631700
      19App    0.639368    29Ap     0.639850    30Ap     0.666849
      20App    0.667337    31Ap     0.686188    21App    0.686785
      32Ap     0.757307    33Ap     0.829775    22App    0.831435
      23App    0.855416    34Ap     0.922691    24App    0.923216
      25App    0.945961    35Ap     0.953755    26App    0.966304
      36Ap     0.966985    37Ap     1.008529    38Ap     1.131057
      27App    1.133383    39Ap     1.156041    40Ap     1.167195
      28App    1.168251    41Ap     1.232672    42Ap     1.279733
      29App    1.280778    43Ap     1.285245    30App    1.329459
      44Ap     1.329673    45Ap     1.365756    46Ap     1.370548
      31App    1.372136    32App    1.393017    47Ap     1.406085
      33App    1.407655    48Ap     1.421669    34App    1.422632
      35App    1.427938    36App    1.493023    49Ap     1.508946
      50Ap     1.546947    37App    1.547893    51Ap     1.580695
      38App    1.584220    52Ap     1.673877    53Ap     1.744599
      39App    1.746722    54Ap     1.779141    55Ap     1.834320
      40App    1.835393    41App    1.973193    56Ap     2.024761
      42App    2.027737    57Ap     2.039428    58Ap     2.057308
      43App    2.062297    59Ap     2.746651    44App    2.747278
      45App    2.811938    60Ap     2.816245    46App    2.902650
      61Ap     2.902757    62Ap     2.925094    63Ap     2.931754
      47App    2.931940    48App    2.960005    64Ap     2.968055
      49App    2.969816    65Ap     3.042162    66Ap     3.080091
      50App    3.082112    51App    3.086764    67Ap     3.183873
      52App    3.185238    68Ap     3.188806    53App    3.289190
      69Ap     3.290461    70Ap     3.330247    54App    3.332174
      71Ap     3.383414    72Ap     3.492505    55App    3.493388
      56App    3.512554    73Ap     3.528664    57App    3.574677
      74Ap     3.580816    58App    3.583265    75Ap     3.670022
      59App    3.670321    76Ap     3.692383    60App    3.725353
      77Ap     3.726137    61App    3.780635    78Ap     3.782247
      79Ap     3.817412    80Ap     3.921678    62App    3.924540
      81Ap     4.045843    82Ap     4.116660    63App    4.119374
      83Ap     4.153658    64App    4.156864    84Ap     4.188026
      85Ap     4.207988    65App    4.211215    86Ap     4.211561
      66App    4.215887    67App    4.323133    87Ap     4.323207
      68App    4.361746    88Ap     4.431443    69App    4.431511
      70App    4.444527    89Ap     4.524286    71App    4.525797
      90Ap     4.588454    72App    4.590765    91Ap     4.625125
      92Ap     4.721071    93Ap     4.781033    73App    4.783650
      74App    4.841182    94Ap     4.966366    95Ap     5.005175
      75App    5.007119    96Ap     5.233229    76App    5.248165
      97Ap     5.248506    98Ap     5.361445    77App    5.362897
      78App    5.482879

    Final Occupation by Irrep:
             Ap   App
    DOCC [    10,    6 ]
    SOCC [     1,    0 ]

  @DF-UKS Final Energy:  -157.81308518899269

   => Energetics <=

    Nuclear Repulsion Energy =            125.4228061928280908
    One-Electron Energy =                -458.8043593444485282
    Two-Electron Energy =                 195.8754975999360681
    DFT Exchange-Correlation Energy =     -20.3070296373083110
    Empirical Dispersion Energy =           0.0000000000000000
    VV10 Nonlocal Energy =                  0.0000000000000000
    Total Energy =                       -157.8130851889926873

  UHF NO Occupations:
  HONO-2 :    9 Ap 1.9995993
  HONO-1 :   10 Ap 1.9989827
  HONO-0 :   11 Ap 1.0000000
  LUNO+0 :   12 Ap 0.0010173
  LUNO+1 :   13 Ap 0.0004007
  LUNO+2 :    7App 0.0001971
  LUNO+3 :   14 Ap 0.0001964

Computation Completed

Properties will be evaluated at   0.000000,   0.000000,   0.000000 [a0]

Properties computed using the SCF density matrix

  Nuclear Dipole Moment: [e a0]
     X:     0.8279      Y:    -0.0102      Z:     0.0000

  Electronic Dipole Moment: [e a0]
     X:    -0.7502      Y:     0.0110      Z:     0.0000

  Dipole Moment: [e a0]
     X:     0.0778      Y:     0.0008      Z:     0.0000     Total:     0.0778

  Dipole Moment: [D]
     X:     0.1977      Y:     0.0019      Z:     0.0000     Total:     0.1977

*** tstop() called on n040 at Fri Nov  5 13:31:28 2021
Module time:
	user time   =     918.18 seconds =      15.30 minutes
	system time =      18.44 seconds =       0.31 minutes
	total time  =        235 seconds =       3.92 minutes
Total time:
	user time   =     918.18 seconds =      15.30 minutes
	system time =      18.44 seconds =       0.31 minutes
	total time  =        235 seconds =       3.92 minutes
Grab this energy -157.8130851889927
    Psi4 stopped on: Friday, 05 November 2021 01:31PM
    Psi4 wall time for execution: 0:03:55.47

*** Psi4 exiting successfully. Buy a developer a beer!
