                               Psi4 1.4a2.dev629

  ==> Input File <==

--------------------------------------------------------------------------
import os
memory 14 GB

molecule {
 C   -0.3265086659   -0.0000025802   -0.0002561285
 C    0.0580401117   -1.4013036458   -2.4263504911
 C    0.0596948710    2.8019382357    0.0007669365
 C    0.0615907490   -1.4006314282    2.4267205172
 H    2.0874467543   -1.6441222538   -2.8477213328
 H   -0.7637581927   -0.3875164639   -4.0255870220
 H   -0.7640600815   -3.2923223979   -2.3485537796
 H    2.0871314127    3.2883644400   -0.0002359740
 H   -0.7647604691    3.6800540325    1.6767338215
 H   -0.7644835841    3.6799613798   -1.6770699252
 H    2.0870956650   -1.6443333075    2.8476146778
 H   -0.7650306584   -3.2921240122    2.3485921097
 H   -0.7650057888   -0.3879863119    4.0253465907
units bohr
0 2
}

basis {

assign 6-31g_2dfp_

[ 6-31g_2dfp_ ]

spherical

!----------------------------------------------------------------------
! Basis Set Exchange
! Version v0.8.13
! https://www.basissetexchange.org
!----------------------------------------------------------------------
!   Basis set: 6-31G(2df,p)
! Description: 6-31G(2df,p)
!        Role: orbital
!     Version: 0  (Data from the original Basis Set Exchange)
!----------------------------------------------------------------------

****
H     0
S    3   1.00
     18.7311370              0.03349460
      2.8253937              0.23472695
      0.6401217              0.81375733
S    1   1.00
      0.1612778              1.00000000
P    1   1.00
      1.5000000              1.0000000
P    1   1.00
      0.3750000              1.0000000
****
B     0
S    6   1.00
   2068.8823000              0.0018663
    310.6495700              0.0142515
     70.6830330              0.0695516
     19.8610800              0.2325729
      6.2993048              0.4670787
      2.1270270              0.3634314
SP   3   1.00
      4.7279710             -0.1303938              0.0745976
      1.1903377             -0.1307889              0.3078467
      0.3594117              1.1309444              0.7434568
SP   1   1.00
      0.1267512              1.0000000              1.0000000
D    1   1.00
      0.8020000              1.0000000
D    1   1.00
      0.2005000              1.0000000
F    1   1.00
      0.5000000              1.0000000
****
C     0
S    6   1.00
   3047.5249000              0.0018347
    457.3695100              0.0140373
    103.9486900              0.0688426
     29.2101550              0.2321844
      9.2866630              0.4679413
      3.1639270              0.3623120
SP   3   1.00
      7.8682724             -0.1193324              0.0689991
      1.8812885             -0.1608542              0.3164240
      0.5442493              1.1434564              0.7443083
SP   1   1.00
      0.1687144              1.0000000              1.0000000
D    1   1.00
      1.2520000              1.0000000
D    1   1.00
      0.3130000              1.0000000
F    1   1.00
      0.8000000              1.0000000
****
N     0
S    6   1.00
   4173.5110000              0.0018348
    627.4579000              0.0139950
    142.9021000              0.0685870
     40.2343300              0.2322410
     12.8202100              0.4690700
      4.3904370              0.3604550
SP   3   1.00
     11.6263580             -0.1149610              0.0675800
      2.7162800             -0.1691180              0.3239070
      0.7722180              1.1458520              0.7408950
SP   1   1.00
      0.2120313              1.0000000              1.0000000
D    1   1.00
      1.8260000              1.0000000
D    1   1.00
      0.4565000              1.0000000
F    1   1.00
      1.0000000              1.0000000
****
O     0
S    6   1.00
   5484.6717000              0.0018311
    825.2349500              0.0139501
    188.0469600              0.0684451
     52.9645000              0.2327143
     16.8975700              0.4701930
      5.7996353              0.3585209
SP   3   1.00
     15.5396160             -0.1107775              0.0708743
      3.5999336             -0.1480263              0.3397528
      1.0137618              1.1307670              0.7271586
SP   1   1.00
      0.2700058              1.0000000              1.0000000
D    1   1.00
      2.5840000              1.0000000
D    1   1.00
      0.6460000              1.0000000
F    1   1.00
      1.4000000              1.0000000
****
F     0
S    6   1.00
   7001.7130900              0.0018196169
   1051.3660900              0.0139160796
    239.2856900              0.0684053245
     67.3974453              0.233185760
     21.5199573              0.471267439
      7.40310130             0.356618546
SP   3   1.00
     20.8479528             -0.108506975            0.0716287243
      4.80830834            -0.146451658            0.3459121030
      1.34406986             1.128688580            0.7224699570
SP   1   1.00
      0.358151393            1.0000000              1.0000000
D    1   1.00
      3.5000000              1.0000000
D    1   1.00
      0.8750000              1.0000000
F    1   1.00
      1.8500000              1.0000000
****
Al     0
S    6   1.00
  13983.1000000              0.00194267
   2098.7500000              0.0148599
    477.7050000              0.0728494
    134.3600000              0.2468300
     42.8709000              0.4872580
     14.5189000              0.3234960
SP   6   1.00
    239.6680000             -0.00292619             0.00460285
     57.4419000             -0.0374080              0.0331990
     18.2859000             -0.1144870              0.1362820
      6.5991400              0.1156350              0.3304760
      2.4904900              0.6125950              0.4491460
      0.9445400              0.3937990              0.2657040
SP   3   1.00
      1.2779000             -0.2276060             -0.0175130
      0.3975900              0.00144583             0.2445330
      0.1600950              1.0927900              0.8049340
SP   1   1.00
      0.0556577              1.0000000              1.0000000
D    1   1.00
      0.6500000              1.0000000
D    1   1.00
      0.1625000              1.0000000
F    1   1.00
      0.2500000              1.0000000
****
Si     0
S    6   1.00
  16115.9000000              0.00195948
   2425.5800000              0.01492880
    553.8670000              0.07284780
    156.3400000              0.24613000
     50.0683000              0.48591400
     17.0178000              0.32500200
SP   6   1.00
    292.7180000             -0.00278094             0.00443826
     69.8731000             -0.03571460             0.03266790
     22.3363000             -0.11498500             0.13472100
      8.1503900              0.09356340             0.32867800
      3.1345800              0.60301700             0.44964000
      1.2254300              0.41895900             0.26137200
SP   3   1.00
      1.7273800             -0.24463000            -0.01779510
      0.5729220              0.00431572             0.25353900
      0.2221920              1.09818000             0.80066900
SP   1   1.00
      0.0778369              1.00000000             1.00000000
D    1   1.00
      0.9000000              1.0000000
D    1   1.00
      0.2250000              1.0000000
F    1   1.00
      0.3200000              1.0000000
****
P     0
S    6   1.00
  19413.3000000              0.0018516
   2909.4200000              0.0142062
    661.3640000              0.0699995
    185.7590000              0.2400790
     59.1943000              0.4847620
     20.0310000              0.3352000
SP   6   1.00
    339.4780000             -0.00278217             0.00456462
     81.0101000             -0.0360499              0.03369360
     25.8780000             -0.1166310              0.13975500
      9.4522100              0.0968328              0.33936200
      3.6656600              0.6144180              0.45092100
      1.4674600              0.4037980              0.23858600
SP   3   1.00
      2.1562300             -0.2529230             -0.01776530
      0.7489970              0.0328517              0.27405800
      0.2831450              1.0812500              0.78542100
SP   1   1.00
      0.0998317              1.0000000              1.00000000
D    1   1.00
      1.1000000              1.0000000
D    1   1.00
      0.2750000              1.0000000
F    1   1.00
      0.4500000              1.0000000
****
S     0
S    6   1.00
  21917.1000000              0.0018690
   3301.4900000              0.0142300
    754.1460000              0.0696960
    212.7110000              0.2384870
     67.9896000              0.4833070
     23.0515000              0.3380740
SP   6   1.00
    423.7350000             -0.0023767              0.0040610
    100.7100000             -0.0316930              0.0306810
     32.1599000             -0.1133170              0.1304520
     11.8079000              0.0560900              0.3272050
      4.6311000              0.5922550              0.4528510
      1.8702500              0.4550060              0.2560420
SP   3   1.00
      2.6158400             -0.2503740             -0.0145110
      0.9221670              0.0669570              0.3102630
      0.3412870              1.0545100              0.7544830
SP   1   1.00
      0.1171670              1.0000000              1.0000000
D    1   1.00
      1.3000000              1.0000000
D    1   1.00
      0.3250000              1.0000000
F    1   1.00
      0.5500000              1.0000000
****
Cl     0
S    6   1.00
  25180.1000000              0.0018330
   3780.3500000              0.0140340
    860.4740000              0.0690970
    242.1450000              0.2374520
     77.3349000              0.4830340
     26.2470000              0.3398560
SP   6   1.00
    491.7650000             -0.0022974              0.0039894
    116.9840000             -0.0307140              0.0303180
     37.4153000             -0.1125280              0.1298800
     13.7834000              0.0450160              0.3279510
      5.4521500              0.5893530              0.4535270
      2.2258800              0.4652060              0.2521540
SP   3   1.00
      3.1864900             -0.2518300             -0.0142990
      1.1442700              0.0615890              0.3235720
      0.4203770              1.0601800              0.7435070
SP   1   1.00
      0.1426570              1.0000000              1.0000000
D    1   1.00
      1.5000000              1.0000000
D    1   1.00
      0.3750000              1.0000000
F    1   1.00
      0.7000000              1.0000000
****
}

set {
reference uhf
freeze_core true
e_convergence 10
d_convergence 10
dft_spherical_points 1202
dft_radial_points 99
}

e = energy('b3lyp')

print_out('Grab this energy {0}'.format(e))
--------------------------------------------------------------------------

    Molecular point group: c1

    Geometry (in Bohr), charge = 0, multiplicity = 2:

       Center              X                  Y                   Z               Mass
    ------------   -----------------  -----------------  -----------------  -----------------
         C           -0.325132882404    -0.000002262843    -0.000425783496    12.000000000000
         C            0.059415895196    -1.401303328443    -2.426520146096    12.000000000000
         C            0.061070654496     2.801938553057     0.000597281504    12.000000000000
         C            0.062966532496    -1.400631110843     2.426550862204    12.000000000000
         H            2.088822537796    -1.644121936443    -2.847890987796     1.007825032230
         H           -0.762382409204    -0.387516146543    -4.025756676996     1.007825032230
         H           -0.762684298004    -3.292322080543    -2.348723434596     1.007825032230
         H            2.088507196196     3.288364757357    -0.000405628996     1.007825032230
         H           -0.763384685604     3.680054349857     1.676564166504     1.007825032230
         H           -0.763107800604     3.679961697157    -1.677239580196     1.007825032230
         H            2.088471448496    -1.644332990143     2.847445022804     1.007825032230
         H           -0.763654874904    -3.292123694843     2.348422454704     1.007825032230
         H           -0.763630005304    -0.387985994543     4.025176935704     1.007825032230

  Charge       = 0
  Multiplicity = 2
  Basis Set: ANONYMOUS084FBF39
    Blend: 6-31G_2DFP_
  Basis Set: (ANONYMOUS084FBF39 AUX)
    Blend: DEF2-UNIVERSAL-JKFIT

    Orbital Energies [Eh]
    ---------------------

    Alpha Occupied:

       1A    -10.180455     2A    -10.167074     3A    -10.167044
       4A    -10.166998     5A     -0.797712     6A     -0.686207
       7A     -0.686141     8A     -0.530797     9A     -0.440890
      10A     -0.434917    11A     -0.434715    12A     -0.382502
      13A     -0.382201    14A     -0.363893    15A     -0.338132
      16A     -0.337962    17A     -0.169077

    Alpha Virtual:

      18A      0.076089    19A      0.134127    20A      0.134194
      21A      0.142648    22A      0.142773    23A      0.154814
      24A      0.178561    25A      0.178788    26A      0.203501
      27A      0.214934    28A      0.275792    29A      0.275901
      30A      0.399052    31A      0.399367    32A      0.403306
      33A      0.424043    34A      0.424138    35A      0.456589
      36A      0.495412    37A      0.495470    38A      0.512057
      39A      0.513982    40A      0.578821    41A      0.578995
      42A      0.591210    43A      0.591447    44A      0.602262
      45A      0.624904    46A      0.631917    47A      0.636270
      48A      0.636486    49A      0.663072    50A      0.663410
      51A      0.683727    52A      0.684024    53A      0.734866
      54A      0.825219    55A      0.825246    56A      0.853963
      57A      0.914841    58A      0.914882    59A      0.944023
      60A      0.944594    61A      0.961304    62A      0.961461
      63A      1.004333    64A      1.128218    65A      1.128444
      66A      1.141848    67A      1.163045    68A      1.163219
      69A      1.222902    70A      1.274062    71A      1.274346
      72A      1.279206    73A      1.324215    74A      1.324721
      75A      1.354958    76A      1.366098    77A      1.366705
      78A      1.392528    79A      1.403302    80A      1.403552
      81A      1.416219    82A      1.416799    83A      1.427731
      84A      1.491959    85A      1.498578    86A      1.543154
      87A      1.543262    88A      1.574378    89A      1.574714
      90A      1.670361    91A      1.738801    92A      1.739611
      93A      1.768114    94A      1.831523    95A      1.831919
      96A      1.972287    97A      2.017890    98A      2.018237
      99A      2.019382   100A      2.051902   101A      2.052631
     102A      2.738115   103A      2.738192   104A      2.790707
     105A      2.811701   106A      2.889505   107A      2.890049
     108A      2.894979   109A      2.929620   110A      2.929678
     111A      2.959162   112A      2.964237   113A      2.964447
     114A      3.033969   115A      3.070544   116A      3.070780
     117A      3.084420   118A      3.168645   119A      3.168885
     120A      3.180778   121A      3.285633   122A      3.285697
     123A      3.327935   124A      3.328254   125A      3.375320
     126A      3.489671   127A      3.490291   128A      3.513558
     129A      3.525487   130A      3.567855   131A      3.568074
     132A      3.574693   133A      3.666095   134A      3.666675
     135A      3.680680   136A      3.693824   137A      3.693846
     138A      3.775885   139A      3.775970   140A      3.787798
     141A      3.912244   142A      3.912407   143A      4.033284
     144A      4.111660   145A      4.111844   146A      4.148293
     147A      4.148412   148A      4.173101   149A      4.202105
     150A      4.202654   151A      4.203005   152A      4.210743
     153A      4.315323   154A      4.316175   155A      4.359080
     156A      4.423696   157A      4.423942   158A      4.444310
     159A      4.515931   160A      4.518037   161A      4.578164
     162A      4.578587   163A      4.616658   164A      4.709033
     165A      4.773833   166A      4.774858   167A      4.836677
     168A      4.962924   169A      5.001779   170A      5.002692
     171A      5.227984   172A      5.246802   173A      5.246841
     174A      5.355683   175A      5.356233   176A      5.478833

    Beta Occupied:

       1A    -10.167830     2A    -10.167799     3A    -10.167765
       4A    -10.166634     5A     -0.781053     6A     -0.684014
       7A     -0.683947     8A     -0.511773     9A     -0.431306
      10A     -0.431093    11A     -0.421579    12A     -0.376584
      13A     -0.376265    14A     -0.362879    15A     -0.333254
      16A     -0.333081

    Beta Virtual:

      17A     -0.025891    18A      0.077100    19A      0.135059
      20A      0.135108    21A      0.144513    22A      0.144630
      23A      0.163304    24A      0.182220    25A      0.182451
      26A      0.215160    27A      0.218862    28A      0.282154
      29A      0.282258    30A      0.400226    31A      0.400543
      32A      0.419809    33A      0.426848    34A      0.426949
      35A      0.468433    36A      0.497677    37A      0.497727
      38A      0.513796    39A      0.556281    40A      0.584366
      41A      0.584530    42A      0.597401    43A      0.597648
      44A      0.609711    45A      0.628246    46A      0.632072
      47A      0.639538    48A      0.639756    49A      0.666679
      50A      0.666986    51A      0.686357    52A      0.686660
      53A      0.757395    54A      0.830410    55A      0.830433
      56A      0.855319    57A      0.922817    58A      0.922856
      59A      0.945859    60A      0.953489    61A      0.966585
      62A      0.966756    63A      1.009621    64A      1.132104
      65A      1.132405    66A      1.155239    67A      1.168227
      68A      1.168305    69A      1.231867    70A      1.279671
      71A      1.279966    72A      1.284951    73A      1.329253
      74A      1.329779    75A      1.364356    76A      1.371345
      77A      1.371953    78A      1.393597    79A      1.406737
      80A      1.407012    81A      1.421270    82A      1.421819
      83A      1.427981    84A      1.493011    85A      1.509001
      86A      1.547706    87A      1.547743    88A      1.582202
      89A      1.582426    90A      1.675192    91A      1.744578
      92A      1.745374    93A      1.778899    94A      1.835372
      95A      1.835768    96A      1.973144    97A      2.024464
      98A      2.025743    99A      2.039434   100A      2.058664
     101A      2.059342   102A      2.746458   103A      2.746526
     104A      2.812112   105A      2.815791   106A      2.902217
     107A      2.902743   108A      2.924604   109A      2.932076
     110A      2.932129   111A      2.960225   112A      2.968800
     113A      2.969002   114A      3.041944   115A      3.080480
     116A      3.080704   117A      3.086250   118A      3.184340
     119A      3.184537   120A      3.188524   121A      3.290397
     122A      3.290444   123A      3.331742   124A      3.332087
     125A      3.383099   126A      3.492410   127A      3.493029
     128A      3.511924   129A      3.528496   130A      3.574543
     131A      3.581328   132A      3.581421   133A      3.670828
     134A      3.671296   135A      3.693956   136A      3.725345
     137A      3.725645   138A      3.780463   139A      3.780523
     140A      3.816371   141A      3.922047   142A      3.922242
     143A      4.044183   144A      4.118506   145A      4.118583
     146A      4.155472   147A      4.155681   148A      4.187193
     149A      4.208482   150A      4.208833   151A      4.210274
     152A      4.215250   153A      4.322726   154A      4.323626
     155A      4.362457   156A      4.431979   157A      4.432206
     158A      4.447162   159A      4.523728   160A      4.525828
     161A      4.588756   162A      4.589151   163A      4.623778
     164A      4.719467   165A      4.780782   166A      4.781769
     167A      4.839591   168A      4.967735   169A      5.005848
     170A      5.006726   171A      5.233669   172A      5.248576
     173A      5.248616   174A      5.362148   175A      5.362695
     176A      5.481153

    Final Occupation by Irrep:
              A
    DOCC [    16 ]
    SOCC [     1 ]

  @DF-UKS Final Energy:  -157.81306473897365

   => Energetics <=

    Nuclear Repulsion Energy =            125.3858679191695131
    One-Electron Energy =                -458.7312999533683069
    Two-Electron Energy =                 195.8392545175719022
    DFT Exchange-Correlation Energy =     -20.3068872223467700
    Empirical Dispersion Energy =           0.0000000000000000
    VV10 Nonlocal Energy =                  0.0000000000000000
    Total Energy =                       -157.8130647389736509

  UHF NO Occupations:
  HONO-2 :   15  A 1.9995999
  HONO-1 :   16  A 1.9989813
  HONO-0 :   17  A 1.0000000
  LUNO+0 :   18  A 0.0010187
  LUNO+1 :   19  A 0.0004001
  LUNO+2 :   20  A 0.0001977
  LUNO+3 :   21  A 0.0001975

Computation Completed

Properties will be evaluated at   0.000000,   0.000000,   0.000000 [a0]

Properties computed using the SCF density matrix

  Nuclear Dipole Moment: [e a0]
     X:     0.8369      Y:    -0.0000      Z:    -0.0012

  Electronic Dipole Moment: [e a0]
     X:    -0.7591      Y:     0.0000      Z:     0.0011

  Dipole Moment: [e a0]
     X:     0.0778      Y:     0.0000      Z:    -0.0001     Total:     0.0778

  Dipole Moment: [D]
     X:     0.1977      Y:     0.0000      Z:    -0.0003     Total:     0.1977

*** tstop() called on n089 at Fri Nov  5 12:16:12 2021
Module time:
	user time   =     512.46 seconds =       8.54 minutes
	system time =       4.57 seconds =       0.08 minutes
	total time  =        130 seconds =       2.17 minutes
Total time:
	user time   =     512.46 seconds =       8.54 minutes
	system time =       4.57 seconds =       0.08 minutes
	total time  =        130 seconds =       2.17 minutes
Grab this energy -157.81306473897365
    Psi4 stopped on: Friday, 05 November 2021 12:16PM
    Psi4 wall time for execution: 0:02:09.99

*** Psi4 exiting successfully. Buy a developer a beer!
