                               Psi4 1.4a2.dev629

  ==> Input File <==

--------------------------------------------------------------------------
import os
memory 14 GB

molecule {
 C   -0.3233317069    0.0049905050   -0.0002464520
 C    0.0604824059   -1.4036850894   -2.4202991763
 C    0.0604194619    2.8096675132    0.0001480832
 C    0.0624033339   -1.4034517518    2.4201879378
 H    2.0845078990   -1.6482972694   -2.8336123100
 H   -0.7634287471   -0.3974683765   -4.0256540094
 H   -0.7693224592   -3.2953556712   -2.3390132166
 H    2.0860213713    3.2972593530    0.0018540178
 H   -0.7676667668    3.6895894144    1.6761213493
 H   -0.7657381914    3.6867526589   -1.6772698796
 H    2.0901278722   -1.6520152080    2.8436654466
 H   -0.7655263115   -3.2920662726    2.3326108873
 H   -0.7615560381   -0.3959441192    4.0215073220
units bohr
0 2
}

basis {

assign 6-31g_2dfp_

[ 6-31g_2dfp_ ]

spherical

!----------------------------------------------------------------------
! Basis Set Exchange
! Version v0.8.13
! https://www.basissetexchange.org
!----------------------------------------------------------------------
!   Basis set: 6-31G(2df,p)
! Description: 6-31G(2df,p)
!        Role: orbital
!     Version: 0  (Data from the original Basis Set Exchange)
!----------------------------------------------------------------------

****
H     0
S    3   1.00
     18.7311370              0.03349460
      2.8253937              0.23472695
      0.6401217              0.81375733
S    1   1.00
      0.1612778              1.00000000
P    1   1.00
      1.5000000              1.0000000
P    1   1.00
      0.3750000              1.0000000
****
B     0
S    6   1.00
   2068.8823000              0.0018663
    310.6495700              0.0142515
     70.6830330              0.0695516
     19.8610800              0.2325729
      6.2993048              0.4670787
      2.1270270              0.3634314
SP   3   1.00
      4.7279710             -0.1303938              0.0745976
      1.1903377             -0.1307889              0.3078467
      0.3594117              1.1309444              0.7434568
SP   1   1.00
      0.1267512              1.0000000              1.0000000
D    1   1.00
      0.8020000              1.0000000
D    1   1.00
      0.2005000              1.0000000
F    1   1.00
      0.5000000              1.0000000
****
C     0
S    6   1.00
   3047.5249000              0.0018347
    457.3695100              0.0140373
    103.9486900              0.0688426
     29.2101550              0.2321844
      9.2866630              0.4679413
      3.1639270              0.3623120
SP   3   1.00
      7.8682724             -0.1193324              0.0689991
      1.8812885             -0.1608542              0.3164240
      0.5442493              1.1434564              0.7443083
SP   1   1.00
      0.1687144              1.0000000              1.0000000
D    1   1.00
      1.2520000              1.0000000
D    1   1.00
      0.3130000              1.0000000
F    1   1.00
      0.8000000              1.0000000
****
N     0
S    6   1.00
   4173.5110000              0.0018348
    627.4579000              0.0139950
    142.9021000              0.0685870
     40.2343300              0.2322410
     12.8202100              0.4690700
      4.3904370              0.3604550
SP   3   1.00
     11.6263580             -0.1149610              0.0675800
      2.7162800             -0.1691180              0.3239070
      0.7722180              1.1458520              0.7408950
SP   1   1.00
      0.2120313              1.0000000              1.0000000
D    1   1.00
      1.8260000              1.0000000
D    1   1.00
      0.4565000              1.0000000
F    1   1.00
      1.0000000              1.0000000
****
O     0
S    6   1.00
   5484.6717000              0.0018311
    825.2349500              0.0139501
    188.0469600              0.0684451
     52.9645000              0.2327143
     16.8975700              0.4701930
      5.7996353              0.3585209
SP   3   1.00
     15.5396160             -0.1107775              0.0708743
      3.5999336             -0.1480263              0.3397528
      1.0137618              1.1307670              0.7271586
SP   1   1.00
      0.2700058              1.0000000              1.0000000
D    1   1.00
      2.5840000              1.0000000
D    1   1.00
      0.6460000              1.0000000
F    1   1.00
      1.4000000              1.0000000
****
F     0
S    6   1.00
   7001.7130900              0.0018196169
   1051.3660900              0.0139160796
    239.2856900              0.0684053245
     67.3974453              0.233185760
     21.5199573              0.471267439
      7.40310130             0.356618546
SP   3   1.00
     20.8479528             -0.108506975            0.0716287243
      4.80830834            -0.146451658            0.3459121030
      1.34406986             1.128688580            0.7224699570
SP   1   1.00
      0.358151393            1.0000000              1.0000000
D    1   1.00
      3.5000000              1.0000000
D    1   1.00
      0.8750000              1.0000000
F    1   1.00
      1.8500000              1.0000000
****
Al     0
S    6   1.00
  13983.1000000              0.00194267
   2098.7500000              0.0148599
    477.7050000              0.0728494
    134.3600000              0.2468300
     42.8709000              0.4872580
     14.5189000              0.3234960
SP   6   1.00
    239.6680000             -0.00292619             0.00460285
     57.4419000             -0.0374080              0.0331990
     18.2859000             -0.1144870              0.1362820
      6.5991400              0.1156350              0.3304760
      2.4904900              0.6125950              0.4491460
      0.9445400              0.3937990              0.2657040
SP   3   1.00
      1.2779000             -0.2276060             -0.0175130
      0.3975900              0.00144583             0.2445330
      0.1600950              1.0927900              0.8049340
SP   1   1.00
      0.0556577              1.0000000              1.0000000
D    1   1.00
      0.6500000              1.0000000
D    1   1.00
      0.1625000              1.0000000
F    1   1.00
      0.2500000              1.0000000
****
Si     0
S    6   1.00
  16115.9000000              0.00195948
   2425.5800000              0.01492880
    553.8670000              0.07284780
    156.3400000              0.24613000
     50.0683000              0.48591400
     17.0178000              0.32500200
SP   6   1.00
    292.7180000             -0.00278094             0.00443826
     69.8731000             -0.03571460             0.03266790
     22.3363000             -0.11498500             0.13472100
      8.1503900              0.09356340             0.32867800
      3.1345800              0.60301700             0.44964000
      1.2254300              0.41895900             0.26137200
SP   3   1.00
      1.7273800             -0.24463000            -0.01779510
      0.5729220              0.00431572             0.25353900
      0.2221920              1.09818000             0.80066900
SP   1   1.00
      0.0778369              1.00000000             1.00000000
D    1   1.00
      0.9000000              1.0000000
D    1   1.00
      0.2250000              1.0000000
F    1   1.00
      0.3200000              1.0000000
****
P     0
S    6   1.00
  19413.3000000              0.0018516
   2909.4200000              0.0142062
    661.3640000              0.0699995
    185.7590000              0.2400790
     59.1943000              0.4847620
     20.0310000              0.3352000
SP   6   1.00
    339.4780000             -0.00278217             0.00456462
     81.0101000             -0.0360499              0.03369360
     25.8780000             -0.1166310              0.13975500
      9.4522100              0.0968328              0.33936200
      3.6656600              0.6144180              0.45092100
      1.4674600              0.4037980              0.23858600
SP   3   1.00
      2.1562300             -0.2529230             -0.01776530
      0.7489970              0.0328517              0.27405800
      0.2831450              1.0812500              0.78542100
SP   1   1.00
      0.0998317              1.0000000              1.00000000
D    1   1.00
      1.1000000              1.0000000
D    1   1.00
      0.2750000              1.0000000
F    1   1.00
      0.4500000              1.0000000
****
S     0
S    6   1.00
  21917.1000000              0.0018690
   3301.4900000              0.0142300
    754.1460000              0.0696960
    212.7110000              0.2384870
     67.9896000              0.4833070
     23.0515000              0.3380740
SP   6   1.00
    423.7350000             -0.0023767              0.0040610
    100.7100000             -0.0316930              0.0306810
     32.1599000             -0.1133170              0.1304520
     11.8079000              0.0560900              0.3272050
      4.6311000              0.5922550              0.4528510
      1.8702500              0.4550060              0.2560420
SP   3   1.00
      2.6158400             -0.2503740             -0.0145110
      0.9221670              0.0669570              0.3102630
      0.3412870              1.0545100              0.7544830
SP   1   1.00
      0.1171670              1.0000000              1.0000000
D    1   1.00
      1.3000000              1.0000000
D    1   1.00
      0.3250000              1.0000000
F    1   1.00
      0.5500000              1.0000000
****
Cl     0
S    6   1.00
  25180.1000000              0.0018330
   3780.3500000              0.0140340
    860.4740000              0.0690970
    242.1450000              0.2374520
     77.3349000              0.4830340
     26.2470000              0.3398560
SP   6   1.00
    491.7650000             -0.0022974              0.0039894
    116.9840000             -0.0307140              0.0303180
     37.4153000             -0.1125280              0.1298800
     13.7834000              0.0450160              0.3279510
      5.4521500              0.5893530              0.4535270
      2.2258800              0.4652060              0.2521540
SP   3   1.00
      3.1864900             -0.2518300             -0.0142990
      1.1442700              0.0615890              0.3235720
      0.4203770              1.0601800              0.7435070
SP   1   1.00
      0.1426570              1.0000000              1.0000000
D    1   1.00
      1.5000000              1.0000000
D    1   1.00
      0.3750000              1.0000000
F    1   1.00
      0.7000000              1.0000000
****
}

set {
reference uhf
freeze_core true
e_convergence 10
d_convergence 10
dft_spherical_points 1202
dft_radial_points 99
}

e = energy('b3lyp')

print_out('Grab this energy {0}'.format(e))
--------------------------------------------------------------------------

    Molecular point group: c1

    Geometry (in Bohr), charge = 0, multiplicity = 2:

       Center              X                  Y                   Z               Mass
    ------------   -----------------  -----------------  -----------------  -----------------
         C           -0.323334303175     0.003542301499    -0.000206080126    12.000000000000
         C            0.060479809625    -1.405133292901    -2.420258804426    12.000000000000
         C            0.060416865625     2.808219309699     0.000188455074    12.000000000000
         C            0.062400737625    -1.404899955301     2.420228309674    12.000000000000
         H            2.084505302725    -1.649745472901    -2.833571938126     1.007825032230
         H           -0.763431343375    -0.398916580001    -4.025613637526     1.007825032230
         H           -0.769325055475    -3.296803874701    -2.338972844726     1.007825032230
         H            2.086018775025     3.295811149499     0.001894389674     1.007825032230
         H           -0.767669363075     3.688141210899     1.676161721174     1.007825032230
         H           -0.765740787675     3.685304455399    -1.677229507726     1.007825032230
         H            2.090125275925    -1.653463411501     2.843705818474     1.007825032230
         H           -0.765528907775    -3.293514476101     2.332651259174     1.007825032230
         H           -0.761558634375    -0.397392322701     4.021547693874     1.007825032230

  Charge       = 0
  Multiplicity = 2
  Basis Set: ANONYMOUS9D780E5D
    Blend: 6-31G_2DFP_
  Basis Set: (ANONYMOUS9D780E5D AUX)
    Blend: DEF2-UNIVERSAL-JKFIT

    Orbital Energies [Eh]
    ---------------------

    Alpha Occupied:

       1A    -10.180342     2A    -10.167329     3A    -10.166891
       4A    -10.166825     5A     -0.797770     6A     -0.686409
       7A     -0.685963     8A     -0.530776     9A     -0.441128
      10A     -0.434951    11A     -0.434393    12A     -0.382866
      13A     -0.382329    14A     -0.363610    15A     -0.338314
      16A     -0.337681    17A     -0.168961

    Alpha Virtual:

      18A      0.076072    19A      0.133909    20A      0.134400
      21A      0.142379    22A      0.142876    23A      0.154881
      24A      0.178517    25A      0.179037    26A      0.203548
      27A      0.214807    28A      0.275816    29A      0.276156
      30A      0.398982    31A      0.399411    32A      0.403411
      33A      0.423934    34A      0.424271    35A      0.456597
      36A      0.494983    37A      0.495785    38A      0.512174
      39A      0.513989    40A      0.578516    41A      0.579081
      42A      0.591374    43A      0.591882    44A      0.602606
      45A      0.624769    46A      0.631744    47A      0.635933
      48A      0.636592    49A      0.663192    50A      0.663637
      51A      0.683583    52A      0.684126    53A      0.734992
      54A      0.824578    55A      0.826222    56A      0.853914
      57A      0.914619    58A      0.915432    59A      0.944026
      60A      0.944525    61A      0.961103    62A      0.961712
      63A      1.003469    64A      1.126874    65A      1.129365
      66A      1.142196    67A      1.162748    68A      1.163799
      69A      1.223333    70A      1.273968    71A      1.275010
      72A      1.279371    73A      1.324240    74A      1.324463
      75A      1.355976    76A      1.365337    77A      1.366725
      78A      1.392436    79A      1.403118    80A      1.405038
      81A      1.416516    82A      1.417711    83A      1.427944
      84A      1.491444    85A      1.499046    86A      1.542450
      87A      1.543230    88A      1.572543    89A      1.576475
      90A      1.669825    91A      1.738323    92A      1.740464
      93A      1.768360    94A      1.830736    95A      1.832075
      96A      1.971719    97A      2.017583    98A      2.018292
      99A      2.020493   100A      2.050090   101A      2.055290
     102A      2.738219   103A      2.738755   104A      2.790924
     105A      2.811442   106A      2.889754   107A      2.890112
     108A      2.894980   109A      2.929136   110A      2.929847
     111A      2.958984   112A      2.963463   113A      2.965329
     114A      3.034005   115A      3.070102   116A      3.072440
     117A      3.084384   118A      3.167975   119A      3.169636
     120A      3.180554   121A      3.284591   122A      3.286024
     123A      3.325874   124A      3.328469   125A      3.375664
     126A      3.488969   127A      3.491276   128A      3.514028
     129A      3.525306   130A      3.567165   131A      3.569335
     132A      3.575515   133A      3.665896   134A      3.666857
     135A      3.679666   136A      3.693324   137A      3.694871
     138A      3.776001   139A      3.777498   140A      3.789349
     141A      3.910800   142A      3.913668   143A      4.034468
     144A      4.110005   145A      4.112750   146A      4.146441
     147A      4.149749   148A      4.173234   149A      4.201325
     150A      4.202584   151A      4.204836   152A      4.210975
     153A      4.315772   154A      4.316125   155A      4.359000
     156A      4.424296   157A      4.424516   158A      4.443524
     159A      4.515778   160A      4.517901   161A      4.577203
     162A      4.579345   163A      4.617586   164A      4.709387
     165A      4.773188   166A      4.776032   167A      4.836952
     168A      4.962862   169A      5.001837   170A      5.004088
     171A      5.228050   172A      5.246249   173A      5.247398
     174A      5.354799   175A      5.356215   176A      5.479328

    Beta Occupied:

       1A    -10.168085     2A    -10.167647     3A    -10.167593
       4A    -10.166519     5A     -0.781095     6A     -0.684215
       7A     -0.683762     8A     -0.511747     9A     -0.431334
      10A     -0.430752    11A     -0.421825    12A     -0.376961
      13A     -0.376403    14A     -0.362594    15A     -0.333435
      16A     -0.332807

    Beta Virtual:

      17A     -0.025743    18A      0.077081    19A      0.134790
      20A      0.135299    21A      0.144272    22A      0.144725
      23A      0.163340    24A      0.182177    25A      0.182720
      26A      0.215037    27A      0.218929    28A      0.282151
      29A      0.282516    30A      0.400220    31A      0.400567
      32A      0.419799    33A      0.426732    34A      0.427096
      35A      0.468507    36A      0.497244    37A      0.498051
      38A      0.513909    39A      0.556329    40A      0.584091
      41A      0.584611    42A      0.597544    43A      0.598072
      44A      0.610019    45A      0.628151    46A      0.631911
      47A      0.639209    48A      0.639877    49A      0.666728
      50A      0.667227    51A      0.686176    52A      0.686805
      53A      0.757515    54A      0.829736    55A      0.831399
      56A      0.855268    57A      0.922600    58A      0.923393
      59A      0.945894    60A      0.953432    61A      0.966347
      62A      0.967075    63A      1.008706    64A      1.130926
      65A      1.133370    66A      1.155561    67A      1.167787
      68A      1.168918    69A      1.232302    70A      1.279565
      71A      1.280610    72A      1.285122    73A      1.329214
      74A      1.329467    75A      1.365380    76A      1.370476
      77A      1.372078    78A      1.393499    79A      1.406610
      80A      1.408483    81A      1.421555    82A      1.422749
      83A      1.428231    84A      1.492495    85A      1.509486
      86A      1.546739    87A      1.547761    88A      1.580534
      89A      1.584225    90A      1.674671    91A      1.744091
      92A      1.746223    93A      1.779136    94A      1.834581
      95A      1.835942    96A      1.972582    97A      2.023941
      98A      2.026956    99A      2.039634   100A      2.056903
     101A      2.061918   102A      2.746509   103A      2.747136
     104A      2.811854   105A      2.816059   106A      2.902446
     107A      2.902823   108A      2.924654   109A      2.931673
     110A      2.932281   111A      2.960056   112A      2.968034
     113A      2.969837   114A      3.041941   115A      3.079885
     116A      3.082317   117A      3.086370   118A      3.183830
     119A      3.185266   120A      3.188235   121A      3.289447
     122A      3.290770   123A      3.329680   124A      3.332275
     125A      3.383480   126A      3.491723   127A      3.493975
     128A      3.512405   129A      3.528361   130A      3.574682
     131A      3.580744   132A      3.583121   133A      3.670658
     134A      3.671592   135A      3.692954   136A      3.725181
     137A      3.726284   138A      3.780520   139A      3.782123
     140A      3.817796   141A      3.920615   142A      3.923486
     143A      4.045356   144A      4.116830   145A      4.119557
     146A      4.153702   147A      4.156907   148A      4.187293
     149A      4.207271   150A      4.210083   151A      4.211190
     152A      4.215492   153A      4.323239   154A      4.323540
     155A      4.362362   156A      4.432504   157A      4.432691
     158A      4.446458   159A      4.523649   160A      4.525603
     161A      4.587723   162A      4.590027   163A      4.624778
     164A      4.719731   165A      4.780096   166A      4.783030
     167A      4.839872   168A      4.967656   169A      5.005886
     170A      5.008119   171A      5.233763   172A      5.248034
     173A      5.249184   174A      5.361262   175A      5.362713
     176A      5.481649

    Final Occupation by Irrep:
              A
    DOCC [    16 ]
    SOCC [     1 ]

  @DF-UKS Final Energy:  -157.81305862570403

   => Energetics <=

    Nuclear Repulsion Energy =            125.3948622027230044
    One-Electron Energy =                -458.7493588898947223
    Two-Electron Energy =                 195.8485845048043927
    DFT Exchange-Correlation Energy =     -20.3071464433367161
    Empirical Dispersion Energy =           0.0000000000000000
    VV10 Nonlocal Energy =                  0.0000000000000000
    Total Energy =                       -157.8130586257040306

  UHF NO Occupations:
  HONO-2 :   15  A 1.9996009
  HONO-1 :   16  A 1.9989804
  HONO-0 :   17  A 1.0000000
  LUNO+0 :   18  A 0.0010196
  LUNO+1 :   19  A 0.0003991
  LUNO+2 :   20  A 0.0001979
  LUNO+3 :   21  A 0.0001972

Computation Completed

Properties will be evaluated at   0.000000,   0.000000,   0.000000 [a0]

Properties computed using the SCF density matrix

  Nuclear Dipole Moment: [e a0]
     X:     0.8272      Y:    -0.0102      Z:     0.0003

  Electronic Dipole Moment: [e a0]
     X:    -0.7493      Y:     0.0110      Z:    -0.0010

  Dipole Moment: [e a0]
     X:     0.0779      Y:     0.0008      Z:    -0.0008     Total:     0.0779

  Dipole Moment: [D]
     X:     0.1980      Y:     0.0019      Z:    -0.0019     Total:     0.1980

*** tstop() called on n056 at Fri Nov  5 15:20:20 2021
Module time:
	user time   =     537.75 seconds =       8.96 minutes
	system time =      11.99 seconds =       0.20 minutes
	total time  =        138 seconds =       2.30 minutes
Total time:
	user time   =     537.75 seconds =       8.96 minutes
	system time =      11.99 seconds =       0.20 minutes
	total time  =        138 seconds =       2.30 minutes
Grab this energy -157.81305862570403
    Psi4 stopped on: Friday, 05 November 2021 03:20PM
    Psi4 wall time for execution: 0:02:18.24

*** Psi4 exiting successfully. Buy a developer a beer!
