                               Psi4 1.4a2.dev629

  ==> Input File <==

--------------------------------------------------------------------------
import os
memory 14 GB

molecule {
 C   -0.3233415378    0.0004944418    0.0024295321
 C    0.0625175680   -1.4016494282   -2.4271316185
 C    0.0596420976    2.8018554095    0.0012536545
 C    0.0611382514   -1.3994811668    2.4258790848
 H    2.0871004569   -1.6422808403   -2.8479522407
 H   -0.7643630970   -0.3890276318   -4.0257315479
 H   -0.7622448941   -3.2970039981   -2.3510899173
 H    2.0909162681    3.2876066789   -0.0033636905
 H   -0.7632018367    3.6831943131    1.6767092918
 H   -0.7719015997    3.6774102459   -1.6700230549
 H    2.0826470970   -1.6458789300    2.8475090328
 H   -0.7690554917   -3.2905286485    2.3457176178
 H   -0.7624611586   -0.3847347593    4.0257938561
units bohr
0 2
}

basis {

assign 6-31g_2dfp_

[ 6-31g_2dfp_ ]

spherical

!----------------------------------------------------------------------
! Basis Set Exchange
! Version v0.8.13
! https://www.basissetexchange.org
!----------------------------------------------------------------------
!   Basis set: 6-31G(2df,p)
! Description: 6-31G(2df,p)
!        Role: orbital
!     Version: 0  (Data from the original Basis Set Exchange)
!----------------------------------------------------------------------

****
H     0
S    3   1.00
     18.7311370              0.03349460
      2.8253937              0.23472695
      0.6401217              0.81375733
S    1   1.00
      0.1612778              1.00000000
P    1   1.00
      1.5000000              1.0000000
P    1   1.00
      0.3750000              1.0000000
****
B     0
S    6   1.00
   2068.8823000              0.0018663
    310.6495700              0.0142515
     70.6830330              0.0695516
     19.8610800              0.2325729
      6.2993048              0.4670787
      2.1270270              0.3634314
SP   3   1.00
      4.7279710             -0.1303938              0.0745976
      1.1903377             -0.1307889              0.3078467
      0.3594117              1.1309444              0.7434568
SP   1   1.00
      0.1267512              1.0000000              1.0000000
D    1   1.00
      0.8020000              1.0000000
D    1   1.00
      0.2005000              1.0000000
F    1   1.00
      0.5000000              1.0000000
****
C     0
S    6   1.00
   3047.5249000              0.0018347
    457.3695100              0.0140373
    103.9486900              0.0688426
     29.2101550              0.2321844
      9.2866630              0.4679413
      3.1639270              0.3623120
SP   3   1.00
      7.8682724             -0.1193324              0.0689991
      1.8812885             -0.1608542              0.3164240
      0.5442493              1.1434564              0.7443083
SP   1   1.00
      0.1687144              1.0000000              1.0000000
D    1   1.00
      1.2520000              1.0000000
D    1   1.00
      0.3130000              1.0000000
F    1   1.00
      0.8000000              1.0000000
****
N     0
S    6   1.00
   4173.5110000              0.0018348
    627.4579000              0.0139950
    142.9021000              0.0685870
     40.2343300              0.2322410
     12.8202100              0.4690700
      4.3904370              0.3604550
SP   3   1.00
     11.6263580             -0.1149610              0.0675800
      2.7162800             -0.1691180              0.3239070
      0.7722180              1.1458520              0.7408950
SP   1   1.00
      0.2120313              1.0000000              1.0000000
D    1   1.00
      1.8260000              1.0000000
D    1   1.00
      0.4565000              1.0000000
F    1   1.00
      1.0000000              1.0000000
****
O     0
S    6   1.00
   5484.6717000              0.0018311
    825.2349500              0.0139501
    188.0469600              0.0684451
     52.9645000              0.2327143
     16.8975700              0.4701930
      5.7996353              0.3585209
SP   3   1.00
     15.5396160             -0.1107775              0.0708743
      3.5999336             -0.1480263              0.3397528
      1.0137618              1.1307670              0.7271586
SP   1   1.00
      0.2700058              1.0000000              1.0000000
D    1   1.00
      2.5840000              1.0000000
D    1   1.00
      0.6460000              1.0000000
F    1   1.00
      1.4000000              1.0000000
****
F     0
S    6   1.00
   7001.7130900              0.0018196169
   1051.3660900              0.0139160796
    239.2856900              0.0684053245
     67.3974453              0.233185760
     21.5199573              0.471267439
      7.40310130             0.356618546
SP   3   1.00
     20.8479528             -0.108506975            0.0716287243
      4.80830834            -0.146451658            0.3459121030
      1.34406986             1.128688580            0.7224699570
SP   1   1.00
      0.358151393            1.0000000              1.0000000
D    1   1.00
      3.5000000              1.0000000
D    1   1.00
      0.8750000              1.0000000
F    1   1.00
      1.8500000              1.0000000
****
Al     0
S    6   1.00
  13983.1000000              0.00194267
   2098.7500000              0.0148599
    477.7050000              0.0728494
    134.3600000              0.2468300
     42.8709000              0.4872580
     14.5189000              0.3234960
SP   6   1.00
    239.6680000             -0.00292619             0.00460285
     57.4419000             -0.0374080              0.0331990
     18.2859000             -0.1144870              0.1362820
      6.5991400              0.1156350              0.3304760
      2.4904900              0.6125950              0.4491460
      0.9445400              0.3937990              0.2657040
SP   3   1.00
      1.2779000             -0.2276060             -0.0175130
      0.3975900              0.00144583             0.2445330
      0.1600950              1.0927900              0.8049340
SP   1   1.00
      0.0556577              1.0000000              1.0000000
D    1   1.00
      0.6500000              1.0000000
D    1   1.00
      0.1625000              1.0000000
F    1   1.00
      0.2500000              1.0000000
****
Si     0
S    6   1.00
  16115.9000000              0.00195948
   2425.5800000              0.01492880
    553.8670000              0.07284780
    156.3400000              0.24613000
     50.0683000              0.48591400
     17.0178000              0.32500200
SP   6   1.00
    292.7180000             -0.00278094             0.00443826
     69.8731000             -0.03571460             0.03266790
     22.3363000             -0.11498500             0.13472100
      8.1503900              0.09356340             0.32867800
      3.1345800              0.60301700             0.44964000
      1.2254300              0.41895900             0.26137200
SP   3   1.00
      1.7273800             -0.24463000            -0.01779510
      0.5729220              0.00431572             0.25353900
      0.2221920              1.09818000             0.80066900
SP   1   1.00
      0.0778369              1.00000000             1.00000000
D    1   1.00
      0.9000000              1.0000000
D    1   1.00
      0.2250000              1.0000000
F    1   1.00
      0.3200000              1.0000000
****
P     0
S    6   1.00
  19413.3000000              0.0018516
   2909.4200000              0.0142062
    661.3640000              0.0699995
    185.7590000              0.2400790
     59.1943000              0.4847620
     20.0310000              0.3352000
SP   6   1.00
    339.4780000             -0.00278217             0.00456462
     81.0101000             -0.0360499              0.03369360
     25.8780000             -0.1166310              0.13975500
      9.4522100              0.0968328              0.33936200
      3.6656600              0.6144180              0.45092100
      1.4674600              0.4037980              0.23858600
SP   3   1.00
      2.1562300             -0.2529230             -0.01776530
      0.7489970              0.0328517              0.27405800
      0.2831450              1.0812500              0.78542100
SP   1   1.00
      0.0998317              1.0000000              1.00000000
D    1   1.00
      1.1000000              1.0000000
D    1   1.00
      0.2750000              1.0000000
F    1   1.00
      0.4500000              1.0000000
****
S     0
S    6   1.00
  21917.1000000              0.0018690
   3301.4900000              0.0142300
    754.1460000              0.0696960
    212.7110000              0.2384870
     67.9896000              0.4833070
     23.0515000              0.3380740
SP   6   1.00
    423.7350000             -0.0023767              0.0040610
    100.7100000             -0.0316930              0.0306810
     32.1599000             -0.1133170              0.1304520
     11.8079000              0.0560900              0.3272050
      4.6311000              0.5922550              0.4528510
      1.8702500              0.4550060              0.2560420
SP   3   1.00
      2.6158400             -0.2503740             -0.0145110
      0.9221670              0.0669570              0.3102630
      0.3412870              1.0545100              0.7544830
SP   1   1.00
      0.1171670              1.0000000              1.0000000
D    1   1.00
      1.3000000              1.0000000
D    1   1.00
      0.3250000              1.0000000
F    1   1.00
      0.5500000              1.0000000
****
Cl     0
S    6   1.00
  25180.1000000              0.0018330
   3780.3500000              0.0140340
    860.4740000              0.0690970
    242.1450000              0.2374520
     77.3349000              0.4830340
     26.2470000              0.3398560
SP   6   1.00
    491.7650000             -0.0022974              0.0039894
    116.9840000             -0.0307140              0.0303180
     37.4153000             -0.1125280              0.1298800
     13.7834000              0.0450160              0.3279510
      5.4521500              0.5893530              0.4535270
      2.2258800              0.4652060              0.2521540
SP   3   1.00
      3.1864900             -0.2518300             -0.0142990
      1.1442700              0.0615890              0.3235720
      0.4203770              1.0601800              0.7435070
SP   1   1.00
      0.1426570              1.0000000              1.0000000
D    1   1.00
      1.5000000              1.0000000
D    1   1.00
      0.3750000              1.0000000
F    1   1.00
      0.7000000              1.0000000
****
}

set {
reference uhf
freeze_core true
e_convergence 10
d_convergence 10
dft_spherical_points 1202
dft_radial_points 99
}

e = energy('b3lyp')

print_out('Grab this energy {0}'.format(e))
--------------------------------------------------------------------------

    Molecular point group: c1

    Geometry (in Bohr), charge = 0, multiplicity = 2:

       Center              X                  Y                   Z               Mass
    ------------   -----------------  -----------------  -----------------  -----------------
         C           -0.323340837491     0.000260033620     0.001961370843    12.000000000000
         C            0.062518268309    -1.401883836380    -2.427599779757    12.000000000000
         C            0.059642797909     2.801621001320     0.000785493243    12.000000000000
         C            0.061138951709    -1.399715574980     2.425410923543    12.000000000000
         H            2.087101157209    -1.642515248480    -2.848420401957     1.007825032230
         H           -0.764362396691    -0.389262039980    -4.026199709157     1.007825032230
         H           -0.762244193791    -3.297238406280    -2.351558078557     1.007825032230
         H            2.090916968409     3.287372270720    -0.003831851757     1.007825032230
         H           -0.763201136391     3.682959904920     1.676241130543     1.007825032230
         H           -0.771900899391     3.677175837720    -1.670491216157     1.007825032230
         H            2.082647797309    -1.646113338180     2.847040871543     1.007825032230
         H           -0.769054791391    -3.290763056680     2.345249456543     1.007825032230
         H           -0.762460458291    -0.384969167480     4.025325694843     1.007825032230

  Charge       = 0
  Multiplicity = 2
  Basis Set: ANONYMOUS4798CE00
    Blend: 6-31G_2DFP_
  Basis Set: (ANONYMOUS4798CE00 AUX)
    Blend: DEF2-UNIVERSAL-JKFIT

    Orbital Energies [Eh]
    ---------------------

    Alpha Occupied:

       1A    -10.180342     2A    -10.167191     3A    -10.167040
       4A    -10.166813     5A     -0.797767     6A     -0.686330
       7A     -0.686045     8A     -0.530778     9A     -0.441127
      10A     -0.434745    11A     -0.434596    12A     -0.382648
      13A     -0.382549    14A     -0.363610    15A     -0.338151
      16A     -0.337846    17A     -0.168961

    Alpha Virtual:

      18A      0.076071    19A      0.133975    20A      0.134334
      21A      0.142563    22A      0.142688    23A      0.154880
      24A      0.178693    25A      0.178863    26A      0.203548
      27A      0.214802    28A      0.275641    29A      0.276331
      30A      0.399185    31A      0.399260    32A      0.403355
      33A      0.424007    34A      0.424190    35A      0.456593
      36A      0.495237    37A      0.495539    38A      0.512161
      39A      0.513981    40A      0.578552    41A      0.579073
      42A      0.591363    43A      0.591899    44A      0.602584
      45A      0.624762    46A      0.631751    47A      0.636111
      48A      0.636409    49A      0.662997    50A      0.663840
      51A      0.683677    52A      0.684032    53A      0.734996
      54A      0.825366    55A      0.825439    56A      0.853922
      57A      0.914778    58A      0.915274    59A      0.944123
      60A      0.944610    61A      0.961173    62A      0.961421
      63A      1.003454    64A      1.128031    65A      1.128164
      66A      1.142202    67A      1.163120    68A      1.163453
      69A      1.223328    70A      1.274244    71A      1.274715
      72A      1.279378    73A      1.324226    74A      1.324486
      75A      1.355964    76A      1.365749    77A      1.366342
      78A      1.392444    79A      1.403506    80A      1.404610
      81A      1.416513    82A      1.417722    83A      1.427918
      84A      1.491489    85A      1.499080    86A      1.542366
      87A      1.543312    88A      1.574175    89A      1.574713
      90A      1.669825    91A      1.739086    92A      1.739712
      93A      1.768350    94A      1.830489    95A      1.832300
      96A      1.971715    97A      2.017975    98A      2.018832
      99A      2.019577   100A      2.051319   101A      2.054008
     102A      2.738072   103A      2.738894   104A      2.790930
     105A      2.811419   106A      2.889457   107A      2.890375
     108A      2.895017   109A      2.929325   110A      2.929672
     111A      2.958996   112A      2.963951   113A      2.964803
     114A      3.034016   115A      3.070985   116A      3.071574
     117A      3.084363   118A      3.168542   119A      3.168993
     120A      3.180629   121A      3.284988   122A      3.285643
     123A      3.326672   124A      3.327644   125A      3.375627
     126A      3.489866   127A      3.490446   128A      3.514003
     129A      3.525313   130A      3.567551   131A      3.569245
     132A      3.575156   133A      3.665627   134A      3.667106
     135A      3.679674   136A      3.693739   137A      3.694521
     138A      3.775459   139A      3.778100   140A      3.789182
     141A      3.911731   142A      3.912734   143A      4.034434
     144A      4.110243   145A      4.112468   146A      4.147299
     147A      4.148891   148A      4.173233   149A      4.202014
     150A      4.202349   151A      4.204390   152A      4.210940
     153A      4.314980   154A      4.316999   155A      4.358983
     156A      4.423873   157A      4.425052   158A      4.443435
     159A      4.515819   160A      4.517868   161A      4.577542
     162A      4.578963   163A      4.617554   164A      4.709452
     165A      4.773833   166A      4.775401   167A      4.836909
     168A      4.962854   169A      5.001979   170A      5.003928
     171A      5.227994   172A      5.244741   173A      5.248874
     174A      5.353993   175A      5.357092   176A      5.479379

    Beta Occupied:

       1A    -10.167946     2A    -10.167802     3A    -10.167575
       4A    -10.166519     5A     -0.781093     6A     -0.684122
       7A     -0.683858     8A     -0.511749     9A     -0.431124
      10A     -0.430964    11A     -0.421820    12A     -0.376738
      13A     -0.376629    14A     -0.362594    15A     -0.333272
      16A     -0.332970

    Beta Virtual:

      17A     -0.025743    18A      0.077080    19A      0.134875
      20A      0.135215    21A      0.144454    22A      0.144538
      23A      0.163337    24A      0.182346    25A      0.182554
      26A      0.215032    27A      0.218930    28A      0.281999
      29A      0.282669    30A      0.400365    31A      0.400428
      32A      0.419792    33A      0.426813    34A      0.427007
      35A      0.468502    36A      0.497492    37A      0.497806
      38A      0.513896    39A      0.556324    40A      0.584103
      41A      0.584623    42A      0.597545    43A      0.598079
      44A      0.610003    45A      0.628139    46A      0.631918
      47A      0.639381    48A      0.639700    49A      0.666594
      50A      0.667372    51A      0.686332    52A      0.686648
      53A      0.757518    54A      0.830546    55A      0.830596
      56A      0.855276    57A      0.922759    58A      0.923235
      59A      0.945960    60A      0.953539    61A      0.966441
      62A      0.966765    63A      1.008694    64A      1.132031
      65A      1.132223    66A      1.155573    67A      1.168193
      68A      1.168531    69A      1.232300    70A      1.279829
      71A      1.280319    72A      1.285138    73A      1.329229
      74A      1.329463    75A      1.365374    76A      1.371032
      77A      1.371547    78A      1.393502    79A      1.406923
      80A      1.408124    81A      1.421553    82A      1.422783
      83A      1.428190    84A      1.492538    85A      1.509523
      86A      1.546793    87A      1.547698    88A      1.582090
      89A      1.582544    90A      1.674672    91A      1.744842
      92A      1.745486    93A      1.779123    94A      1.834335
      95A      1.836166    96A      1.972576    97A      2.024951
      98A      2.025924    99A      2.039673   100A      2.058100
     101A      2.060669   102A      2.746412   103A      2.747226
     104A      2.811832   105A      2.816064   106A      2.902259
     107A      2.903012   108A      2.924638   109A      2.931804
     110A      2.932175   111A      2.960058   112A      2.968500
     113A      2.969349   114A      3.041949   115A      3.080906
     116A      3.081452   117A      3.086202   118A      3.184126
     119A      3.184842   120A      3.188379   121A      3.289776
     122A      3.290451   123A      3.330472   124A      3.331454
     125A      3.383444   126A      3.492598   127A      3.493176
     128A      3.512373   129A      3.528361   130A      3.574979
     131A      3.580943   132A      3.582560   133A      3.670358
     134A      3.671898   135A      3.692949   136A      3.725495
     137A      3.726019   138A      3.780032   139A      3.782613
     140A      3.817693   141A      3.921586   142A      3.922513
     143A      4.045320   144A      4.117069   145A      4.119272
     146A      4.154593   147A      4.156023   148A      4.187282
     149A      4.207970   150A      4.209438   151A      4.211196
     152A      4.215416   153A      4.322399   154A      4.324457
     155A      4.362346   156A      4.432106   157A      4.433243
     158A      4.446324   159A      4.523616   160A      4.525651
     161A      4.588132   162A      4.589571   163A      4.624753
     164A      4.719797   165A      4.780818   166A      4.782324
     167A      4.839826   168A      4.967649   169A      5.006021
     170A      5.007965   171A      5.233707   172A      5.246537
     173A      5.250648   174A      5.360451   175A      5.363594
     176A      5.481700

    Final Occupation by Irrep:
              A
    DOCC [    16 ]
    SOCC [     1 ]

  @DF-UKS Final Energy:  -157.81305833811115

   => Energetics <=

    Nuclear Repulsion Energy =            125.3946633004532174
    One-Electron Energy =                -458.7489590821368211
    Two-Electron Energy =                 195.8483846753530315
    DFT Exchange-Correlation Energy =     -20.3071472317805579
    Empirical Dispersion Energy =           0.0000000000000000
    VV10 Nonlocal Energy =                  0.0000000000000000
    Total Energy =                       -157.8130583381111478

  UHF NO Occupations:
  HONO-2 :   15  A 1.9996008
  HONO-1 :   16  A 1.9989804
  HONO-0 :   17  A 1.0000000
  LUNO+0 :   18  A 0.0010196
  LUNO+1 :   19  A 0.0003992
  LUNO+2 :   20  A 0.0001981
  LUNO+3 :   21  A 0.0001970

Computation Completed

Properties will be evaluated at   0.000000,   0.000000,   0.000000 [a0]

Properties computed using the SCF density matrix

  Nuclear Dipole Moment: [e a0]
     X:     0.8272      Y:    -0.0017      Z:    -0.0033

  Electronic Dipole Moment: [e a0]
     X:    -0.7493      Y:     0.0023      Z:     0.0033

  Dipole Moment: [e a0]
     X:     0.0779      Y:     0.0006      Z:    -0.0000     Total:     0.0779

  Dipole Moment: [D]
     X:     0.1980      Y:     0.0016      Z:    -0.0001     Total:     0.1980

*** tstop() called on n032 at Fri Nov  5 14:21:02 2021
Module time:
	user time   =     639.70 seconds =      10.66 minutes
	system time =      12.12 seconds =       0.20 minutes
	total time  =        164 seconds =       2.73 minutes
Total time:
	user time   =     639.70 seconds =      10.66 minutes
	system time =      12.12 seconds =       0.20 minutes
	total time  =        164 seconds =       2.73 minutes
Grab this energy -157.81305833811115
    Psi4 stopped on: Friday, 05 November 2021 02:21PM
    Psi4 wall time for execution: 0:02:43.86

*** Psi4 exiting successfully. Buy a developer a beer!
