                               Psi4 1.4a2.dev629

  ==> Input File <==

--------------------------------------------------------------------------
import os
memory 14 GB

molecule {
 C   -0.3233413223   -0.0024302180   -0.0024304923
 C    0.0600521042   -1.4004188369   -2.4246706026
 C    0.0618156174    2.8030128488   -0.0012521164
 C    0.0614303927   -1.4025867799    2.4259211850
 H    2.0834234421   -1.6435939018   -2.8490251756
 H   -0.7689355201   -0.3865014891   -4.0207067136
 H   -0.7659051301   -3.2919055003   -2.3457203549
 H    2.0893626318    3.2872803179    0.0033559884
 H   -0.7685864020    3.6802433143    1.6729143527
 H   -0.7598666100    3.6860317988   -1.6795897624
 H    2.0878684426   -1.6399847232    2.8494654366
 H   -0.7590961404   -3.2983636304    2.3510973036
 H   -0.7708293825   -0.3908075138    4.0206409516
units bohr
0 2
}

basis {

assign 6-31g_2dfp_

[ 6-31g_2dfp_ ]

spherical

!----------------------------------------------------------------------
! Basis Set Exchange
! Version v0.8.13
! https://www.basissetexchange.org
!----------------------------------------------------------------------
!   Basis set: 6-31G(2df,p)
! Description: 6-31G(2df,p)
!        Role: orbital
!     Version: 0  (Data from the original Basis Set Exchange)
!----------------------------------------------------------------------

****
H     0
S    3   1.00
     18.7311370              0.03349460
      2.8253937              0.23472695
      0.6401217              0.81375733
S    1   1.00
      0.1612778              1.00000000
P    1   1.00
      1.5000000              1.0000000
P    1   1.00
      0.3750000              1.0000000
****
B     0
S    6   1.00
   2068.8823000              0.0018663
    310.6495700              0.0142515
     70.6830330              0.0695516
     19.8610800              0.2325729
      6.2993048              0.4670787
      2.1270270              0.3634314
SP   3   1.00
      4.7279710             -0.1303938              0.0745976
      1.1903377             -0.1307889              0.3078467
      0.3594117              1.1309444              0.7434568
SP   1   1.00
      0.1267512              1.0000000              1.0000000
D    1   1.00
      0.8020000              1.0000000
D    1   1.00
      0.2005000              1.0000000
F    1   1.00
      0.5000000              1.0000000
****
C     0
S    6   1.00
   3047.5249000              0.0018347
    457.3695100              0.0140373
    103.9486900              0.0688426
     29.2101550              0.2321844
      9.2866630              0.4679413
      3.1639270              0.3623120
SP   3   1.00
      7.8682724             -0.1193324              0.0689991
      1.8812885             -0.1608542              0.3164240
      0.5442493              1.1434564              0.7443083
SP   1   1.00
      0.1687144              1.0000000              1.0000000
D    1   1.00
      1.2520000              1.0000000
D    1   1.00
      0.3130000              1.0000000
F    1   1.00
      0.8000000              1.0000000
****
N     0
S    6   1.00
   4173.5110000              0.0018348
    627.4579000              0.0139950
    142.9021000              0.0685870
     40.2343300              0.2322410
     12.8202100              0.4690700
      4.3904370              0.3604550
SP   3   1.00
     11.6263580             -0.1149610              0.0675800
      2.7162800             -0.1691180              0.3239070
      0.7722180              1.1458520              0.7408950
SP   1   1.00
      0.2120313              1.0000000              1.0000000
D    1   1.00
      1.8260000              1.0000000
D    1   1.00
      0.4565000              1.0000000
F    1   1.00
      1.0000000              1.0000000
****
O     0
S    6   1.00
   5484.6717000              0.0018311
    825.2349500              0.0139501
    188.0469600              0.0684451
     52.9645000              0.2327143
     16.8975700              0.4701930
      5.7996353              0.3585209
SP   3   1.00
     15.5396160             -0.1107775              0.0708743
      3.5999336             -0.1480263              0.3397528
      1.0137618              1.1307670              0.7271586
SP   1   1.00
      0.2700058              1.0000000              1.0000000
D    1   1.00
      2.5840000              1.0000000
D    1   1.00
      0.6460000              1.0000000
F    1   1.00
      1.4000000              1.0000000
****
F     0
S    6   1.00
   7001.7130900              0.0018196169
   1051.3660900              0.0139160796
    239.2856900              0.0684053245
     67.3974453              0.233185760
     21.5199573              0.471267439
      7.40310130             0.356618546
SP   3   1.00
     20.8479528             -0.108506975            0.0716287243
      4.80830834            -0.146451658            0.3459121030
      1.34406986             1.128688580            0.7224699570
SP   1   1.00
      0.358151393            1.0000000              1.0000000
D    1   1.00
      3.5000000              1.0000000
D    1   1.00
      0.8750000              1.0000000
F    1   1.00
      1.8500000              1.0000000
****
Al     0
S    6   1.00
  13983.1000000              0.00194267
   2098.7500000              0.0148599
    477.7050000              0.0728494
    134.3600000              0.2468300
     42.8709000              0.4872580
     14.5189000              0.3234960
SP   6   1.00
    239.6680000             -0.00292619             0.00460285
     57.4419000             -0.0374080              0.0331990
     18.2859000             -0.1144870              0.1362820
      6.5991400              0.1156350              0.3304760
      2.4904900              0.6125950              0.4491460
      0.9445400              0.3937990              0.2657040
SP   3   1.00
      1.2779000             -0.2276060             -0.0175130
      0.3975900              0.00144583             0.2445330
      0.1600950              1.0927900              0.8049340
SP   1   1.00
      0.0556577              1.0000000              1.0000000
D    1   1.00
      0.6500000              1.0000000
D    1   1.00
      0.1625000              1.0000000
F    1   1.00
      0.2500000              1.0000000
****
Si     0
S    6   1.00
  16115.9000000              0.00195948
   2425.5800000              0.01492880
    553.8670000              0.07284780
    156.3400000              0.24613000
     50.0683000              0.48591400
     17.0178000              0.32500200
SP   6   1.00
    292.7180000             -0.00278094             0.00443826
     69.8731000             -0.03571460             0.03266790
     22.3363000             -0.11498500             0.13472100
      8.1503900              0.09356340             0.32867800
      3.1345800              0.60301700             0.44964000
      1.2254300              0.41895900             0.26137200
SP   3   1.00
      1.7273800             -0.24463000            -0.01779510
      0.5729220              0.00431572             0.25353900
      0.2221920              1.09818000             0.80066900
SP   1   1.00
      0.0778369              1.00000000             1.00000000
D    1   1.00
      0.9000000              1.0000000
D    1   1.00
      0.2250000              1.0000000
F    1   1.00
      0.3200000              1.0000000
****
P     0
S    6   1.00
  19413.3000000              0.0018516
   2909.4200000              0.0142062
    661.3640000              0.0699995
    185.7590000              0.2400790
     59.1943000              0.4847620
     20.0310000              0.3352000
SP   6   1.00
    339.4780000             -0.00278217             0.00456462
     81.0101000             -0.0360499              0.03369360
     25.8780000             -0.1166310              0.13975500
      9.4522100              0.0968328              0.33936200
      3.6656600              0.6144180              0.45092100
      1.4674600              0.4037980              0.23858600
SP   3   1.00
      2.1562300             -0.2529230             -0.01776530
      0.7489970              0.0328517              0.27405800
      0.2831450              1.0812500              0.78542100
SP   1   1.00
      0.0998317              1.0000000              1.00000000
D    1   1.00
      1.1000000              1.0000000
D    1   1.00
      0.2750000              1.0000000
F    1   1.00
      0.4500000              1.0000000
****
S     0
S    6   1.00
  21917.1000000              0.0018690
   3301.4900000              0.0142300
    754.1460000              0.0696960
    212.7110000              0.2384870
     67.9896000              0.4833070
     23.0515000              0.3380740
SP   6   1.00
    423.7350000             -0.0023767              0.0040610
    100.7100000             -0.0316930              0.0306810
     32.1599000             -0.1133170              0.1304520
     11.8079000              0.0560900              0.3272050
      4.6311000              0.5922550              0.4528510
      1.8702500              0.4550060              0.2560420
SP   3   1.00
      2.6158400             -0.2503740             -0.0145110
      0.9221670              0.0669570              0.3102630
      0.3412870              1.0545100              0.7544830
SP   1   1.00
      0.1171670              1.0000000              1.0000000
D    1   1.00
      1.3000000              1.0000000
D    1   1.00
      0.3250000              1.0000000
F    1   1.00
      0.5500000              1.0000000
****
Cl     0
S    6   1.00
  25180.1000000              0.0018330
   3780.3500000              0.0140340
    860.4740000              0.0690970
    242.1450000              0.2374520
     77.3349000              0.4830340
     26.2470000              0.3398560
SP   6   1.00
    491.7650000             -0.0022974              0.0039894
    116.9840000             -0.0307140              0.0303180
     37.4153000             -0.1125280              0.1298800
     13.7834000              0.0450160              0.3279510
      5.4521500              0.5893530              0.4535270
      2.2258800              0.4652060              0.2521540
SP   3   1.00
      3.1864900             -0.2518300             -0.0142990
      1.1442700              0.0615890              0.3235720
      0.4203770              1.0601800              0.7435070
SP   1   1.00
      0.1426570              1.0000000              1.0000000
D    1   1.00
      1.5000000              1.0000000
D    1   1.00
      0.3750000              1.0000000
F    1   1.00
      0.7000000              1.0000000
****
}

set {
reference uhf
freeze_core true
e_convergence 10
d_convergence 10
dft_spherical_points 1202
dft_radial_points 99
}

e = energy('b3lyp')

print_out('Grab this energy {0}'.format(e))
--------------------------------------------------------------------------

    Molecular point group: c1

    Geometry (in Bohr), charge = 0, multiplicity = 2:

       Center              X                  Y                   Z               Mass
    ------------   -----------------  -----------------  -----------------  -----------------
         C           -0.323340701499    -0.001963104083    -0.001962066519    12.000000000000
         C            0.060052725001    -1.399951722983    -2.424202176819    12.000000000000
         C            0.061816238201     2.803479962717    -0.000783690619    12.000000000000
         C            0.061431013501    -1.402119665983     2.426389610781    12.000000000000
         H            2.083424062901    -1.643126787883    -2.848556749819     1.007825032230
         H           -0.768934899299    -0.386034375183    -4.020238287819     1.007825032230
         H           -0.765904509299    -3.291438386383    -2.345251929119     1.007825032230
         H            2.089363252601     3.287747431817     0.003824414181     1.007825032230
         H           -0.768585781199     3.680710428217     1.673382778481     1.007825032230
         H           -0.759865989199     3.686498912717    -1.679121336619     1.007825032230
         H            2.087869063401    -1.639517609283     2.849933862381     1.007825032230
         H           -0.759095519599    -3.297896516483     2.351565729381     1.007825032230
         H           -0.770828761699    -0.390340399883     4.021109377381     1.007825032230

  Charge       = 0
  Multiplicity = 2
  Basis Set: ANONYMOUSB7B5F141
    Blend: 6-31G_2DFP_
  Basis Set: (ANONYMOUSB7B5F141 AUX)
    Blend: DEF2-UNIVERSAL-JKFIT

    Orbital Energies [Eh]
    ---------------------

    Alpha Occupied:

       1A    -10.180341     2A    -10.167233     3A    -10.167093
       4A    -10.166718     5A     -0.797769     6A     -0.686388
       7A     -0.685985     8A     -0.530776     9A     -0.441126
      10A     -0.434774    11A     -0.434570    12A     -0.382661
      13A     -0.382537    14A     -0.363610    15A     -0.338209
      16A     -0.337787    17A     -0.168960

    Alpha Virtual:

      18A      0.076073    19A      0.134067    20A      0.134246
      21A      0.142608    22A      0.142645    23A      0.154879
      24A      0.178771    25A      0.178781    26A      0.203547
      27A      0.214801    28A      0.275512    29A      0.276459
      30A      0.399207    31A      0.399227    32A      0.403368
      33A      0.424050    34A      0.424148    35A      0.456595
      36A      0.495318    37A      0.495460    38A      0.512160
      39A      0.513978    40A      0.578541    41A      0.579081
      42A      0.591318    43A      0.591957    44A      0.602576
      45A      0.624762    46A      0.631766    47A      0.636132
      48A      0.636378    49A      0.663125    50A      0.663702
      51A      0.683823    52A      0.683882    53A      0.734995
      54A      0.825365    55A      0.825449    56A      0.853916
      57A      0.914844    58A      0.915211    59A      0.944120
      60A      0.944613    61A      0.961245    62A      0.961344
      63A      1.003456    64A      1.128023    65A      1.128151
      66A      1.142199    67A      1.163136    68A      1.163458
      69A      1.223329    70A      1.274226    71A      1.274746
      72A      1.279367    73A      1.324186    74A      1.324526
      75A      1.356000    76A      1.365619    77A      1.366472
      78A      1.392436    79A      1.403600    80A      1.404503
      81A      1.416745    82A      1.417481    83A      1.427925
      84A      1.491493    85A      1.499086    86A      1.542641
      87A      1.543018    88A      1.574132    89A      1.574756
      90A      1.669836    91A      1.739038    92A      1.739800
      93A      1.768311    94A      1.830803    95A      1.831979
      96A      1.971730    97A      2.018098    98A      2.018998
      99A      2.019270   100A      2.051285   101A      2.054030
     102A      2.738406   103A      2.738553   104A      2.790934
     105A      2.811416   106A      2.889350   107A      2.890436
     108A      2.895064   109A      2.929264   110A      2.929736
     111A      2.958991   112A      2.964009   113A      2.964746
     114A      3.034008   115A      3.070875   116A      3.071694
     117A      3.084345   118A      3.168696   119A      3.168816
     120A      3.180643   121A      3.285249   122A      3.285380
     123A      3.326535   124A      3.327781   125A      3.375619
     126A      3.489834   127A      3.490485   128A      3.513991
     129A      3.525302   130A      3.567231   131A      3.569576
     132A      3.575148   133A      3.666035   134A      3.666664
     135A      3.679697   136A      3.693651   137A      3.694598
     138A      3.774874   139A      3.778661   140A      3.789209
     141A      3.911536   142A      3.912931   143A      4.034447
     144A      4.109915   145A      4.112818   146A      4.147330
     147A      4.148908   148A      4.173248   149A      4.202252
     150A      4.202606   151A      4.203918   152A      4.210898
     153A      4.315214   154A      4.316705   155A      4.358982
     156A      4.423751   157A      4.425146   158A      4.443447
     159A      4.515766   160A      4.517899   161A      4.577340
     162A      4.579154   163A      4.617528   164A      4.709450
     165A      4.773809   166A      4.775465   167A      4.836925
     168A      4.962835   169A      5.002078   170A      5.003853
     171A      5.228015   172A      5.246653   173A      5.246981
     174A      5.354153   175A      5.356879   176A      5.479353

    Beta Occupied:

       1A    -10.167989     2A    -10.167852     3A    -10.167482
       4A    -10.166518     5A     -0.781094     6A     -0.684174
       7A     -0.683804     8A     -0.511747     9A     -0.431155
      10A     -0.430931    11A     -0.421823    12A     -0.376730
      13A     -0.376640    14A     -0.362594    15A     -0.333332
      16A     -0.332909

    Beta Virtual:

      17A     -0.025742    18A      0.077082    19A      0.134951
      20A      0.135141    21A      0.144465    22A      0.144530
      23A      0.163337    24A      0.182441    25A      0.182456
      26A      0.215031    27A      0.218929    28A      0.281875
      29A      0.282792    30A      0.400392    31A      0.400399
      32A      0.419795    33A      0.426843    34A      0.426978
      35A      0.468504    36A      0.497589    37A      0.497710
      38A      0.513895    39A      0.556321    40A      0.584075
      41A      0.584650    42A      0.597525    43A      0.598107
      44A      0.609998    45A      0.628138    46A      0.631926
      47A      0.639386    48A      0.639694    49A      0.666703
      50A      0.667250    51A      0.686476    52A      0.686501
      53A      0.757517    54A      0.830572    55A      0.830579
      56A      0.855270    57A      0.922811    58A      0.923187
      59A      0.945957    60A      0.953541    61A      0.966509
      62A      0.966694    63A      1.008695    64A      1.131981
      65A      1.132255    66A      1.155567    67A      1.168303
      68A      1.168441    69A      1.232302    70A      1.279814
      71A      1.280346    72A      1.285129    73A      1.329194
      74A      1.329499    75A      1.365415    76A      1.370916
      77A      1.371660    78A      1.393494    79A      1.407025
      80A      1.408007    81A      1.421803    82A      1.422521
      83A      1.428199    84A      1.492541    85A      1.509529
      86A      1.547090    87A      1.547384    88A      1.582065
      89A      1.582569    90A      1.674683    91A      1.744780
      92A      1.745581    93A      1.779091    94A      1.834648
      95A      1.835844    96A      1.972589    97A      2.025322
      98A      2.025535    99A      2.039678   100A      2.058050
     101A      2.060705   102A      2.746704   103A      2.746929
     104A      2.811830   105A      2.816066   106A      2.902133
     107A      2.903134   108A      2.924626   109A      2.931785
     110A      2.932219   111A      2.960054   112A      2.968578
     113A      2.969268   114A      3.041942   115A      3.080842
     116A      3.081547   117A      3.086163   118A      3.184321
     119A      3.184574   120A      3.188442   121A      3.290043
     122A      3.290183   123A      3.330350   124A      3.331575
     125A      3.383439   126A      3.492534   127A      3.493245
     128A      3.512364   129A      3.528352   130A      3.574977
     131A      3.580633   132A      3.582869   133A      3.670997
     134A      3.671238   135A      3.692955   136A      3.725502
     137A      3.726005   138A      3.779498   139A      3.783130
     140A      3.817712   141A      3.921415   142A      3.922689
     143A      4.045334   144A      4.116735   145A      4.119629
     146A      4.154633   147A      4.156025   148A      4.187306
     149A      4.208284   150A      4.209481   151A      4.210849
     152A      4.215378   153A      4.322608   154A      4.324191
     155A      4.362345   156A      4.431997   157A      4.433318
     158A      4.446344   159A      4.523571   160A      4.525672
     161A      4.587935   162A      4.589754   163A      4.624730
     164A      4.719794   165A      4.780822   166A      4.782361
     167A      4.839843   168A      4.967629   169A      5.006091
     170A      5.007919   171A      5.233729   172A      5.248421
     173A      5.248782   174A      5.360603   175A      5.363391
     176A      5.481674

    Final Occupation by Irrep:
              A
    DOCC [    16 ]
    SOCC [     1 ]

  @DF-UKS Final Energy:  -157.81306422744117

   => Energetics <=

    Nuclear Repulsion Energy =            125.3946638199853112
    One-Electron Energy =                -458.7489806159351247
    Two-Electron Energy =                 195.8483984203309944
    DFT Exchange-Correlation Energy =     -20.3071458518223764
    Empirical Dispersion Energy =           0.0000000000000000
    VV10 Nonlocal Energy =                  0.0000000000000000
    Total Energy =                       -157.8130642274411741

  UHF NO Occupations:
  HONO-2 :   15  A 1.9996009
  HONO-1 :   16  A 1.9989805
  HONO-0 :   17  A 1.0000000
  LUNO+0 :   18  A 0.0010195
  LUNO+1 :   19  A 0.0003991
  LUNO+2 :   20  A 0.0001984
  LUNO+3 :   21  A 0.0001967

Computation Completed

Properties will be evaluated at   0.000000,   0.000000,   0.000000 [a0]

Properties computed using the SCF density matrix

  Nuclear Dipole Moment: [e a0]
     X:     0.8272      Y:     0.0033      Z:     0.0033

  Electronic Dipole Moment: [e a0]
     X:    -0.7493      Y:    -0.0032      Z:    -0.0033

  Dipole Moment: [e a0]
     X:     0.0779      Y:     0.0000      Z:     0.0000     Total:     0.0779

  Dipole Moment: [D]
     X:     0.1980      Y:     0.0001      Z:     0.0001     Total:     0.1980

*** tstop() called on n036 at Fri Nov  5 15:46:00 2021
Module time:
	user time   =     635.14 seconds =      10.59 minutes
	system time =      12.09 seconds =       0.20 minutes
	total time  =        163 seconds =       2.72 minutes
Total time:
	user time   =     635.14 seconds =      10.59 minutes
	system time =      12.09 seconds =       0.20 minutes
	total time  =        163 seconds =       2.72 minutes
Grab this energy -157.81306422744117
    Psi4 stopped on: Friday, 05 November 2021 03:46PM
    Psi4 wall time for execution: 0:02:42.72

*** Psi4 exiting successfully. Buy a developer a beer!
