                               Psi4 1.4a2.dev629

  ==> Input File <==

--------------------------------------------------------------------------
import os
memory 14 GB

molecule {
 C   -0.3251107998    0.0000048455   -0.0049982099
 C    0.0600635044   -1.4071210441   -2.4309768487
 C    0.0604626314    2.8020028272    0.0062277406
 C    0.0611062054   -1.3948745699    2.4222209782
 H    2.0865857086   -1.6498580161   -2.8462963727
 H   -0.7645197642   -0.3995851557   -4.0349345075
 H   -0.7674516919   -3.2988863172   -2.3522748133
 H    2.0871121806    3.2820460901    0.0111229105
 H   -0.7679979483    3.6758757910    1.6853697303
 H   -0.7624701317    3.6910425008   -1.6664686348
 H    2.0879244426   -1.6322945312    2.8381215923
 H   -0.7628578022   -3.2873373717    2.3518500405
 H   -0.7654544115   -0.3810393623    4.0210363945
units bohr
0 2
}

basis {

assign 6-31g_2dfp_

[ 6-31g_2dfp_ ]

spherical

!----------------------------------------------------------------------
! Basis Set Exchange
! Version v0.8.13
! https://www.basissetexchange.org
!----------------------------------------------------------------------
!   Basis set: 6-31G(2df,p)
! Description: 6-31G(2df,p)
!        Role: orbital
!     Version: 0  (Data from the original Basis Set Exchange)
!----------------------------------------------------------------------

****
H     0
S    3   1.00
     18.7311370              0.03349460
      2.8253937              0.23472695
      0.6401217              0.81375733
S    1   1.00
      0.1612778              1.00000000
P    1   1.00
      1.5000000              1.0000000
P    1   1.00
      0.3750000              1.0000000
****
B     0
S    6   1.00
   2068.8823000              0.0018663
    310.6495700              0.0142515
     70.6830330              0.0695516
     19.8610800              0.2325729
      6.2993048              0.4670787
      2.1270270              0.3634314
SP   3   1.00
      4.7279710             -0.1303938              0.0745976
      1.1903377             -0.1307889              0.3078467
      0.3594117              1.1309444              0.7434568
SP   1   1.00
      0.1267512              1.0000000              1.0000000
D    1   1.00
      0.8020000              1.0000000
D    1   1.00
      0.2005000              1.0000000
F    1   1.00
      0.5000000              1.0000000
****
C     0
S    6   1.00
   3047.5249000              0.0018347
    457.3695100              0.0140373
    103.9486900              0.0688426
     29.2101550              0.2321844
      9.2866630              0.4679413
      3.1639270              0.3623120
SP   3   1.00
      7.8682724             -0.1193324              0.0689991
      1.8812885             -0.1608542              0.3164240
      0.5442493              1.1434564              0.7443083
SP   1   1.00
      0.1687144              1.0000000              1.0000000
D    1   1.00
      1.2520000              1.0000000
D    1   1.00
      0.3130000              1.0000000
F    1   1.00
      0.8000000              1.0000000
****
N     0
S    6   1.00
   4173.5110000              0.0018348
    627.4579000              0.0139950
    142.9021000              0.0685870
     40.2343300              0.2322410
     12.8202100              0.4690700
      4.3904370              0.3604550
SP   3   1.00
     11.6263580             -0.1149610              0.0675800
      2.7162800             -0.1691180              0.3239070
      0.7722180              1.1458520              0.7408950
SP   1   1.00
      0.2120313              1.0000000              1.0000000
D    1   1.00
      1.8260000              1.0000000
D    1   1.00
      0.4565000              1.0000000
F    1   1.00
      1.0000000              1.0000000
****
O     0
S    6   1.00
   5484.6717000              0.0018311
    825.2349500              0.0139501
    188.0469600              0.0684451
     52.9645000              0.2327143
     16.8975700              0.4701930
      5.7996353              0.3585209
SP   3   1.00
     15.5396160             -0.1107775              0.0708743
      3.5999336             -0.1480263              0.3397528
      1.0137618              1.1307670              0.7271586
SP   1   1.00
      0.2700058              1.0000000              1.0000000
D    1   1.00
      2.5840000              1.0000000
D    1   1.00
      0.6460000              1.0000000
F    1   1.00
      1.4000000              1.0000000
****
F     0
S    6   1.00
   7001.7130900              0.0018196169
   1051.3660900              0.0139160796
    239.2856900              0.0684053245
     67.3974453              0.233185760
     21.5199573              0.471267439
      7.40310130             0.356618546
SP   3   1.00
     20.8479528             -0.108506975            0.0716287243
      4.80830834            -0.146451658            0.3459121030
      1.34406986             1.128688580            0.7224699570
SP   1   1.00
      0.358151393            1.0000000              1.0000000
D    1   1.00
      3.5000000              1.0000000
D    1   1.00
      0.8750000              1.0000000
F    1   1.00
      1.8500000              1.0000000
****
Al     0
S    6   1.00
  13983.1000000              0.00194267
   2098.7500000              0.0148599
    477.7050000              0.0728494
    134.3600000              0.2468300
     42.8709000              0.4872580
     14.5189000              0.3234960
SP   6   1.00
    239.6680000             -0.00292619             0.00460285
     57.4419000             -0.0374080              0.0331990
     18.2859000             -0.1144870              0.1362820
      6.5991400              0.1156350              0.3304760
      2.4904900              0.6125950              0.4491460
      0.9445400              0.3937990              0.2657040
SP   3   1.00
      1.2779000             -0.2276060             -0.0175130
      0.3975900              0.00144583             0.2445330
      0.1600950              1.0927900              0.8049340
SP   1   1.00
      0.0556577              1.0000000              1.0000000
D    1   1.00
      0.6500000              1.0000000
D    1   1.00
      0.1625000              1.0000000
F    1   1.00
      0.2500000              1.0000000
****
Si     0
S    6   1.00
  16115.9000000              0.00195948
   2425.5800000              0.01492880
    553.8670000              0.07284780
    156.3400000              0.24613000
     50.0683000              0.48591400
     17.0178000              0.32500200
SP   6   1.00
    292.7180000             -0.00278094             0.00443826
     69.8731000             -0.03571460             0.03266790
     22.3363000             -0.11498500             0.13472100
      8.1503900              0.09356340             0.32867800
      3.1345800              0.60301700             0.44964000
      1.2254300              0.41895900             0.26137200
SP   3   1.00
      1.7273800             -0.24463000            -0.01779510
      0.5729220              0.00431572             0.25353900
      0.2221920              1.09818000             0.80066900
SP   1   1.00
      0.0778369              1.00000000             1.00000000
D    1   1.00
      0.9000000              1.0000000
D    1   1.00
      0.2250000              1.0000000
F    1   1.00
      0.3200000              1.0000000
****
P     0
S    6   1.00
  19413.3000000              0.0018516
   2909.4200000              0.0142062
    661.3640000              0.0699995
    185.7590000              0.2400790
     59.1943000              0.4847620
     20.0310000              0.3352000
SP   6   1.00
    339.4780000             -0.00278217             0.00456462
     81.0101000             -0.0360499              0.03369360
     25.8780000             -0.1166310              0.13975500
      9.4522100              0.0968328              0.33936200
      3.6656600              0.6144180              0.45092100
      1.4674600              0.4037980              0.23858600
SP   3   1.00
      2.1562300             -0.2529230             -0.01776530
      0.7489970              0.0328517              0.27405800
      0.2831450              1.0812500              0.78542100
SP   1   1.00
      0.0998317              1.0000000              1.00000000
D    1   1.00
      1.1000000              1.0000000
D    1   1.00
      0.2750000              1.0000000
F    1   1.00
      0.4500000              1.0000000
****
S     0
S    6   1.00
  21917.1000000              0.0018690
   3301.4900000              0.0142300
    754.1460000              0.0696960
    212.7110000              0.2384870
     67.9896000              0.4833070
     23.0515000              0.3380740
SP   6   1.00
    423.7350000             -0.0023767              0.0040610
    100.7100000             -0.0316930              0.0306810
     32.1599000             -0.1133170              0.1304520
     11.8079000              0.0560900              0.3272050
      4.6311000              0.5922550              0.4528510
      1.8702500              0.4550060              0.2560420
SP   3   1.00
      2.6158400             -0.2503740             -0.0145110
      0.9221670              0.0669570              0.3102630
      0.3412870              1.0545100              0.7544830
SP   1   1.00
      0.1171670              1.0000000              1.0000000
D    1   1.00
      1.3000000              1.0000000
D    1   1.00
      0.3250000              1.0000000
F    1   1.00
      0.5500000              1.0000000
****
Cl     0
S    6   1.00
  25180.1000000              0.0018330
   3780.3500000              0.0140340
    860.4740000              0.0690970
    242.1450000              0.2374520
     77.3349000              0.4830340
     26.2470000              0.3398560
SP   6   1.00
    491.7650000             -0.0022974              0.0039894
    116.9840000             -0.0307140              0.0303180
     37.4153000             -0.1125280              0.1298800
     13.7834000              0.0450160              0.3279510
      5.4521500              0.5893530              0.4535270
      2.2258800              0.4652060              0.2521540
SP   3   1.00
      3.1864900             -0.2518300             -0.0142990
      1.1442700              0.0615890              0.3235720
      0.4203770              1.0601800              0.7435070
SP   1   1.00
      0.1426570              1.0000000              1.0000000
D    1   1.00
      1.5000000              1.0000000
D    1   1.00
      0.3750000              1.0000000
F    1   1.00
      0.7000000              1.0000000
****
}

set {
reference uhf
freeze_core true
e_convergence 10
d_convergence 10
dft_spherical_points 1202
dft_radial_points 99
}

e = energy('b3lyp')

print_out('Grab this energy {0}'.format(e))
--------------------------------------------------------------------------

    Molecular point group: c1

    Geometry (in Bohr), charge = 0, multiplicity = 2:

       Center              X                  Y                   Z               Mass
    ------------   -----------------  -----------------  -----------------  -----------------
         C           -0.324448524990     0.000002952269    -0.003548582645    12.000000000000
         C            0.060725779210    -1.407122937331    -2.429527221445    12.000000000000
         C            0.061124906210     2.802000933969     0.007677367855    12.000000000000
         C            0.061768480210    -1.394876463131     2.423670605455    12.000000000000
         H            2.087247983410    -1.649859909331    -2.844846745445     1.007825032230
         H           -0.763857489390    -0.399587048931    -4.033484880245     1.007825032230
         H           -0.766789417090    -3.298888210431    -2.350825186045     1.007825032230
         H            2.087774455410     3.282044196869     0.012572537755     1.007825032230
         H           -0.767335673490     3.675873897769     1.686819357555     1.007825032230
         H           -0.761807856890     3.691040607569    -1.665019007545     1.007825032230
         H            2.088586717410    -1.632296424431     2.839571219555     1.007825032230
         H           -0.762195527390    -3.287339264931     2.353299667755     1.007825032230
         H           -0.764792136690    -0.381041255531     4.022486021755     1.007825032230

  Charge       = 0
  Multiplicity = 2
  Basis Set: ANONYMOUSEC28C78E
    Blend: 6-31G_2DFP_
  Basis Set: (ANONYMOUSEC28C78E AUX)
    Blend: DEF2-UNIVERSAL-JKFIT

    Orbital Energies [Eh]
    ---------------------

    Alpha Occupied:

       1A    -10.180355     2A    -10.167333     3A    -10.167062
       4A    -10.166790     5A     -0.797705     6A     -0.686368
       7A     -0.685928     8A     -0.530765     9A     -0.441296
      10A     -0.434725    11A     -0.434195    12A     -0.382896
      13A     -0.382606    14A     -0.363472    15A     -0.338247
      16A     -0.337701    17A     -0.168871

    Alpha Virtual:

      18A      0.076036    19A      0.133964    20A      0.134445
      21A      0.142422    22A      0.142695    23A      0.154674
      24A      0.178592    25A      0.179041    26A      0.203412
      27A      0.214586    28A      0.275779    29A      0.276115
      30A      0.398831    31A      0.399114    32A      0.403483
      33A      0.424118    34A      0.424391    35A      0.456360
      36A      0.495006    37A      0.495810    38A      0.512361
      39A      0.513931    40A      0.578409    41A      0.578873
      42A      0.591800    43A      0.591878    44A      0.602805
      45A      0.624706    46A      0.631517    47A      0.635937
      48A      0.636377    49A      0.662921    50A      0.663353
      51A      0.683698    52A      0.684180    53A      0.734909
      54A      0.824677    55A      0.826322    56A      0.853574
      57A      0.914638    58A      0.915133    59A      0.943833
      60A      0.945309    61A      0.961415    62A      0.961933
      63A      1.002741    64A      1.126510    65A      1.128826
      66A      1.142801    67A      1.162236    68A      1.163195
      69A      1.223414    70A      1.274000    71A      1.275036
      72A      1.279142    73A      1.323996    74A      1.324153
      75A      1.356407    76A      1.364989    77A      1.366426
      78A      1.392622    79A      1.403545    80A      1.405166
      81A      1.416795    82A      1.417749    83A      1.427314
      84A      1.490838    85A      1.499379    86A      1.542417
      87A      1.543124    88A      1.573243    89A      1.577005
      90A      1.669758    91A      1.738475    92A      1.740599
      93A      1.768497    94A      1.830617    95A      1.831628
      96A      1.971628    97A      2.016760    98A      2.018488
      99A      2.019636   100A      2.049671   101A      2.054751
     102A      2.738636   103A      2.739169   104A      2.790696
     105A      2.810924   106A      2.889682   107A      2.889892
     108A      2.894696   109A      2.928850   110A      2.929223
     111A      2.958928   112A      2.963446   113A      2.965235
     114A      3.033531   115A      3.070752   116A      3.072739
     117A      3.084740   118A      3.168094   119A      3.169648
     120A      3.180402   121A      3.284998   122A      3.286424
     123A      3.325113   124A      3.327005   125A      3.375949
     126A      3.490133   127A      3.491092   128A      3.513759
     129A      3.525132   130A      3.566642   131A      3.568927
     132A      3.574559   133A      3.666338   134A      3.666544
     135A      3.678561   136A      3.694177   137A      3.695076
     138A      3.774791   139A      3.776429   140A      3.790588
     141A      3.910711   142A      3.913552   143A      4.035592
     144A      4.109889   145A      4.112633   146A      4.146679
     147A      4.149994   148A      4.173286   149A      4.200594
     150A      4.203045   151A      4.203905   152A      4.210457
     153A      4.315627   154A      4.315671   155A      4.357819
     156A      4.424750   157A      4.425043   158A      4.442564
     159A      4.515185   160A      4.516868   161A      4.576243
     162A      4.578366   163A      4.616996   164A      4.709158
     165A      4.772915   166A      4.775535   167A      4.837958
     168A      4.962342   169A      5.002098   170A      5.004050
     171A      5.227674   172A      5.246721   173A      5.247037
     174A      5.354217   175A      5.355633   176A      5.479065

    Beta Occupied:

       1A    -10.168088     2A    -10.167820     3A    -10.167553
       4A    -10.166526     5A     -0.781027     6A     -0.684177
       7A     -0.683728     8A     -0.511740     9A     -0.431113
      10A     -0.430567    11A     -0.421986    12A     -0.377002
      13A     -0.376692    14A     -0.362462    15A     -0.333370
      16A     -0.332817

    Beta Virtual:

      17A     -0.025577    18A      0.077049    19A      0.134829
      20A      0.135331    21A      0.144288    22A      0.144550
      23A      0.163084    24A      0.182260    25A      0.182729
      26A      0.214814    27A      0.218834    28A      0.282126
      29A      0.282486    30A      0.400046    31A      0.400280
      32A      0.419852    33A      0.426920    34A      0.427223
      35A      0.468192    36A      0.497250    37A      0.498062
      38A      0.514092    39A      0.556357    40A      0.583967
      41A      0.584378    42A      0.597993    43A      0.598090
      44A      0.610205    45A      0.628084    46A      0.631670
      47A      0.639212    48A      0.639687    49A      0.666433
      50A      0.666919    51A      0.686302    52A      0.686886
      53A      0.757467    54A      0.829819    55A      0.831484
      56A      0.854925    57A      0.922550    58A      0.923070
      59A      0.945692    60A      0.954141    61A      0.966697
      62A      0.967315    63A      1.007950    64A      1.130545
      65A      1.132846    66A      1.156392    67A      1.167286
      68A      1.168311    69A      1.232279    70A      1.279575
      71A      1.280619    72A      1.284829    73A      1.328930
      74A      1.329120    75A      1.365883    76A      1.370133
      77A      1.371774    78A      1.393668    79A      1.407032
      80A      1.408587    81A      1.421890    82A      1.422851
      83A      1.427585    84A      1.491900    85A      1.509845
      86A      1.546731    87A      1.547633    88A      1.581247
      89A      1.584726    90A      1.674601    91A      1.744240
      92A      1.746355    93A      1.779260    94A      1.834457
      95A      1.835503    96A      1.972483    97A      2.023074
      98A      2.026068    99A      2.039835   100A      2.056494
     101A      2.061393   102A      2.746916   103A      2.747539
     104A      2.811331   105A      2.815827   106A      2.902472
     107A      2.902613   108A      2.924414   109A      2.931409
     110A      2.931601   111A      2.959992   112A      2.967979
     113A      2.969708   114A      3.041475   115A      3.080514
     116A      3.082690   117A      3.086698   118A      3.183962
     119A      3.185281   120A      3.188068   121A      3.289889
     122A      3.291180   123A      3.328934   124A      3.330842
     125A      3.383792   126A      3.492800   127A      3.493743
     128A      3.512128   129A      3.528223   130A      3.573987
     131A      3.580257   132A      3.582546   133A      3.671151
     134A      3.671411   135A      3.691916   136A      3.725683
     137A      3.726503   138A      3.779267   139A      3.780941
     140A      3.819046   141A      3.920576   142A      3.923415
     143A      4.046426   144A      4.116620   145A      4.119352
     146A      4.154024   147A      4.157224   148A      4.187382
     149A      4.206536   150A      4.209848   151A      4.211002
     152A      4.214925   153A      4.323036   154A      4.323112
     155A      4.361159   156A      4.432942   157A      4.433216
     158A      4.445526   159A      4.523083   160A      4.524569
     161A      4.586745   162A      4.589026   163A      4.624266
     164A      4.719397   165A      4.779844   166A      4.782538
     167A      4.840873   168A      4.967138   169A      5.006123
     170A      5.008072   171A      5.233401   172A      5.248497
     173A      5.248823   174A      5.360678   175A      5.362130
     176A      5.481381

    Final Occupation by Irrep:
              A
    DOCC [    16 ]
    SOCC [     1 ]

  @DF-UKS Final Energy:  -157.81305411985846

   => Energetics <=

    Nuclear Repulsion Energy =            125.3832595717298517
    One-Electron Energy =                -458.7267106613034002
    Two-Electron Energy =                 195.8371972889451911
    DFT Exchange-Correlation Energy =     -20.3068003192301134
    Empirical Dispersion Energy =           0.0000000000000000
    VV10 Nonlocal Energy =                  0.0000000000000000
    Total Energy =                       -157.8130541198584638

  UHF NO Occupations:
  HONO-2 :   15  A 1.9996022
  HONO-1 :   16  A 1.9989784
  HONO-0 :   17  A 1.0000000
  LUNO+0 :   18  A 0.0010216
  LUNO+1 :   19  A 0.0003978
  LUNO+2 :   20  A 0.0001982
  LUNO+3 :   21  A 0.0001975

Computation Completed

Properties will be evaluated at   0.000000,   0.000000,   0.000000 [a0]

Properties computed using the SCF density matrix

  Nuclear Dipole Moment: [e a0]
     X:     0.8319      Y:    -0.0000      Z:     0.0102

  Electronic Dipole Moment: [e a0]
     X:    -0.7535      Y:     0.0000      Z:    -0.0110

  Dipole Moment: [e a0]
     X:     0.0783      Y:    -0.0000      Z:    -0.0007     Total:     0.0783

  Dipole Moment: [D]
     X:     0.1991      Y:    -0.0000      Z:    -0.0019     Total:     0.1991

*** tstop() called on n079 at Fri Nov  5 15:40:53 2021
Module time:
	user time   =     494.68 seconds =       8.24 minutes
	system time =       4.58 seconds =       0.08 minutes
	total time  =        126 seconds =       2.10 minutes
Total time:
	user time   =     494.68 seconds =       8.24 minutes
	system time =       4.58 seconds =       0.08 minutes
	total time  =        126 seconds =       2.10 minutes
Grab this energy -157.81305411985846
    Psi4 stopped on: Friday, 05 November 2021 03:40PM
    Psi4 wall time for execution: 0:02:05.53

*** Psi4 exiting successfully. Buy a developer a beer!
