                               Psi4 1.4a2.dev629

  ==> Input File <==

--------------------------------------------------------------------------
import os
memory 14 GB

molecule {
 C   -0.3233364937    0.0053423417   -0.0053419377
 C    0.0610851664   -1.3995720281   -2.4271501902
 C    0.0608722190    2.8018138794   -0.0011134680
 C    0.0613422622   -1.4004918005    2.4265163314
 H    2.0870216548   -1.6451659926   -2.8465635094
 H   -0.7665268027   -0.3882176199   -4.0237690289
 H   -0.7644065732   -3.2934167810   -2.3491596037
 H    2.0870349908    3.2874998253    0.0009953824
 H   -0.7647566400    3.6802777245    1.6776163511
 H   -0.7664262257    3.6785630252   -1.6761657767
 H    2.0866127295   -1.6448297282    2.8479718310
 H   -0.7653367510   -3.2924978429    2.3503733549
 H   -0.7657874131   -0.3893293166    4.0257902639
units bohr
0 2
}

basis {

assign 6-31g_2dfp_

[ 6-31g_2dfp_ ]

spherical

!----------------------------------------------------------------------
! Basis Set Exchange
! Version v0.8.13
! https://www.basissetexchange.org
!----------------------------------------------------------------------
!   Basis set: 6-31G(2df,p)
! Description: 6-31G(2df,p)
!        Role: orbital
!     Version: 0  (Data from the original Basis Set Exchange)
!----------------------------------------------------------------------

****
H     0
S    3   1.00
     18.7311370              0.03349460
      2.8253937              0.23472695
      0.6401217              0.81375733
S    1   1.00
      0.1612778              1.00000000
P    1   1.00
      1.5000000              1.0000000
P    1   1.00
      0.3750000              1.0000000
****
B     0
S    6   1.00
   2068.8823000              0.0018663
    310.6495700              0.0142515
     70.6830330              0.0695516
     19.8610800              0.2325729
      6.2993048              0.4670787
      2.1270270              0.3634314
SP   3   1.00
      4.7279710             -0.1303938              0.0745976
      1.1903377             -0.1307889              0.3078467
      0.3594117              1.1309444              0.7434568
SP   1   1.00
      0.1267512              1.0000000              1.0000000
D    1   1.00
      0.8020000              1.0000000
D    1   1.00
      0.2005000              1.0000000
F    1   1.00
      0.5000000              1.0000000
****
C     0
S    6   1.00
   3047.5249000              0.0018347
    457.3695100              0.0140373
    103.9486900              0.0688426
     29.2101550              0.2321844
      9.2866630              0.4679413
      3.1639270              0.3623120
SP   3   1.00
      7.8682724             -0.1193324              0.0689991
      1.8812885             -0.1608542              0.3164240
      0.5442493              1.1434564              0.7443083
SP   1   1.00
      0.1687144              1.0000000              1.0000000
D    1   1.00
      1.2520000              1.0000000
D    1   1.00
      0.3130000              1.0000000
F    1   1.00
      0.8000000              1.0000000
****
N     0
S    6   1.00
   4173.5110000              0.0018348
    627.4579000              0.0139950
    142.9021000              0.0685870
     40.2343300              0.2322410
     12.8202100              0.4690700
      4.3904370              0.3604550
SP   3   1.00
     11.6263580             -0.1149610              0.0675800
      2.7162800             -0.1691180              0.3239070
      0.7722180              1.1458520              0.7408950
SP   1   1.00
      0.2120313              1.0000000              1.0000000
D    1   1.00
      1.8260000              1.0000000
D    1   1.00
      0.4565000              1.0000000
F    1   1.00
      1.0000000              1.0000000
****
O     0
S    6   1.00
   5484.6717000              0.0018311
    825.2349500              0.0139501
    188.0469600              0.0684451
     52.9645000              0.2327143
     16.8975700              0.4701930
      5.7996353              0.3585209
SP   3   1.00
     15.5396160             -0.1107775              0.0708743
      3.5999336             -0.1480263              0.3397528
      1.0137618              1.1307670              0.7271586
SP   1   1.00
      0.2700058              1.0000000              1.0000000
D    1   1.00
      2.5840000              1.0000000
D    1   1.00
      0.6460000              1.0000000
F    1   1.00
      1.4000000              1.0000000
****
F     0
S    6   1.00
   7001.7130900              0.0018196169
   1051.3660900              0.0139160796
    239.2856900              0.0684053245
     67.3974453              0.233185760
     21.5199573              0.471267439
      7.40310130             0.356618546
SP   3   1.00
     20.8479528             -0.108506975            0.0716287243
      4.80830834            -0.146451658            0.3459121030
      1.34406986             1.128688580            0.7224699570
SP   1   1.00
      0.358151393            1.0000000              1.0000000
D    1   1.00
      3.5000000              1.0000000
D    1   1.00
      0.8750000              1.0000000
F    1   1.00
      1.8500000              1.0000000
****
Al     0
S    6   1.00
  13983.1000000              0.00194267
   2098.7500000              0.0148599
    477.7050000              0.0728494
    134.3600000              0.2468300
     42.8709000              0.4872580
     14.5189000              0.3234960
SP   6   1.00
    239.6680000             -0.00292619             0.00460285
     57.4419000             -0.0374080              0.0331990
     18.2859000             -0.1144870              0.1362820
      6.5991400              0.1156350              0.3304760
      2.4904900              0.6125950              0.4491460
      0.9445400              0.3937990              0.2657040
SP   3   1.00
      1.2779000             -0.2276060             -0.0175130
      0.3975900              0.00144583             0.2445330
      0.1600950              1.0927900              0.8049340
SP   1   1.00
      0.0556577              1.0000000              1.0000000
D    1   1.00
      0.6500000              1.0000000
D    1   1.00
      0.1625000              1.0000000
F    1   1.00
      0.2500000              1.0000000
****
Si     0
S    6   1.00
  16115.9000000              0.00195948
   2425.5800000              0.01492880
    553.8670000              0.07284780
    156.3400000              0.24613000
     50.0683000              0.48591400
     17.0178000              0.32500200
SP   6   1.00
    292.7180000             -0.00278094             0.00443826
     69.8731000             -0.03571460             0.03266790
     22.3363000             -0.11498500             0.13472100
      8.1503900              0.09356340             0.32867800
      3.1345800              0.60301700             0.44964000
      1.2254300              0.41895900             0.26137200
SP   3   1.00
      1.7273800             -0.24463000            -0.01779510
      0.5729220              0.00431572             0.25353900
      0.2221920              1.09818000             0.80066900
SP   1   1.00
      0.0778369              1.00000000             1.00000000
D    1   1.00
      0.9000000              1.0000000
D    1   1.00
      0.2250000              1.0000000
F    1   1.00
      0.3200000              1.0000000
****
P     0
S    6   1.00
  19413.3000000              0.0018516
   2909.4200000              0.0142062
    661.3640000              0.0699995
    185.7590000              0.2400790
     59.1943000              0.4847620
     20.0310000              0.3352000
SP   6   1.00
    339.4780000             -0.00278217             0.00456462
     81.0101000             -0.0360499              0.03369360
     25.8780000             -0.1166310              0.13975500
      9.4522100              0.0968328              0.33936200
      3.6656600              0.6144180              0.45092100
      1.4674600              0.4037980              0.23858600
SP   3   1.00
      2.1562300             -0.2529230             -0.01776530
      0.7489970              0.0328517              0.27405800
      0.2831450              1.0812500              0.78542100
SP   1   1.00
      0.0998317              1.0000000              1.00000000
D    1   1.00
      1.1000000              1.0000000
D    1   1.00
      0.2750000              1.0000000
F    1   1.00
      0.4500000              1.0000000
****
S     0
S    6   1.00
  21917.1000000              0.0018690
   3301.4900000              0.0142300
    754.1460000              0.0696960
    212.7110000              0.2384870
     67.9896000              0.4833070
     23.0515000              0.3380740
SP   6   1.00
    423.7350000             -0.0023767              0.0040610
    100.7100000             -0.0316930              0.0306810
     32.1599000             -0.1133170              0.1304520
     11.8079000              0.0560900              0.3272050
      4.6311000              0.5922550              0.4528510
      1.8702500              0.4550060              0.2560420
SP   3   1.00
      2.6158400             -0.2503740             -0.0145110
      0.9221670              0.0669570              0.3102630
      0.3412870              1.0545100              0.7544830
SP   1   1.00
      0.1171670              1.0000000              1.0000000
D    1   1.00
      1.3000000              1.0000000
D    1   1.00
      0.3250000              1.0000000
F    1   1.00
      0.5500000              1.0000000
****
Cl     0
S    6   1.00
  25180.1000000              0.0018330
   3780.3500000              0.0140340
    860.4740000              0.0690970
    242.1450000              0.2374520
     77.3349000              0.4830340
     26.2470000              0.3398560
SP   6   1.00
    491.7650000             -0.0022974              0.0039894
    116.9840000             -0.0307140              0.0303180
     37.4153000             -0.1125280              0.1298800
     13.7834000              0.0450160              0.3279510
      5.4521500              0.5893530              0.4535270
      2.2258800              0.4652060              0.2521540
SP   3   1.00
      3.1864900             -0.2518300             -0.0142990
      1.1442700              0.0615890              0.3235720
      0.4203770              1.0601800              0.7435070
SP   1   1.00
      0.1426570              1.0000000              1.0000000
D    1   1.00
      1.5000000              1.0000000
D    1   1.00
      0.3750000              1.0000000
F    1   1.00
      0.7000000              1.0000000
****
}

set {
reference uhf
freeze_core true
e_convergence 10
d_convergence 10
dft_spherical_points 1202
dft_radial_points 99
}

e = energy('b3lyp')

print_out('Grab this energy {0}'.format(e))
--------------------------------------------------------------------------

    Molecular point group: c1

    Geometry (in Bohr), charge = 0, multiplicity = 2:

       Center              X                  Y                   Z               Mass
    ------------   -----------------  -----------------  -----------------  -----------------
         C           -0.323337098245     0.003976725184    -0.003976494298    12.000000000000
         C            0.061084561855    -1.400937644616    -2.425784746798    12.000000000000
         C            0.060871614455     2.800448262884     0.000251975402    12.000000000000
         C            0.061341657655    -1.401857417016     2.427881774802    12.000000000000
         H            2.087021050255    -1.646531609116    -2.845198065998     1.007825032230
         H           -0.766527407245    -0.389583236416    -4.022403585498     1.007825032230
         H           -0.764407177745    -3.294782397516    -2.347794160298     1.007825032230
         H            2.087034386255     3.286134208784     0.002360825802     1.007825032230
         H           -0.764757244545     3.678912107984     1.678981794502     1.007825032230
         H           -0.766426830245     3.677197408684    -1.674800333298     1.007825032230
         H            2.086612124955    -1.646195344716     2.849337274402     1.007825032230
         H           -0.765337355545    -3.293863459416     2.351738798302     1.007825032230
         H           -0.765788017645    -0.390694933116     4.027155707302     1.007825032230

  Charge       = 0
  Multiplicity = 2
  Basis Set: ANONYMOUS303A74CC
    Blend: 6-31G_2DFP_
  Basis Set: (ANONYMOUS303A74CC AUX)
    Blend: DEF2-UNIVERSAL-JKFIT

    Orbital Energies [Eh]
    ---------------------

    Alpha Occupied:

       1A    -10.180341     2A    -10.167065     3A    -10.167010
       4A    -10.166969     5A     -0.797772     6A     -0.686455
       7A     -0.685918     8A     -0.530775     9A     -0.441138
      10A     -0.434964    11A     -0.434368    12A     -0.382769
      13A     -0.382435    14A     -0.363606    15A     -0.338732
      16A     -0.337262    17A     -0.168960

    Alpha Virtual:

      18A      0.076072    19A      0.134135    20A      0.134175
      21A      0.142377    22A      0.142874    23A      0.154880
      24A      0.178770    25A      0.178788    26A      0.203540
      27A      0.214803    28A      0.275577    29A      0.276392
      30A      0.399055    31A      0.399403    32A      0.403345
      33A      0.424097    34A      0.424098    35A      0.456593
      36A      0.495321    37A      0.495457    38A      0.512160
      39A      0.513976    40A      0.578539    41A      0.579083
      42A      0.591646    43A      0.591655    44A      0.602576
      45A      0.624740    46A      0.631773    47A      0.636055
      48A      0.636470    49A      0.663318    50A      0.663508
      51A      0.683782    52A      0.683922    53A      0.734993
      54A      0.825252    55A      0.825561    56A      0.853916
      57A      0.914866    58A      0.915169    59A      0.944126
      60A      0.944625    61A      0.961038    62A      0.961546
      63A      1.003454    64A      1.127695    65A      1.128443
      66A      1.142305    67A      1.162722    68A      1.163812
      69A      1.223332    70A      1.273830    71A      1.275154
      72A      1.279347    73A      1.324218    74A      1.324492
      75A      1.355995    76A      1.365682    77A      1.366435
      78A      1.392427    79A      1.403974    80A      1.404109
      81A      1.416673    82A      1.417558    83A      1.427939
      84A      1.491487    85A      1.499079    86A      1.542828
      87A      1.542844    88A      1.574417    89A      1.574476
      90A      1.669821    91A      1.739154    92A      1.739699
      93A      1.768309    94A      1.831024    95A      1.831754
      96A      1.971735    97A      2.018210    98A      2.018326
      99A      2.019868   100A      2.051907   101A      2.053401
     102A      2.738150   103A      2.738824   104A      2.790927
     105A      2.811420   106A      2.889159   107A      2.890736
     108A      2.894934   109A      2.928948   110A      2.930046
     111A      2.958986   112A      2.964165   113A      2.964601
     114A      3.033993   115A      3.070582   116A      3.072012
     117A      3.084348   118A      3.168659   119A      3.168800
     120A      3.180724   121A      3.284889   122A      3.285731
     123A      3.326611   124A      3.327693   125A      3.375592
     126A      3.489391   127A      3.490875   128A      3.514035
     129A      3.525343   130A      3.568071   131A      3.568703
     132A      3.575150   133A      3.665943   134A      3.666814
     135A      3.679667   136A      3.694092   137A      3.694120
     138A      3.775723   139A      3.777833   140A      3.789222
     141A      3.911582   142A      3.912873   143A      4.034415
     144A      4.110910   145A      4.111813   146A      4.146748
     147A      4.149480   148A      4.173277   149A      4.201765
     150A      4.203211   151A      4.203798   152A      4.210908
     153A      4.315195   154A      4.316756   155A      4.358986
     156A      4.424361   157A      4.424515   158A      4.443452
     159A      4.516645   160A      4.517040   161A      4.577763
     162A      4.578189   163A      4.618136   164A      4.709477
     165A      4.773852   166A      4.775390   167A      4.836880
     168A      4.962786   169A      5.002628   170A      5.003382
     171A      5.228043   172A      5.246790   173A      5.246863
     174A      5.354721   175A      5.356289   176A      5.479347

    Beta Occupied:

       1A    -10.167817     2A    -10.167766     3A    -10.167740
       4A    -10.166518     5A     -0.781097     6A     -0.684240
       7A     -0.683738     8A     -0.511746     9A     -0.431347
      10A     -0.430746    11A     -0.421815    12A     -0.376797
      13A     -0.376578    14A     -0.362589    15A     -0.333869
      16A     -0.332371

    Beta Virtual:

      17A     -0.025743    18A      0.077081    19A      0.135041
      20A      0.135048    21A      0.144263    22A      0.144731
      23A      0.163339    24A      0.182424    25A      0.182475
      26A      0.215032    27A      0.218923    28A      0.281973
      29A      0.282691    30A      0.400229    31A      0.400568
      32A      0.419792    33A      0.426892    34A      0.426924
      35A      0.468500    36A      0.497578    37A      0.497721
      38A      0.513896    39A      0.556316    40A      0.584061
      41A      0.584668    42A      0.597819    43A      0.597837
      44A      0.610001    45A      0.628113    46A      0.631929
      47A      0.639325    48A      0.639776    49A      0.666891
      50A      0.667064    51A      0.686415    52A      0.686560
      53A      0.757516    54A      0.830427    55A      0.830723
      56A      0.855269    57A      0.922800    58A      0.923177
      59A      0.945963    60A      0.953553    61A      0.966335
      62A      0.966863    63A      1.008695    64A      1.131790
      65A      1.132442    66A      1.155648    67A      1.167802
      68A      1.168875    69A      1.232304    70A      1.279502
      71A      1.280680    72A      1.285098    73A      1.329225
      74A      1.329465    75A      1.365409    76A      1.370996
      77A      1.371611    78A      1.393488    79A      1.407364
      80A      1.407644    81A      1.421730    82A      1.422596
      83A      1.428214    84A      1.492536    85A      1.509523
      86A      1.547228    87A      1.547259    88A      1.582309
      89A      1.582328    90A      1.674668    91A      1.744910
      92A      1.745466    93A      1.779088    94A      1.834860
      95A      1.835629    96A      1.972594    97A      2.024654
      98A      2.026241    99A      2.039676   100A      2.058649
     101A      2.060101   102A      2.746442   103A      2.747203
     104A      2.811833   105A      2.816062   106A      2.901970
     107A      2.903297   108A      2.924640   109A      2.931357
     110A      2.932606   111A      2.960053   112A      2.968708
     113A      2.969143   114A      3.041928   115A      3.080600
     116A      3.081811   117A      3.086164   118A      3.184175
     119A      3.184571   120A      3.188621   121A      3.289745
     122A      3.290471   123A      3.330412   124A      3.331501
     125A      3.383412   126A      3.492106   127A      3.493609
     128A      3.512409   129A      3.528389   130A      3.574993
     131A      3.581494   132A      3.581985   133A      3.670792
     134A      3.671448   135A      3.692961   136A      3.725557
     137A      3.725925   138A      3.780301   139A      3.782354
     140A      3.817704   141A      3.921412   142A      3.922689
     143A      4.045302   144A      4.117792   145A      4.118567
     146A      4.153991   147A      4.156654   148A      4.187335
     149A      4.208173   150A      4.209460   151A      4.210970
     152A      4.215395   153A      4.322546   154A      4.324283
     155A      4.362350   156A      4.432582   157A      4.432711
     158A      4.446350   159A      4.524369   160A      4.524897
     161A      4.588320   162A      4.588787   163A      4.625373
     164A      4.719826   165A      4.780755   166A      4.782395
     167A      4.839797   168A      4.967575   169A      5.006688
     170A      5.007405   171A      5.233759   172A      5.248581
     173A      5.248639   174A      5.361165   175A      5.362806
     176A      5.481669

    Final Occupation by Irrep:
              A
    DOCC [    16 ]
    SOCC [     1 ]

  @DF-UKS Final Energy:  -157.81305666577308

   => Energetics <=

    Nuclear Repulsion Energy =            125.3947697471434282
    One-Electron Energy =                -458.7491659408503324
    Two-Electron Energy =                 195.8484886551063369
    DFT Exchange-Correlation Energy =     -20.3071491271724831
    Empirical Dispersion Energy =           0.0000000000000000
    VV10 Nonlocal Energy =                  0.0000000000000000
    Total Energy =                       -157.8130566657730753

  UHF NO Occupations:
  HONO-2 :   15  A 1.9996008
  HONO-1 :   16  A 1.9989804
  HONO-0 :   17  A 1.0000000
  LUNO+0 :   18  A 0.0010196
  LUNO+1 :   19  A 0.0003992
  LUNO+2 :   20  A 0.0001991
  LUNO+3 :   21  A 0.0001960

Computation Completed

Properties will be evaluated at   0.000000,   0.000000,   0.000000 [a0]

Properties computed using the SCF density matrix

  Nuclear Dipole Moment: [e a0]
     X:     0.8272      Y:    -0.0096      Z:     0.0096

  Electronic Dipole Moment: [e a0]
     X:    -0.7493      Y:     0.0109      Z:    -0.0108

  Dipole Moment: [e a0]
     X:     0.0779      Y:     0.0012      Z:    -0.0012     Total:     0.0779

  Dipole Moment: [D]
     X:     0.1980      Y:     0.0031      Z:    -0.0031     Total:     0.1981

*** tstop() called on n079 at Fri Nov  5 13:41:46 2021
Module time:
	user time   =     525.44 seconds =       8.76 minutes
	system time =       4.77 seconds =       0.08 minutes
	total time  =        134 seconds =       2.23 minutes
Total time:
	user time   =     525.44 seconds =       8.76 minutes
	system time =       4.77 seconds =       0.08 minutes
	total time  =        134 seconds =       2.23 minutes
Grab this energy -157.81305666577308
    Psi4 stopped on: Friday, 05 November 2021 01:41PM
    Psi4 wall time for execution: 0:02:13.28

*** Psi4 exiting successfully. Buy a developer a beer!
