                               Psi4 1.4a2.dev629

  ==> Input File <==

--------------------------------------------------------------------------
import os
memory 14 GB

molecule {
 C   -0.3215700439   -0.0000019427    0.0000000000
 C    0.0615189182   -1.3999285850   -2.4247367503
 C    0.0613992547    2.7998625700    0.0000000000
 C    0.0615189182   -1.3999285850    2.4247367503
 H    2.0865459484   -1.6473641824   -2.8530987725
 H   -0.7656939021   -0.3864556201   -4.0233346144
 H   -0.7658576672   -3.2910224805   -2.3463842780
 H    2.0864066507    3.2946355987   -0.0000000000
 H   -0.7659351663    3.6775105981    1.6769558347
 H   -0.7659351663    3.6775105981   -1.6769558347
 H    2.0865459484   -1.6473641824    2.8530987725
 H   -0.7658576672   -3.2910224805    2.3463842780
 H   -0.7656939021   -0.3864556201    4.0233346144
units bohr
0 2
}

basis {

assign 6-31g_2dfp_

[ 6-31g_2dfp_ ]

spherical

!----------------------------------------------------------------------
! Basis Set Exchange
! Version v0.8.13
! https://www.basissetexchange.org
!----------------------------------------------------------------------
!   Basis set: 6-31G(2df,p)
! Description: 6-31G(2df,p)
!        Role: orbital
!     Version: 0  (Data from the original Basis Set Exchange)
!----------------------------------------------------------------------

****
H     0
S    3   1.00
     18.7311370              0.03349460
      2.8253937              0.23472695
      0.6401217              0.81375733
S    1   1.00
      0.1612778              1.00000000
P    1   1.00
      1.5000000              1.0000000
P    1   1.00
      0.3750000              1.0000000
****
B     0
S    6   1.00
   2068.8823000              0.0018663
    310.6495700              0.0142515
     70.6830330              0.0695516
     19.8610800              0.2325729
      6.2993048              0.4670787
      2.1270270              0.3634314
SP   3   1.00
      4.7279710             -0.1303938              0.0745976
      1.1903377             -0.1307889              0.3078467
      0.3594117              1.1309444              0.7434568
SP   1   1.00
      0.1267512              1.0000000              1.0000000
D    1   1.00
      0.8020000              1.0000000
D    1   1.00
      0.2005000              1.0000000
F    1   1.00
      0.5000000              1.0000000
****
C     0
S    6   1.00
   3047.5249000              0.0018347
    457.3695100              0.0140373
    103.9486900              0.0688426
     29.2101550              0.2321844
      9.2866630              0.4679413
      3.1639270              0.3623120
SP   3   1.00
      7.8682724             -0.1193324              0.0689991
      1.8812885             -0.1608542              0.3164240
      0.5442493              1.1434564              0.7443083
SP   1   1.00
      0.1687144              1.0000000              1.0000000
D    1   1.00
      1.2520000              1.0000000
D    1   1.00
      0.3130000              1.0000000
F    1   1.00
      0.8000000              1.0000000
****
N     0
S    6   1.00
   4173.5110000              0.0018348
    627.4579000              0.0139950
    142.9021000              0.0685870
     40.2343300              0.2322410
     12.8202100              0.4690700
      4.3904370              0.3604550
SP   3   1.00
     11.6263580             -0.1149610              0.0675800
      2.7162800             -0.1691180              0.3239070
      0.7722180              1.1458520              0.7408950
SP   1   1.00
      0.2120313              1.0000000              1.0000000
D    1   1.00
      1.8260000              1.0000000
D    1   1.00
      0.4565000              1.0000000
F    1   1.00
      1.0000000              1.0000000
****
O     0
S    6   1.00
   5484.6717000              0.0018311
    825.2349500              0.0139501
    188.0469600              0.0684451
     52.9645000              0.2327143
     16.8975700              0.4701930
      5.7996353              0.3585209
SP   3   1.00
     15.5396160             -0.1107775              0.0708743
      3.5999336             -0.1480263              0.3397528
      1.0137618              1.1307670              0.7271586
SP   1   1.00
      0.2700058              1.0000000              1.0000000
D    1   1.00
      2.5840000              1.0000000
D    1   1.00
      0.6460000              1.0000000
F    1   1.00
      1.4000000              1.0000000
****
F     0
S    6   1.00
   7001.7130900              0.0018196169
   1051.3660900              0.0139160796
    239.2856900              0.0684053245
     67.3974453              0.233185760
     21.5199573              0.471267439
      7.40310130             0.356618546
SP   3   1.00
     20.8479528             -0.108506975            0.0716287243
      4.80830834            -0.146451658            0.3459121030
      1.34406986             1.128688580            0.7224699570
SP   1   1.00
      0.358151393            1.0000000              1.0000000
D    1   1.00
      3.5000000              1.0000000
D    1   1.00
      0.8750000              1.0000000
F    1   1.00
      1.8500000              1.0000000
****
Al     0
S    6   1.00
  13983.1000000              0.00194267
   2098.7500000              0.0148599
    477.7050000              0.0728494
    134.3600000              0.2468300
     42.8709000              0.4872580
     14.5189000              0.3234960
SP   6   1.00
    239.6680000             -0.00292619             0.00460285
     57.4419000             -0.0374080              0.0331990
     18.2859000             -0.1144870              0.1362820
      6.5991400              0.1156350              0.3304760
      2.4904900              0.6125950              0.4491460
      0.9445400              0.3937990              0.2657040
SP   3   1.00
      1.2779000             -0.2276060             -0.0175130
      0.3975900              0.00144583             0.2445330
      0.1600950              1.0927900              0.8049340
SP   1   1.00
      0.0556577              1.0000000              1.0000000
D    1   1.00
      0.6500000              1.0000000
D    1   1.00
      0.1625000              1.0000000
F    1   1.00
      0.2500000              1.0000000
****
Si     0
S    6   1.00
  16115.9000000              0.00195948
   2425.5800000              0.01492880
    553.8670000              0.07284780
    156.3400000              0.24613000
     50.0683000              0.48591400
     17.0178000              0.32500200
SP   6   1.00
    292.7180000             -0.00278094             0.00443826
     69.8731000             -0.03571460             0.03266790
     22.3363000             -0.11498500             0.13472100
      8.1503900              0.09356340             0.32867800
      3.1345800              0.60301700             0.44964000
      1.2254300              0.41895900             0.26137200
SP   3   1.00
      1.7273800             -0.24463000            -0.01779510
      0.5729220              0.00431572             0.25353900
      0.2221920              1.09818000             0.80066900
SP   1   1.00
      0.0778369              1.00000000             1.00000000
D    1   1.00
      0.9000000              1.0000000
D    1   1.00
      0.2250000              1.0000000
F    1   1.00
      0.3200000              1.0000000
****
P     0
S    6   1.00
  19413.3000000              0.0018516
   2909.4200000              0.0142062
    661.3640000              0.0699995
    185.7590000              0.2400790
     59.1943000              0.4847620
     20.0310000              0.3352000
SP   6   1.00
    339.4780000             -0.00278217             0.00456462
     81.0101000             -0.0360499              0.03369360
     25.8780000             -0.1166310              0.13975500
      9.4522100              0.0968328              0.33936200
      3.6656600              0.6144180              0.45092100
      1.4674600              0.4037980              0.23858600
SP   3   1.00
      2.1562300             -0.2529230             -0.01776530
      0.7489970              0.0328517              0.27405800
      0.2831450              1.0812500              0.78542100
SP   1   1.00
      0.0998317              1.0000000              1.00000000
D    1   1.00
      1.1000000              1.0000000
D    1   1.00
      0.2750000              1.0000000
F    1   1.00
      0.4500000              1.0000000
****
S     0
S    6   1.00
  21917.1000000              0.0018690
   3301.4900000              0.0142300
    754.1460000              0.0696960
    212.7110000              0.2384870
     67.9896000              0.4833070
     23.0515000              0.3380740
SP   6   1.00
    423.7350000             -0.0023767              0.0040610
    100.7100000             -0.0316930              0.0306810
     32.1599000             -0.1133170              0.1304520
     11.8079000              0.0560900              0.3272050
      4.6311000              0.5922550              0.4528510
      1.8702500              0.4550060              0.2560420
SP   3   1.00
      2.6158400             -0.2503740             -0.0145110
      0.9221670              0.0669570              0.3102630
      0.3412870              1.0545100              0.7544830
SP   1   1.00
      0.1171670              1.0000000              1.0000000
D    1   1.00
      1.3000000              1.0000000
D    1   1.00
      0.3250000              1.0000000
F    1   1.00
      0.5500000              1.0000000
****
Cl     0
S    6   1.00
  25180.1000000              0.0018330
   3780.3500000              0.0140340
    860.4740000              0.0690970
    242.1450000              0.2374520
     77.3349000              0.4830340
     26.2470000              0.3398560
SP   6   1.00
    491.7650000             -0.0022974              0.0039894
    116.9840000             -0.0307140              0.0303180
     37.4153000             -0.1125280              0.1298800
     13.7834000              0.0450160              0.3279510
      5.4521500              0.5893530              0.4535270
      2.2258800              0.4652060              0.2521540
SP   3   1.00
      3.1864900             -0.2518300             -0.0142990
      1.1442700              0.0615890              0.3235720
      0.4203770              1.0601800              0.7435070
SP   1   1.00
      0.1426570              1.0000000              1.0000000
D    1   1.00
      1.5000000              1.0000000
D    1   1.00
      0.3750000              1.0000000
F    1   1.00
      0.7000000              1.0000000
****
}

set {
reference uhf
freeze_core true
e_convergence 10
d_convergence 10
dft_spherical_points 1202
dft_radial_points 99
}

e = energy('b3lyp')

print_out('Grab this energy {0}'.format(e))
--------------------------------------------------------------------------

    Molecular point group: cs

    Geometry (in Bohr), charge = 0, multiplicity = 2:

       Center              X                  Y                   Z               Mass
    ------------   -----------------  -----------------  -----------------  -----------------
         C           -0.322129959214    -0.000002179236     0.000000000000    12.000000000000
         C            0.060959002886    -1.399928821536    -2.424736750300    12.000000000000
         C            0.060839339386     2.799862333464     0.000000000000    12.000000000000
         C            0.060959002886    -1.399928821536     2.424736750300    12.000000000000
         H            2.085986033086    -1.647364418936    -2.853098772500     1.007825032230
         H           -0.766253817414    -0.386455856636    -4.023334614400     1.007825032230
         H           -0.766417582514    -3.291022717036    -2.346384278000     1.007825032230
         H            2.085846735386     3.294635362164     0.000000000000     1.007825032230
         H           -0.766495081614     3.677510361564     1.676955834700     1.007825032230
         H           -0.766495081614     3.677510361564    -1.676955834700     1.007825032230
         H            2.085986033086    -1.647364418936     2.853098772500     1.007825032230
         H           -0.766417582514    -3.291022717036     2.346384278000     1.007825032230
         H           -0.766253817414    -0.386455856636     4.023334614400     1.007825032230

  Charge       = 0
  Multiplicity = 2
  Basis Set: ANONYMOUS476C90F7
    Blend: 6-31G_2DFP_
  Basis Set: (ANONYMOUS476C90F7 AUX)
    Blend: DEF2-UNIVERSAL-JKFIT

    Orbital Energies [Eh]
    ---------------------

    Alpha Occupied:

       1Ap   -10.180278     2Ap   -10.167036     1App  -10.167036
       3Ap   -10.166990     4Ap    -0.798088     5Ap    -0.686234
       2App   -0.686233     6Ap    -0.530954     7Ap    -0.440964
       3App   -0.434951     8Ap    -0.434950     9Ap    -0.382310
       4App   -0.382308     5App   -0.363548     6App   -0.338181
      10Ap    -0.338181    11Ap    -0.169071

    Alpha Virtual:

      12Ap     0.076101    13Ap     0.134048     7App    0.134049
      14Ap     0.142562     8App    0.142563    15Ap     0.155191
       9App    0.178577    16Ap     0.178577    17Ap     0.203969
      10App    0.214900    11App    0.276265    18Ap     0.276266
      19Ap     0.399448    12App    0.399452    20Ap     0.403178
      13App    0.423891    21Ap     0.423891    22Ap     0.457011
      23Ap     0.495355    14App    0.495356    15App    0.511917
      24Ap     0.513980    25Ap     0.578911    16App    0.578920
      17App    0.591357    26Ap     0.591359    27Ap     0.602296
      28Ap     0.624706    18App    0.631797    19App    0.636394
      29Ap     0.636397    30Ap     0.663804    20App    0.663805
      31Ap     0.683752    21App    0.683754    32Ap     0.734944
      22App    0.825325    33Ap     0.825328    23App    0.854396
      24App    0.915130    34Ap     0.915136    35Ap     0.944125
      25App    0.944397    26App    0.960935    36Ap     0.960951
      37Ap     1.004008    38Ap     1.128637    27App    1.128650
      39Ap     1.142044    40Ap     1.163199    28App    1.163212
      41Ap     1.223674    42Ap     1.274586    29App    1.274589
      43Ap     1.279748    30App    1.324824    44Ap     1.324827
      45Ap     1.355918    31App    1.366529    46Ap     1.366533
      32App    1.391764    47Ap     1.403050    33App    1.403052
      34App    1.416952    48Ap     1.416958    35App    1.428277
      36App    1.492612    49Ap     1.498181    37App    1.543048
      50Ap     1.543050    51Ap     1.573930    38App    1.573932
      52Ap     1.669105    53Ap     1.739778    39App    1.739789
      54Ap     1.768151    40App    1.831249    55Ap     1.831250
      41App    1.972432    56Ap     2.017868    57Ap     2.020635
      42App    2.020640    58Ap     2.053550    43App    2.053551
      44App    2.738248    59Ap     2.738249    60Ap     2.791376
      45App    2.812027    61Ap     2.890213    46App    2.890219
      62Ap     2.895600    63Ap     2.929790    47App    2.929799
      48App    2.959007    64Ap     2.964395    49App    2.964409
      65Ap     3.034650    50App    3.070744    66Ap     3.070757
      51App    3.084405    67Ap     3.168811    52App    3.168819
      68Ap     3.181343    53App    3.284584    69Ap     3.284584
      70Ap     3.328507    54App    3.328513    71Ap     3.375229
      55App    3.489752    72Ap     3.489772    56App    3.514360
      73Ap     3.525836    57App    3.569150    74Ap     3.569170
      58App    3.575892    75Ap     3.665536    59App    3.665544
      76Ap     3.680168    60App    3.693520    77Ap     3.693537
      78Ap     3.778005    61App    3.778031    79Ap     3.787510
      80Ap     3.913434    62App    3.913441    81Ap     4.033906
      82Ap     4.111194    63App    4.111199    83Ap     4.147901
      64App    4.147909    84Ap     4.173849    85Ap     4.203161
      65App    4.204517    86Ap     4.204521    66App    4.211699
      87Ap     4.316161    67App    4.316180    68App    4.359477
      88Ap     4.422773    69App    4.422776    70App    4.442489
      71App    4.517992    89Ap     4.517992    72App    4.579978
      90Ap     4.579991    91Ap     4.618403    92Ap     4.711043
      93Ap     4.775737    73App    4.775745    74App    4.837210
      94Ap     4.962070    75App    5.001962    95Ap     5.001975
      96Ap     5.227879    76App    5.246465    97Ap     5.246465
      98Ap     5.356232    77App    5.356245    78App    5.480833

    Beta Occupied:

       1Ap   -10.167792     1App  -10.167792     2Ap   -10.167766
       3Ap   -10.166471     4Ap    -0.781402     5Ap    -0.684029
       2App   -0.684028     6Ap    -0.511968     3App   -0.431294
       7Ap    -0.431294     8Ap    -0.421625     9Ap    -0.376369
       4App   -0.376367     5App   -0.362522     6App   -0.333322
      10Ap    -0.333322

    Beta Virtual:

      11Ap    -0.026078    12Ap     0.077109    13Ap     0.134962
       7App    0.134962    14Ap     0.144445     8App    0.144445
      15Ap     0.163742    16Ap     0.182256     9App    0.182256
      10App    0.215133    17Ap     0.219263    11App    0.282582
      18Ap     0.282584    19Ap     0.400629    12App    0.400633
      20Ap     0.419654    13App    0.426698    21Ap     0.426698
      22Ap     0.469075    23Ap     0.497638    14App    0.497638
      15App    0.513666    24Ap     0.556209    25Ap     0.584484
      16App    0.584492    17App    0.597498    26Ap     0.597499
      27Ap     0.609734    28Ap     0.628121    18App    0.631961
      19App    0.639690    29Ap     0.639694    30Ap     0.667392
      20App    0.667393    31Ap     0.686380    21App    0.686381
      32Ap     0.757355    22App    0.830525    33Ap     0.830528
      23App    0.855765    24App    0.923144    34Ap     0.923151
      25App    0.946240    35Ap     0.953149    26App    0.966223
      36Ap     0.966239    37Ap     1.009266    38Ap     1.132661
      27App    1.132673    39Ap     1.155246    40Ap     1.168254
      28App    1.168267    41Ap     1.232689    42Ap     1.280234
      29App    1.280238    43Ap     1.285545    30App    1.329876
      44Ap     1.329878    45Ap     1.365286    31App    1.371702
      46Ap     1.371706    32App    1.392845    47Ap     1.406562
      33App    1.406564    34App    1.421952    48Ap     1.421959
      35App    1.428536    36App    1.493662    49Ap     1.508624
      50Ap     1.547474    37App    1.547474    38App    1.581794
      51Ap     1.581794    52Ap     1.673948    53Ap     1.745539
      39App    1.745550    54Ap     1.778986    40App    1.835127
      55Ap     1.835128    41App    1.973306    56Ap     2.027129
      42App    2.027133    57Ap     2.039267    58Ap     2.060210
      43App    2.060210    44App    2.746563    59Ap     2.746564
      45App    2.812442    60Ap     2.816482    61Ap     2.902794
      46App    2.902799    62Ap     2.925336    63Ap     2.932314
      47App    2.932323    48App    2.960070    64Ap     2.969009
      49App    2.969023    65Ap     3.042619    50App    3.080687
      66Ap     3.080698    51App    3.086230    67Ap     3.184464
      52App    3.184469    68Ap     3.189007    69Ap     3.289408
      53App    3.289409    70Ap     3.332282    54App    3.332287
      71Ap     3.383054    55App    3.492558    72Ap     3.492578
      56App    3.512731    73Ap     3.528809    57App    3.575743
      58App    3.582356    74Ap     3.582377    75Ap     3.670035
      59App    3.670046    76Ap     3.693404    60App    3.725402
      77Ap     3.725418    78Ap     3.782659    61App    3.782685
      79Ap     3.816027    80Ap     3.923164    62App    3.923172
      81Ap     4.044767    82Ap     4.118200    63App    4.118202
      83Ap     4.154975    64App    4.154984    84Ap     4.187930
      65App    4.210418    85Ap     4.210421    86Ap     4.211212
      66App    4.216221    87Ap     4.323525    67App    4.323545
      68App    4.362883    88Ap     4.431060    69App    4.431064
      70App    4.445347    71App    4.525833    89Ap     4.525834
      72App    4.590621    90Ap     4.590633    91Ap     4.625539
      92Ap     4.721496    93Ap     4.782675    73App    4.782682
      74App    4.840127    94Ap     4.966884    75App    5.006040
      95Ap     5.006053    96Ap     5.233597    76App    5.248263
      97Ap     5.248263    98Ap     5.362743    77App    5.362756
      78App    5.483167

    Final Occupation by Irrep:
             Ap   App
    DOCC [    10,    6 ]
    SOCC [     1,    0 ]

  @DF-UKS Final Energy:  -157.81309894210267

   => Energetics <=

    Nuclear Repulsion Energy =            125.4341795870014380
    One-Electron Energy =                -458.8265752759327825
    Two-Electron Energy =                 195.8866672998521494
    DFT Exchange-Correlation Energy =     -20.3073705530234818
    Empirical Dispersion Energy =           0.0000000000000000
    VV10 Nonlocal Energy =                  0.0000000000000000
    Total Energy =                       -157.8130989421026698

  UHF NO Occupations:
  HONO-2 :    9 Ap 1.9995979
  HONO-1 :   10 Ap 1.9989847
  HONO-0 :   11 Ap 1.0000000
  LUNO+0 :   12 Ap 0.0010153
  LUNO+1 :   13 Ap 0.0004021
  LUNO+2 :    7App 0.0001965
  LUNO+3 :   14 Ap 0.0001965

Computation Completed

Properties will be evaluated at   0.000000,   0.000000,   0.000000 [a0]

Properties computed using the SCF density matrix

  Nuclear Dipole Moment: [e a0]
     X:     0.8233      Y:    -0.0000      Z:    -0.0000

  Electronic Dipole Moment: [e a0]
     X:    -0.7459      Y:     0.0000      Z:     0.0000

  Dipole Moment: [e a0]
     X:     0.0774      Y:    -0.0000      Z:    -0.0000     Total:     0.0774

  Dipole Moment: [D]
     X:     0.1966      Y:    -0.0000      Z:    -0.0000     Total:     0.1966

*** tstop() called on n023 at Fri Nov  5 13:27:47 2021
Module time:
	user time   =     640.00 seconds =      10.67 minutes
	system time =      12.41 seconds =       0.21 minutes
	total time  =        164 seconds =       2.73 minutes
Total time:
	user time   =     640.00 seconds =      10.67 minutes
	system time =      12.41 seconds =       0.21 minutes
	total time  =        164 seconds =       2.73 minutes
Grab this energy -157.81309894210267
    Psi4 stopped on: Friday, 05 November 2021 01:27PM
    Psi4 wall time for execution: 0:02:44.03

*** Psi4 exiting successfully. Buy a developer a beer!
