                               Psi4 1.4a2.dev629

  ==> Input File <==

--------------------------------------------------------------------------
import os
memory 14 GB

molecule {
 C   -0.3233629651   -0.0000020265    0.0000017733
 C    0.0610473629   -1.4005079426   -2.4258346420
 C    0.0609271062    2.8011009807    0.0000484504
 C    0.0610463723   -1.4005886966    2.4257861946
 H    2.0900879660   -1.6398789055   -2.8494607813
 H   -0.7709472645   -0.3877540869   -4.0262449944
 H   -0.7630733430   -3.2961290854   -2.3465740613
 H    2.0899469516    3.2877434458    0.0046601083
 H   -0.7711843078    3.6806826286    1.6772897314
 H   -0.7631563048    3.6802233887   -1.6812793378
 H    2.0900842980   -1.6479571473    2.8447979151
 H   -0.7711123102   -3.2928924096    2.3489618583
 H   -0.7629114384   -0.3840644572    4.0278477855
units bohr
0 2
}

basis {

assign 6-31g_2dfp_

[ 6-31g_2dfp_ ]

spherical

!----------------------------------------------------------------------
! Basis Set Exchange
! Version v0.8.13
! https://www.basissetexchange.org
!----------------------------------------------------------------------
!   Basis set: 6-31G(2df,p)
! Description: 6-31G(2df,p)
!        Role: orbital
!     Version: 0  (Data from the original Basis Set Exchange)
!----------------------------------------------------------------------

****
H     0
S    3   1.00
     18.7311370              0.03349460
      2.8253937              0.23472695
      0.6401217              0.81375733
S    1   1.00
      0.1612778              1.00000000
P    1   1.00
      1.5000000              1.0000000
P    1   1.00
      0.3750000              1.0000000
****
B     0
S    6   1.00
   2068.8823000              0.0018663
    310.6495700              0.0142515
     70.6830330              0.0695516
     19.8610800              0.2325729
      6.2993048              0.4670787
      2.1270270              0.3634314
SP   3   1.00
      4.7279710             -0.1303938              0.0745976
      1.1903377             -0.1307889              0.3078467
      0.3594117              1.1309444              0.7434568
SP   1   1.00
      0.1267512              1.0000000              1.0000000
D    1   1.00
      0.8020000              1.0000000
D    1   1.00
      0.2005000              1.0000000
F    1   1.00
      0.5000000              1.0000000
****
C     0
S    6   1.00
   3047.5249000              0.0018347
    457.3695100              0.0140373
    103.9486900              0.0688426
     29.2101550              0.2321844
      9.2866630              0.4679413
      3.1639270              0.3623120
SP   3   1.00
      7.8682724             -0.1193324              0.0689991
      1.8812885             -0.1608542              0.3164240
      0.5442493              1.1434564              0.7443083
SP   1   1.00
      0.1687144              1.0000000              1.0000000
D    1   1.00
      1.2520000              1.0000000
D    1   1.00
      0.3130000              1.0000000
F    1   1.00
      0.8000000              1.0000000
****
N     0
S    6   1.00
   4173.5110000              0.0018348
    627.4579000              0.0139950
    142.9021000              0.0685870
     40.2343300              0.2322410
     12.8202100              0.4690700
      4.3904370              0.3604550
SP   3   1.00
     11.6263580             -0.1149610              0.0675800
      2.7162800             -0.1691180              0.3239070
      0.7722180              1.1458520              0.7408950
SP   1   1.00
      0.2120313              1.0000000              1.0000000
D    1   1.00
      1.8260000              1.0000000
D    1   1.00
      0.4565000              1.0000000
F    1   1.00
      1.0000000              1.0000000
****
O     0
S    6   1.00
   5484.6717000              0.0018311
    825.2349500              0.0139501
    188.0469600              0.0684451
     52.9645000              0.2327143
     16.8975700              0.4701930
      5.7996353              0.3585209
SP   3   1.00
     15.5396160             -0.1107775              0.0708743
      3.5999336             -0.1480263              0.3397528
      1.0137618              1.1307670              0.7271586
SP   1   1.00
      0.2700058              1.0000000              1.0000000
D    1   1.00
      2.5840000              1.0000000
D    1   1.00
      0.6460000              1.0000000
F    1   1.00
      1.4000000              1.0000000
****
F     0
S    6   1.00
   7001.7130900              0.0018196169
   1051.3660900              0.0139160796
    239.2856900              0.0684053245
     67.3974453              0.233185760
     21.5199573              0.471267439
      7.40310130             0.356618546
SP   3   1.00
     20.8479528             -0.108506975            0.0716287243
      4.80830834            -0.146451658            0.3459121030
      1.34406986             1.128688580            0.7224699570
SP   1   1.00
      0.358151393            1.0000000              1.0000000
D    1   1.00
      3.5000000              1.0000000
D    1   1.00
      0.8750000              1.0000000
F    1   1.00
      1.8500000              1.0000000
****
Al     0
S    6   1.00
  13983.1000000              0.00194267
   2098.7500000              0.0148599
    477.7050000              0.0728494
    134.3600000              0.2468300
     42.8709000              0.4872580
     14.5189000              0.3234960
SP   6   1.00
    239.6680000             -0.00292619             0.00460285
     57.4419000             -0.0374080              0.0331990
     18.2859000             -0.1144870              0.1362820
      6.5991400              0.1156350              0.3304760
      2.4904900              0.6125950              0.4491460
      0.9445400              0.3937990              0.2657040
SP   3   1.00
      1.2779000             -0.2276060             -0.0175130
      0.3975900              0.00144583             0.2445330
      0.1600950              1.0927900              0.8049340
SP   1   1.00
      0.0556577              1.0000000              1.0000000
D    1   1.00
      0.6500000              1.0000000
D    1   1.00
      0.1625000              1.0000000
F    1   1.00
      0.2500000              1.0000000
****
Si     0
S    6   1.00
  16115.9000000              0.00195948
   2425.5800000              0.01492880
    553.8670000              0.07284780
    156.3400000              0.24613000
     50.0683000              0.48591400
     17.0178000              0.32500200
SP   6   1.00
    292.7180000             -0.00278094             0.00443826
     69.8731000             -0.03571460             0.03266790
     22.3363000             -0.11498500             0.13472100
      8.1503900              0.09356340             0.32867800
      3.1345800              0.60301700             0.44964000
      1.2254300              0.41895900             0.26137200
SP   3   1.00
      1.7273800             -0.24463000            -0.01779510
      0.5729220              0.00431572             0.25353900
      0.2221920              1.09818000             0.80066900
SP   1   1.00
      0.0778369              1.00000000             1.00000000
D    1   1.00
      0.9000000              1.0000000
D    1   1.00
      0.2250000              1.0000000
F    1   1.00
      0.3200000              1.0000000
****
P     0
S    6   1.00
  19413.3000000              0.0018516
   2909.4200000              0.0142062
    661.3640000              0.0699995
    185.7590000              0.2400790
     59.1943000              0.4847620
     20.0310000              0.3352000
SP   6   1.00
    339.4780000             -0.00278217             0.00456462
     81.0101000             -0.0360499              0.03369360
     25.8780000             -0.1166310              0.13975500
      9.4522100              0.0968328              0.33936200
      3.6656600              0.6144180              0.45092100
      1.4674600              0.4037980              0.23858600
SP   3   1.00
      2.1562300             -0.2529230             -0.01776530
      0.7489970              0.0328517              0.27405800
      0.2831450              1.0812500              0.78542100
SP   1   1.00
      0.0998317              1.0000000              1.00000000
D    1   1.00
      1.1000000              1.0000000
D    1   1.00
      0.2750000              1.0000000
F    1   1.00
      0.4500000              1.0000000
****
S     0
S    6   1.00
  21917.1000000              0.0018690
   3301.4900000              0.0142300
    754.1460000              0.0696960
    212.7110000              0.2384870
     67.9896000              0.4833070
     23.0515000              0.3380740
SP   6   1.00
    423.7350000             -0.0023767              0.0040610
    100.7100000             -0.0316930              0.0306810
     32.1599000             -0.1133170              0.1304520
     11.8079000              0.0560900              0.3272050
      4.6311000              0.5922550              0.4528510
      1.8702500              0.4550060              0.2560420
SP   3   1.00
      2.6158400             -0.2503740             -0.0145110
      0.9221670              0.0669570              0.3102630
      0.3412870              1.0545100              0.7544830
SP   1   1.00
      0.1171670              1.0000000              1.0000000
D    1   1.00
      1.3000000              1.0000000
D    1   1.00
      0.3250000              1.0000000
F    1   1.00
      0.5500000              1.0000000
****
Cl     0
S    6   1.00
  25180.1000000              0.0018330
   3780.3500000              0.0140340
    860.4740000              0.0690970
    242.1450000              0.2374520
     77.3349000              0.4830340
     26.2470000              0.3398560
SP   6   1.00
    491.7650000             -0.0022974              0.0039894
    116.9840000             -0.0307140              0.0303180
     37.4153000             -0.1125280              0.1298800
     13.7834000              0.0450160              0.3279510
      5.4521500              0.5893530              0.4535270
      2.2258800              0.4652060              0.2521540
SP   3   1.00
      3.1864900             -0.2518300             -0.0142990
      1.1442700              0.0615890              0.3235720
      0.4203770              1.0601800              0.7435070
SP   1   1.00
      0.1426570              1.0000000              1.0000000
D    1   1.00
      1.5000000              1.0000000
D    1   1.00
      0.3750000              1.0000000
F    1   1.00
      0.7000000              1.0000000
****
}

set {
reference uhf
freeze_core true
e_convergence 10
d_convergence 10
dft_spherical_points 1202
dft_radial_points 99
}

e = energy('b3lyp')

print_out('Grab this energy {0}'.format(e))
--------------------------------------------------------------------------

    Molecular point group: c1

    Geometry (in Bohr), charge = 0, multiplicity = 2:

       Center              X                  Y                   Z               Mass
    ------------   -----------------  -----------------  -----------------  -----------------
         C           -0.323304770978    -0.000002043020     0.000001431170    12.000000000000
         C            0.061105557022    -1.400507959120    -2.425834984130    12.000000000000
         C            0.060985300322     2.801100964180     0.000048108270    12.000000000000
         C            0.061104566422    -1.400588713120     2.425785852470    12.000000000000
         H            2.090146160122    -1.639878922020    -2.849461123430     1.007825032230
         H           -0.770889070378    -0.387754103420    -4.026245336530     1.007825032230
         H           -0.763015148878    -3.296129101920    -2.346574403430     1.007825032230
         H            2.090005145722     3.287743429280     0.004659766170     1.007825032230
         H           -0.771126113678     3.680682612080     1.677289389270     1.007825032230
         H           -0.763098110678     3.680223372180    -1.681279679930     1.007825032230
         H            2.090142492122    -1.647957163820     2.844797572970     1.007825032230
         H           -0.771054116078    -3.292892426120     2.348961516170     1.007825032230
         H           -0.762853244278    -0.384064473720     4.027847443370     1.007825032230

  Charge       = 0
  Multiplicity = 2
  Basis Set: ANONYMOUSE86837B7
    Blend: 6-31G_2DFP_
  Basis Set: (ANONYMOUSE86837B7 AUX)
    Blend: DEF2-UNIVERSAL-JKFIT

    Orbital Energies [Eh]
    ---------------------

    Alpha Occupied:

       1A    -10.180410     2A    -10.167566     3A    -10.167565
       4A    -10.167520     5A     -0.797806     6A     -0.685828
       7A     -0.685827     8A     -0.530465     9A     -0.441023
      10A     -0.434532    11A     -0.434532    12A     -0.382341
      13A     -0.382339    14A     -0.363296    15A     -0.337994
      16A     -0.337994    17A     -0.169023

    Alpha Virtual:

      18A      0.075740    19A      0.133788    20A      0.133789
      21A      0.142219    22A      0.142219    23A      0.154581
      24A      0.178270    25A      0.178270    26A      0.203656
      27A      0.214347    28A      0.275962    29A      0.275964
      30A      0.399282    31A      0.399286    32A      0.403136
      33A      0.423823    34A      0.423823    35A      0.456459
      36A      0.495166    37A      0.495167    38A      0.511879
      39A      0.513859    40A      0.578477    41A      0.578486
      42A      0.591031    43A      0.591033    44A      0.601920
      45A      0.623789    46A      0.631078    47A      0.635684
      48A      0.635688    49A      0.663078    50A      0.663079
      51A      0.683305    52A      0.683306    53A      0.734684
      54A      0.824590    55A      0.824593    56A      0.853397
      57A      0.914310    58A      0.914316    59A      0.943359
      60A      0.943958    61A      0.960635    62A      0.960652
      63A      1.003365    64A      1.127685    65A      1.127698
      66A      1.141351    67A      1.163007    68A      1.163019
      69A      1.222881    70A      1.273950    71A      1.273953
      72A      1.279802    73A      1.323645    74A      1.323647
      75A      1.355124    76A      1.365547    77A      1.365552
      78A      1.391888    79A      1.403024    80A      1.403026
      81A      1.416171    82A      1.416177    83A      1.427152
      84A      1.490576    85A      1.497747    86A      1.542311
      87A      1.542313    88A      1.574276    89A      1.574279
      90A      1.667662    91A      1.737980    92A      1.737992
      93A      1.766804    94A      1.828921    95A      1.828922
      96A      1.970096    97A      2.017220    98A      2.017842
      99A      2.017845   100A      2.051556   101A      2.051557
     102A      2.737510   103A      2.737511   104A      2.790705
     105A      2.810916   106A      2.889387   107A      2.889392
     108A      2.894868   109A      2.929112   110A      2.929120
     111A      2.958375   112A      2.963723   113A      2.963737
     114A      3.033107   115A      3.070332   116A      3.070345
     117A      3.083430   118A      3.169445   119A      3.169453
     120A      3.180288   121A      3.285353   122A      3.285353
     123A      3.327670   124A      3.327676   125A      3.376316
     126A      3.491148   127A      3.491167   128A      3.514293
     129A      3.525962   130A      3.568194   131A      3.568214
     132A      3.576823   133A      3.665640   134A      3.665648
     135A      3.677824   136A      3.693297   137A      3.693313
     138A      3.776245   139A      3.776270   140A      3.788557
     141A      3.911277   142A      3.911283   143A      4.032106
     144A      4.108902   145A      4.108906   146A      4.144809
     147A      4.144817   148A      4.170292   149A      4.201260
     150A      4.201668   151A      4.201672   152A      4.207163
     153A      4.313721   154A      4.313741   155A      4.356564
     156A      4.421880   157A      4.421882   158A      4.441399
     159A      4.514411   160A      4.514412   161A      4.576788
     162A      4.576800   163A      4.616846   164A      4.707424
     165A      4.772813   166A      4.772821   167A      4.834548
     168A      4.962089   169A      5.001857   170A      5.001869
     171A      5.222753   172A      5.241514   173A      5.241514
     174A      5.350909   175A      5.350922   176A      5.476129

    Beta Occupied:

       1A    -10.168322     2A    -10.168322     3A    -10.168291
       4A    -10.166602     5A     -0.781103     6A     -0.683632
       7A     -0.683632     8A     -0.511494     9A     -0.430894
      10A     -0.430894    11A     -0.421686    12A     -0.376417
      13A     -0.376416    14A     -0.362277    15A     -0.333126
      16A     -0.333126

    Beta Virtual:

      17A     -0.025976    18A      0.076753    19A      0.134670
      20A      0.134671    21A      0.144117    22A      0.144117
      23A      0.163103    24A      0.181951    25A      0.181952
      26A      0.214577    27A      0.219021    28A      0.282300
      29A      0.282303    30A      0.400455    31A      0.400460
      32A      0.419569    33A      0.426632    34A      0.426633
      35A      0.468385    36A      0.497427    37A      0.497428
      38A      0.513632    39A      0.556134    40A      0.584011
      41A      0.584019    42A      0.597191    43A      0.597192
      44A      0.609357    45A      0.627176    46A      0.631240
      47A      0.638992    48A      0.638996    49A      0.666636
      50A      0.666637    51A      0.685975    52A      0.685977
      53A      0.757183    54A      0.829760    55A      0.829763
      56A      0.854774    57A      0.922295    58A      0.922302
      59A      0.945321    60A      0.952740    61A      0.965949
      62A      0.965965    63A      1.008593    64A      1.131726
      65A      1.131738    66A      1.154741    67A      1.168051
      68A      1.168063    69A      1.231870    70A      1.279559
      71A      1.279563    72A      1.285568    73A      1.328608
      74A      1.328610    75A      1.364511    76A      1.370792
      77A      1.370796    78A      1.392956    79A      1.406493
      80A      1.406495    81A      1.421221    82A      1.421228
      83A      1.427431    84A      1.491634    85A      1.508174
      86A      1.546851    87A      1.546851    88A      1.582041
      89A      1.582041    90A      1.672436    91A      1.743735
      92A      1.743747    93A      1.777640    94A      1.832806
      95A      1.832807    96A      1.970959    97A      2.024262
      98A      2.024265    99A      2.038616   100A      2.058271
     101A      2.058273   102A      2.745833   103A      2.745835
     104A      2.811280   105A      2.815860   106A      2.902029
     107A      2.902035   108A      2.924541   109A      2.931641
     110A      2.931650   111A      2.959432   112A      2.968226
     113A      2.968241   114A      3.041122   115A      3.080186
     116A      3.080197   117A      3.085241   118A      3.185246
     119A      3.185251   120A      3.187907   121A      3.290206
     122A      3.290206   123A      3.331467   124A      3.331472
     125A      3.384110   126A      3.493833   127A      3.493852
     128A      3.512655   129A      3.528988   130A      3.576690
     131A      3.581509   132A      3.581531   133A      3.670127
     134A      3.670138   135A      3.691057   136A      3.725074
     137A      3.725090   138A      3.780785   139A      3.780811
     140A      3.817075   141A      3.921107   142A      3.921115
     143A      4.042870   144A      4.115639   145A      4.115641
     146A      4.152056   147A      4.152065   148A      4.184496
     149A      4.207609   150A      4.207612   151A      4.209298
     152A      4.211663   153A      4.321242   154A      4.321263
     155A      4.359936   156A      4.430125   157A      4.430128
     158A      4.444296   159A      4.522213   160A      4.522214
     161A      4.587423   162A      4.587435   163A      4.624046
     164A      4.717773   165A      4.779770   166A      4.779778
     167A      4.837459   168A      4.966911   169A      5.005916
     170A      5.005929   171A      5.228494   172A      5.243303
     173A      5.243304   174A      5.357417   175A      5.357430
     176A      5.478463

    Final Occupation by Irrep:
              A
    DOCC [    16 ]
    SOCC [     1 ]

  @DF-UKS Final Energy:  -157.81309360327595

   => Energetics <=

    Nuclear Repulsion Energy =            125.3572566400406174
    One-Electron Energy =                -458.6780512292738194
    Two-Electron Energy =                 195.8108229089509109
    DFT Exchange-Correlation Energy =     -20.3031219229936859
    Empirical Dispersion Energy =           0.0000000000000000
    VV10 Nonlocal Energy =                  0.0000000000000000
    Total Energy =                       -157.8130936032759450

  UHF NO Occupations:
  HONO-2 :   15  A 1.9995983
  HONO-1 :   16  A 1.9989811
  HONO-0 :   17  A 1.0000000
  LUNO+0 :   18  A 0.0010189
  LUNO+1 :   19  A 0.0004017
  LUNO+2 :   20  A 0.0001972
  LUNO+3 :   21  A 0.0001972

Computation Completed

Properties will be evaluated at   0.000000,   0.000000,   0.000000 [a0]

Properties computed using the SCF density matrix

  Nuclear Dipole Moment: [e a0]
     X:     0.8276      Y:    -0.0000      Z:    -0.0000

  Electronic Dipole Moment: [e a0]
     X:    -0.7503      Y:     0.0000      Z:     0.0000

  Dipole Moment: [e a0]
     X:     0.0773      Y:     0.0000      Z:    -0.0000     Total:     0.0773

  Dipole Moment: [D]
     X:     0.1964      Y:     0.0000      Z:    -0.0000     Total:     0.1964

*** tstop() called on n091 at Fri Nov  5 14:59:42 2021
Module time:
	user time   =     630.82 seconds =      10.51 minutes
	system time =       5.66 seconds =       0.09 minutes
	total time  =        160 seconds =       2.67 minutes
Total time:
	user time   =     630.82 seconds =      10.51 minutes
	system time =       5.66 seconds =       0.09 minutes
	total time  =        160 seconds =       2.67 minutes
Grab this energy -157.81309360327595
    Psi4 stopped on: Friday, 05 November 2021 02:59PM
    Psi4 wall time for execution: 0:02:39.86

*** Psi4 exiting successfully. Buy a developer a beer!
