                               Psi4 1.4a2.dev629

  ==> Input File <==

--------------------------------------------------------------------------
import os
memory 14 GB

molecule {
 C   -0.3233285409   -0.0000022209    0.0004929288
 C    0.0612392270   -1.4013441299   -2.4271495330
 C    0.0612029128    2.8033984646    0.0000392101
 C    0.0614068482   -1.4020518894    2.4284538159
 H    2.0906105491   -1.6436203094   -2.8466423289
 H   -0.7673627740   -0.3850632524   -4.0275506956
 H   -0.7676172796   -3.2948378872   -2.3470236227
 H    2.0868494735    3.2876064490   -0.0000290782
 H   -0.7658558702    3.6792778809    1.6762737143
 H   -0.7656747434    3.6802663907   -1.6769332025
 H    2.0833669356   -1.6440778923    2.8473775125
 H   -0.7637586481   -3.2888583477    2.3500112120
 H   -0.7636859667   -0.3907175695    4.0226800674
units bohr
0 2
}

basis {

assign 6-31g_2dfp_

[ 6-31g_2dfp_ ]

spherical

!----------------------------------------------------------------------
! Basis Set Exchange
! Version v0.8.13
! https://www.basissetexchange.org
!----------------------------------------------------------------------
!   Basis set: 6-31G(2df,p)
! Description: 6-31G(2df,p)
!        Role: orbital
!     Version: 0  (Data from the original Basis Set Exchange)
!----------------------------------------------------------------------

****
H     0
S    3   1.00
     18.7311370              0.03349460
      2.8253937              0.23472695
      0.6401217              0.81375733
S    1   1.00
      0.1612778              1.00000000
P    1   1.00
      1.5000000              1.0000000
P    1   1.00
      0.3750000              1.0000000
****
B     0
S    6   1.00
   2068.8823000              0.0018663
    310.6495700              0.0142515
     70.6830330              0.0695516
     19.8610800              0.2325729
      6.2993048              0.4670787
      2.1270270              0.3634314
SP   3   1.00
      4.7279710             -0.1303938              0.0745976
      1.1903377             -0.1307889              0.3078467
      0.3594117              1.1309444              0.7434568
SP   1   1.00
      0.1267512              1.0000000              1.0000000
D    1   1.00
      0.8020000              1.0000000
D    1   1.00
      0.2005000              1.0000000
F    1   1.00
      0.5000000              1.0000000
****
C     0
S    6   1.00
   3047.5249000              0.0018347
    457.3695100              0.0140373
    103.9486900              0.0688426
     29.2101550              0.2321844
      9.2866630              0.4679413
      3.1639270              0.3623120
SP   3   1.00
      7.8682724             -0.1193324              0.0689991
      1.8812885             -0.1608542              0.3164240
      0.5442493              1.1434564              0.7443083
SP   1   1.00
      0.1687144              1.0000000              1.0000000
D    1   1.00
      1.2520000              1.0000000
D    1   1.00
      0.3130000              1.0000000
F    1   1.00
      0.8000000              1.0000000
****
N     0
S    6   1.00
   4173.5110000              0.0018348
    627.4579000              0.0139950
    142.9021000              0.0685870
     40.2343300              0.2322410
     12.8202100              0.4690700
      4.3904370              0.3604550
SP   3   1.00
     11.6263580             -0.1149610              0.0675800
      2.7162800             -0.1691180              0.3239070
      0.7722180              1.1458520              0.7408950
SP   1   1.00
      0.2120313              1.0000000              1.0000000
D    1   1.00
      1.8260000              1.0000000
D    1   1.00
      0.4565000              1.0000000
F    1   1.00
      1.0000000              1.0000000
****
O     0
S    6   1.00
   5484.6717000              0.0018311
    825.2349500              0.0139501
    188.0469600              0.0684451
     52.9645000              0.2327143
     16.8975700              0.4701930
      5.7996353              0.3585209
SP   3   1.00
     15.5396160             -0.1107775              0.0708743
      3.5999336             -0.1480263              0.3397528
      1.0137618              1.1307670              0.7271586
SP   1   1.00
      0.2700058              1.0000000              1.0000000
D    1   1.00
      2.5840000              1.0000000
D    1   1.00
      0.6460000              1.0000000
F    1   1.00
      1.4000000              1.0000000
****
F     0
S    6   1.00
   7001.7130900              0.0018196169
   1051.3660900              0.0139160796
    239.2856900              0.0684053245
     67.3974453              0.233185760
     21.5199573              0.471267439
      7.40310130             0.356618546
SP   3   1.00
     20.8479528             -0.108506975            0.0716287243
      4.80830834            -0.146451658            0.3459121030
      1.34406986             1.128688580            0.7224699570
SP   1   1.00
      0.358151393            1.0000000              1.0000000
D    1   1.00
      3.5000000              1.0000000
D    1   1.00
      0.8750000              1.0000000
F    1   1.00
      1.8500000              1.0000000
****
Al     0
S    6   1.00
  13983.1000000              0.00194267
   2098.7500000              0.0148599
    477.7050000              0.0728494
    134.3600000              0.2468300
     42.8709000              0.4872580
     14.5189000              0.3234960
SP   6   1.00
    239.6680000             -0.00292619             0.00460285
     57.4419000             -0.0374080              0.0331990
     18.2859000             -0.1144870              0.1362820
      6.5991400              0.1156350              0.3304760
      2.4904900              0.6125950              0.4491460
      0.9445400              0.3937990              0.2657040
SP   3   1.00
      1.2779000             -0.2276060             -0.0175130
      0.3975900              0.00144583             0.2445330
      0.1600950              1.0927900              0.8049340
SP   1   1.00
      0.0556577              1.0000000              1.0000000
D    1   1.00
      0.6500000              1.0000000
D    1   1.00
      0.1625000              1.0000000
F    1   1.00
      0.2500000              1.0000000
****
Si     0
S    6   1.00
  16115.9000000              0.00195948
   2425.5800000              0.01492880
    553.8670000              0.07284780
    156.3400000              0.24613000
     50.0683000              0.48591400
     17.0178000              0.32500200
SP   6   1.00
    292.7180000             -0.00278094             0.00443826
     69.8731000             -0.03571460             0.03266790
     22.3363000             -0.11498500             0.13472100
      8.1503900              0.09356340             0.32867800
      3.1345800              0.60301700             0.44964000
      1.2254300              0.41895900             0.26137200
SP   3   1.00
      1.7273800             -0.24463000            -0.01779510
      0.5729220              0.00431572             0.25353900
      0.2221920              1.09818000             0.80066900
SP   1   1.00
      0.0778369              1.00000000             1.00000000
D    1   1.00
      0.9000000              1.0000000
D    1   1.00
      0.2250000              1.0000000
F    1   1.00
      0.3200000              1.0000000
****
P     0
S    6   1.00
  19413.3000000              0.0018516
   2909.4200000              0.0142062
    661.3640000              0.0699995
    185.7590000              0.2400790
     59.1943000              0.4847620
     20.0310000              0.3352000
SP   6   1.00
    339.4780000             -0.00278217             0.00456462
     81.0101000             -0.0360499              0.03369360
     25.8780000             -0.1166310              0.13975500
      9.4522100              0.0968328              0.33936200
      3.6656600              0.6144180              0.45092100
      1.4674600              0.4037980              0.23858600
SP   3   1.00
      2.1562300             -0.2529230             -0.01776530
      0.7489970              0.0328517              0.27405800
      0.2831450              1.0812500              0.78542100
SP   1   1.00
      0.0998317              1.0000000              1.00000000
D    1   1.00
      1.1000000              1.0000000
D    1   1.00
      0.2750000              1.0000000
F    1   1.00
      0.4500000              1.0000000
****
S     0
S    6   1.00
  21917.1000000              0.0018690
   3301.4900000              0.0142300
    754.1460000              0.0696960
    212.7110000              0.2384870
     67.9896000              0.4833070
     23.0515000              0.3380740
SP   6   1.00
    423.7350000             -0.0023767              0.0040610
    100.7100000             -0.0316930              0.0306810
     32.1599000             -0.1133170              0.1304520
     11.8079000              0.0560900              0.3272050
      4.6311000              0.5922550              0.4528510
      1.8702500              0.4550060              0.2560420
SP   3   1.00
      2.6158400             -0.2503740             -0.0145110
      0.9221670              0.0669570              0.3102630
      0.3412870              1.0545100              0.7544830
SP   1   1.00
      0.1171670              1.0000000              1.0000000
D    1   1.00
      1.3000000              1.0000000
D    1   1.00
      0.3250000              1.0000000
F    1   1.00
      0.5500000              1.0000000
****
Cl     0
S    6   1.00
  25180.1000000              0.0018330
   3780.3500000              0.0140340
    860.4740000              0.0690970
    242.1450000              0.2374520
     77.3349000              0.4830340
     26.2470000              0.3398560
SP   6   1.00
    491.7650000             -0.0022974              0.0039894
    116.9840000             -0.0307140              0.0303180
     37.4153000             -0.1125280              0.1298800
     13.7834000              0.0450160              0.3279510
      5.4521500              0.5893530              0.4535270
      2.2258800              0.4652060              0.2521540
SP   3   1.00
      3.1864900             -0.2518300             -0.0142990
      1.1442700              0.0615890              0.3235720
      0.4203770              1.0601800              0.7435070
SP   1   1.00
      0.1426570              1.0000000              1.0000000
D    1   1.00
      1.5000000              1.0000000
D    1   1.00
      0.3750000              1.0000000
F    1   1.00
      0.7000000              1.0000000
****
}

set {
reference uhf
freeze_core true
e_convergence 10
d_convergence 10
dft_spherical_points 1202
dft_radial_points 99
}

e = energy('b3lyp')

print_out('Grab this energy {0}'.format(e))
--------------------------------------------------------------------------

    Molecular point group: c1

    Geometry (in Bohr), charge = 0, multiplicity = 2:

       Center              X                  Y                   Z               Mass
    ------------   -----------------  -----------------  -----------------  -----------------
         C           -0.323436484129    -0.000001834761     0.000139220732    12.000000000000
         C            0.061131283771    -1.401343743761    -2.427503241068    12.000000000000
         C            0.061094969571     2.803398850739    -0.000314497968    12.000000000000
         C            0.061298904971    -1.402051503261     2.428100107832    12.000000000000
         H            2.090502605871    -1.643619923261    -2.846996036968     1.007825032230
         H           -0.767470717229    -0.385062866261    -4.027904403668     1.007825032230
         H           -0.767725222829    -3.294837501061    -2.347377330768     1.007825032230
         H            2.086741530271     3.287606835139    -0.000382786268     1.007825032230
         H           -0.765963813429     3.679278267039     1.675920006232     1.007825032230
         H           -0.765782686629     3.680266776839    -1.677286910568     1.007825032230
         H            2.083258992371    -1.644077506161     2.847023804432     1.007825032230
         H           -0.763866591329    -3.288857961561     2.349657503932     1.007825032230
         H           -0.763793909929    -0.390717183361     4.022326359332     1.007825032230

  Charge       = 0
  Multiplicity = 2
  Basis Set: ANONYMOUSFE629332
    Blend: 6-31G_2DFP_
  Basis Set: (ANONYMOUSFE629332 AUX)
    Blend: DEF2-UNIVERSAL-JKFIT

    Orbital Energies [Eh]
    ---------------------

    Alpha Occupied:

       1A    -10.180394     2A    -10.167543     3A    -10.166963
       4A    -10.166380     5A     -0.797510     6A     -0.686500
       7A     -0.685857     8A     -0.530609     9A     -0.441115
      10A     -0.434692    11A     -0.434516    12A     -0.382959
      13A     -0.382514    14A     -0.363813    15A     -0.337869
      16A     -0.337807    17A     -0.168940

    Alpha Virtual:

      18A      0.076079    19A      0.134204    20A      0.134209
      21A      0.142665    22A      0.142870    23A      0.154769
      24A      0.178623    25A      0.179269    26A      0.203255
      27A      0.214929    28A      0.275699    29A      0.275788
      30A      0.399155    31A      0.399314    32A      0.403435
      33A      0.424055    34A      0.424246    35A      0.456411
      36A      0.495329    37A      0.495469    38A      0.512217
      39A      0.514036    40A      0.578733    41A      0.578978
      42A      0.591425    43A      0.592024    44A      0.602634
      45A      0.624886    46A      0.631919    47A      0.635853
      48A      0.636620    49A      0.663115    50A      0.663483
      51A      0.683558    52A      0.684190    53A      0.735126
      54A      0.824983    55A      0.825782    56A      0.853781
      57A      0.915058    58A      0.915079    59A      0.944084
      60A      0.944299    61A      0.961113    62A      0.961611
      63A      1.003623    64A      1.127705    65A      1.128362
      66A      1.141804    67A      1.163789    68A      1.163964
      69A      1.222904    70A      1.274179    71A      1.274543
      72A      1.279189    73A      1.323794    74A      1.324512
      75A      1.355644    76A      1.365652    77A      1.366177
      78A      1.392943    79A      1.404388    80A      1.405155
      81A      1.416796    82A      1.417432    83A      1.428171
      84A      1.490969    85A      1.499666    86A      1.542611
      87A      1.542728    88A      1.574068    89A      1.574630
      90A      1.670586    91A      1.738799    92A      1.738990
      93A      1.768351    94A      1.830255    95A      1.833489
      96A      1.971107    97A      2.017904    98A      2.018302
      99A      2.018883   100A      2.052165   101A      2.052325
     102A      2.737866   103A      2.738759   104A      2.790698
     105A      2.811343   106A      2.889545   107A      2.890102
     108A      2.894575   109A      2.929539   110A      2.929759
     111A      2.959056   112A      2.963885   113A      2.964939
     114A      3.033848   115A      3.071107   116A      3.071554
     117A      3.083979   118A      3.168550   119A      3.168807
     120A      3.179998   121A      3.285581   122A      3.285716
     123A      3.326872   124A      3.326959   125A      3.375698
     126A      3.489239   127A      3.490904   128A      3.513863
     129A      3.524992   130A      3.568082   131A      3.568171
     132A      3.575328   133A      3.666398   134A      3.667836
     135A      3.680217   136A      3.693793   137A      3.694748
     138A      3.776169   139A      3.777348   140A      3.789411
     141A      3.910679   142A      3.911551   143A      4.033888
     144A      4.110871   145A      4.112288   146A      4.146120
     147A      4.150054   148A      4.172643   149A      4.199998
     150A      4.202242   151A      4.204274   152A      4.210809
     153A      4.315346   154A      4.316779   155A      4.359580
     156A      4.425348   157A      4.425845   158A      4.445510
     159A      4.516263   160A      4.516723   161A      4.577118
     162A      4.578024   163A      4.617144   164A      4.708201
     165A      4.773692   166A      4.773882   167A      4.835539
     168A      4.964182   169A      5.003271   170A      5.004447
     171A      5.228360   172A      5.243396   173A      5.250764
     174A      5.352419   175A      5.358461   176A      5.478220

    Beta Occupied:

       1A    -10.168303     2A    -10.167721     3A    -10.167142
       4A    -10.166556     5A     -0.780850     6A     -0.684308
       7A     -0.683665     8A     -0.511534     9A     -0.431093
      10A     -0.430896    11A     -0.421856    12A     -0.377069
      13A     -0.376605    14A     -0.362801    15A     -0.332971
      16A     -0.332923

    Beta Virtual:

      17A     -0.025573    18A      0.077084    19A      0.135031
      20A      0.135146    21A      0.144580    22A      0.144690
      23A      0.163186    24A      0.182288    25A      0.182916
      26A      0.215157    27A      0.218687    28A      0.282064
      29A      0.282158    30A      0.400314    31A      0.400480
      32A      0.419874    33A      0.426862    34A      0.427059
      35A      0.468243    36A      0.497582    37A      0.497722
      38A      0.513943    39A      0.556412    40A      0.584277
      41A      0.584536    42A      0.597638    43A      0.598193
      44A      0.610059    45A      0.628225    46A      0.632112
      47A      0.639123    48A      0.639847    49A      0.666664
      50A      0.667059    51A      0.686217    52A      0.686780
      53A      0.757726    54A      0.830110    55A      0.830961
      56A      0.855123    57A      0.923034    58A      0.923051
      59A      0.945914    60A      0.953214    61A      0.966439
      62A      0.966879    63A      1.008873    64A      1.131724
      65A      1.132413    66A      1.155143    67A      1.168859
      68A      1.169061    69A      1.231935    70A      1.279742
      71A      1.280110    72A      1.284966    73A      1.328715
      74A      1.329525    75A      1.365043    76A      1.370972
      77A      1.371472    78A      1.393991    79A      1.407804
      80A      1.408607    81A      1.421801    82A      1.422526
      83A      1.428452    84A      1.492005    85A      1.510087
      86A      1.546951    87A      1.547158    88A      1.581966
      89A      1.582512    90A      1.675438    91A      1.744580
      92A      1.744739    93A      1.779088    94A      1.834115
      95A      1.837291    96A      1.971963    97A      2.024603
      98A      2.024649    99A      2.039882   100A      2.058861
     101A      2.059141   102A      2.746219   103A      2.747140
     104A      2.811755   105A      2.815868   106A      2.902369
     107A      2.902764   108A      2.924213   109A      2.932041
     110A      2.932162   111A      2.960122   112A      2.968359
     113A      2.969491   114A      3.041740   115A      3.080897
     116A      3.081456   117A      3.085830   118A      3.184343
     119A      3.184677   120A      3.187729   121A      3.290305
     122A      3.290492   123A      3.330702   124A      3.330749
     125A      3.383485   126A      3.491993   127A      3.493595
     128A      3.512229   129A      3.528073   130A      3.575084
     131A      3.581543   132A      3.581625   133A      3.671280
     134A      3.672846   135A      3.693548   136A      3.725293
     137A      3.726222   138A      3.780664   139A      3.781783
     140A      3.818012   141A      3.920546   142A      3.921393
     143A      4.044849   144A      4.117802   145A      4.118775
     146A      4.153607   147A      4.157119   148A      4.186641
     149A      4.206731   150A      4.208369   151A      4.211218
     152A      4.215273   153A      4.323000   154A      4.324184
     155A      4.362924   156A      4.433521   157A      4.433930
     158A      4.448435   159A      4.524050   160A      4.524391
     161A      4.587747   162A      4.588559   163A      4.624315
     164A      4.718544   165A      4.780615   166A      4.780869
     167A      4.838458   168A      4.968956   169A      5.007305
     170A      5.008446   171A      5.234051   172A      5.245179
     173A      5.252542   174A      5.358883   175A      5.364896
     176A      5.480534

    Final Occupation by Irrep:
              A
    DOCC [    16 ]
    SOCC [     1 ]

  @DF-UKS Final Energy:  -157.81303343989407

   => Energetics <=

    Nuclear Repulsion Energy =            125.3667030511413998
    One-Electron Energy =                -458.6939338777759758
    Two-Electron Energy =                 195.8214610084679919
    DFT Exchange-Correlation Energy =     -20.3072636217274720
    Empirical Dispersion Energy =           0.0000000000000000
    VV10 Nonlocal Energy =                  0.0000000000000000
    Total Energy =                       -157.8130334398940704

  UHF NO Occupations:
  HONO-2 :   15  A 1.9996025
  HONO-1 :   16  A 1.9989782
  HONO-0 :   17  A 1.0000000
  LUNO+0 :   18  A 0.0010218
  LUNO+1 :   19  A 0.0003975
  LUNO+2 :   20  A 0.0001984
  LUNO+3 :   21  A 0.0001983

Computation Completed

Properties will be evaluated at   0.000000,   0.000000,   0.000000 [a0]

Properties computed using the SCF density matrix

  Nuclear Dipole Moment: [e a0]
     X:     0.8264      Y:    -0.0000      Z:    -0.0025

  Electronic Dipole Moment: [e a0]
     X:    -0.7484      Y:     0.0000      Z:     0.0049

  Dipole Moment: [e a0]
     X:     0.0780      Y:     0.0000      Z:     0.0024     Total:     0.0781

  Dipole Moment: [D]
     X:     0.1984      Y:     0.0000      Z:     0.0062     Total:     0.1985

*** tstop() called on n035 at Fri Nov  5 13:24:32 2021
Module time:
	user time   =     638.06 seconds =      10.63 minutes
	system time =      12.07 seconds =       0.20 minutes
	total time  =        164 seconds =       2.73 minutes
Total time:
	user time   =     638.06 seconds =      10.63 minutes
	system time =      12.07 seconds =       0.20 minutes
	total time  =        164 seconds =       2.73 minutes
Grab this energy -157.81303343989407
    Psi4 stopped on: Friday, 05 November 2021 01:24PM
    Psi4 wall time for execution: 0:02:43.43

*** Psi4 exiting successfully. Buy a developer a beer!
