                               Psi4 1.4a2.dev629

  ==> Input File <==

--------------------------------------------------------------------------
import os
memory 14 GB

molecule {
 C   -0.3233385003    0.0002210371    0.0053434884
 C    0.0613515829   -1.4015353653   -2.4272544573
 C    0.0608520425    2.7994854657    0.0011078773
 C    0.0610957187   -1.4006252536    2.4278923578
 H    2.0867720930   -1.6438936753   -2.8477686810
 H   -0.7651523833   -0.3886112027   -4.0262132178
 H   -0.7660467374   -3.2914985114   -2.3492187855
 H    2.0867127921    3.2887857805   -0.0010012618
 H   -0.7663536734    3.6800533342    1.6756124679
 H   -0.7646766310    3.6817708863   -1.6770756747
 H    2.0871825064   -1.6442364691    2.8463658394
 H   -0.7651147230   -3.2924271127    2.3480131382
 H   -0.7658919640   -0.3875132273    4.0241969093
units bohr
0 2
}

basis {

assign 6-31g_2dfp_

[ 6-31g_2dfp_ ]

spherical

!----------------------------------------------------------------------
! Basis Set Exchange
! Version v0.8.13
! https://www.basissetexchange.org
!----------------------------------------------------------------------
!   Basis set: 6-31G(2df,p)
! Description: 6-31G(2df,p)
!        Role: orbital
!     Version: 0  (Data from the original Basis Set Exchange)
!----------------------------------------------------------------------

****
H     0
S    3   1.00
     18.7311370              0.03349460
      2.8253937              0.23472695
      0.6401217              0.81375733
S    1   1.00
      0.1612778              1.00000000
P    1   1.00
      1.5000000              1.0000000
P    1   1.00
      0.3750000              1.0000000
****
B     0
S    6   1.00
   2068.8823000              0.0018663
    310.6495700              0.0142515
     70.6830330              0.0695516
     19.8610800              0.2325729
      6.2993048              0.4670787
      2.1270270              0.3634314
SP   3   1.00
      4.7279710             -0.1303938              0.0745976
      1.1903377             -0.1307889              0.3078467
      0.3594117              1.1309444              0.7434568
SP   1   1.00
      0.1267512              1.0000000              1.0000000
D    1   1.00
      0.8020000              1.0000000
D    1   1.00
      0.2005000              1.0000000
F    1   1.00
      0.5000000              1.0000000
****
C     0
S    6   1.00
   3047.5249000              0.0018347
    457.3695100              0.0140373
    103.9486900              0.0688426
     29.2101550              0.2321844
      9.2866630              0.4679413
      3.1639270              0.3623120
SP   3   1.00
      7.8682724             -0.1193324              0.0689991
      1.8812885             -0.1608542              0.3164240
      0.5442493              1.1434564              0.7443083
SP   1   1.00
      0.1687144              1.0000000              1.0000000
D    1   1.00
      1.2520000              1.0000000
D    1   1.00
      0.3130000              1.0000000
F    1   1.00
      0.8000000              1.0000000
****
N     0
S    6   1.00
   4173.5110000              0.0018348
    627.4579000              0.0139950
    142.9021000              0.0685870
     40.2343300              0.2322410
     12.8202100              0.4690700
      4.3904370              0.3604550
SP   3   1.00
     11.6263580             -0.1149610              0.0675800
      2.7162800             -0.1691180              0.3239070
      0.7722180              1.1458520              0.7408950
SP   1   1.00
      0.2120313              1.0000000              1.0000000
D    1   1.00
      1.8260000              1.0000000
D    1   1.00
      0.4565000              1.0000000
F    1   1.00
      1.0000000              1.0000000
****
O     0
S    6   1.00
   5484.6717000              0.0018311
    825.2349500              0.0139501
    188.0469600              0.0684451
     52.9645000              0.2327143
     16.8975700              0.4701930
      5.7996353              0.3585209
SP   3   1.00
     15.5396160             -0.1107775              0.0708743
      3.5999336             -0.1480263              0.3397528
      1.0137618              1.1307670              0.7271586
SP   1   1.00
      0.2700058              1.0000000              1.0000000
D    1   1.00
      2.5840000              1.0000000
D    1   1.00
      0.6460000              1.0000000
F    1   1.00
      1.4000000              1.0000000
****
F     0
S    6   1.00
   7001.7130900              0.0018196169
   1051.3660900              0.0139160796
    239.2856900              0.0684053245
     67.3974453              0.233185760
     21.5199573              0.471267439
      7.40310130             0.356618546
SP   3   1.00
     20.8479528             -0.108506975            0.0716287243
      4.80830834            -0.146451658            0.3459121030
      1.34406986             1.128688580            0.7224699570
SP   1   1.00
      0.358151393            1.0000000              1.0000000
D    1   1.00
      3.5000000              1.0000000
D    1   1.00
      0.8750000              1.0000000
F    1   1.00
      1.8500000              1.0000000
****
Al     0
S    6   1.00
  13983.1000000              0.00194267
   2098.7500000              0.0148599
    477.7050000              0.0728494
    134.3600000              0.2468300
     42.8709000              0.4872580
     14.5189000              0.3234960
SP   6   1.00
    239.6680000             -0.00292619             0.00460285
     57.4419000             -0.0374080              0.0331990
     18.2859000             -0.1144870              0.1362820
      6.5991400              0.1156350              0.3304760
      2.4904900              0.6125950              0.4491460
      0.9445400              0.3937990              0.2657040
SP   3   1.00
      1.2779000             -0.2276060             -0.0175130
      0.3975900              0.00144583             0.2445330
      0.1600950              1.0927900              0.8049340
SP   1   1.00
      0.0556577              1.0000000              1.0000000
D    1   1.00
      0.6500000              1.0000000
D    1   1.00
      0.1625000              1.0000000
F    1   1.00
      0.2500000              1.0000000
****
Si     0
S    6   1.00
  16115.9000000              0.00195948
   2425.5800000              0.01492880
    553.8670000              0.07284780
    156.3400000              0.24613000
     50.0683000              0.48591400
     17.0178000              0.32500200
SP   6   1.00
    292.7180000             -0.00278094             0.00443826
     69.8731000             -0.03571460             0.03266790
     22.3363000             -0.11498500             0.13472100
      8.1503900              0.09356340             0.32867800
      3.1345800              0.60301700             0.44964000
      1.2254300              0.41895900             0.26137200
SP   3   1.00
      1.7273800             -0.24463000            -0.01779510
      0.5729220              0.00431572             0.25353900
      0.2221920              1.09818000             0.80066900
SP   1   1.00
      0.0778369              1.00000000             1.00000000
D    1   1.00
      0.9000000              1.0000000
D    1   1.00
      0.2250000              1.0000000
F    1   1.00
      0.3200000              1.0000000
****
P     0
S    6   1.00
  19413.3000000              0.0018516
   2909.4200000              0.0142062
    661.3640000              0.0699995
    185.7590000              0.2400790
     59.1943000              0.4847620
     20.0310000              0.3352000
SP   6   1.00
    339.4780000             -0.00278217             0.00456462
     81.0101000             -0.0360499              0.03369360
     25.8780000             -0.1166310              0.13975500
      9.4522100              0.0968328              0.33936200
      3.6656600              0.6144180              0.45092100
      1.4674600              0.4037980              0.23858600
SP   3   1.00
      2.1562300             -0.2529230             -0.01776530
      0.7489970              0.0328517              0.27405800
      0.2831450              1.0812500              0.78542100
SP   1   1.00
      0.0998317              1.0000000              1.00000000
D    1   1.00
      1.1000000              1.0000000
D    1   1.00
      0.2750000              1.0000000
F    1   1.00
      0.4500000              1.0000000
****
S     0
S    6   1.00
  21917.1000000              0.0018690
   3301.4900000              0.0142300
    754.1460000              0.0696960
    212.7110000              0.2384870
     67.9896000              0.4833070
     23.0515000              0.3380740
SP   6   1.00
    423.7350000             -0.0023767              0.0040610
    100.7100000             -0.0316930              0.0306810
     32.1599000             -0.1133170              0.1304520
     11.8079000              0.0560900              0.3272050
      4.6311000              0.5922550              0.4528510
      1.8702500              0.4550060              0.2560420
SP   3   1.00
      2.6158400             -0.2503740             -0.0145110
      0.9221670              0.0669570              0.3102630
      0.3412870              1.0545100              0.7544830
SP   1   1.00
      0.1171670              1.0000000              1.0000000
D    1   1.00
      1.3000000              1.0000000
D    1   1.00
      0.3250000              1.0000000
F    1   1.00
      0.5500000              1.0000000
****
Cl     0
S    6   1.00
  25180.1000000              0.0018330
   3780.3500000              0.0140340
    860.4740000              0.0690970
    242.1450000              0.2374520
     77.3349000              0.4830340
     26.2470000              0.3398560
SP   6   1.00
    491.7650000             -0.0022974              0.0039894
    116.9840000             -0.0307140              0.0303180
     37.4153000             -0.1125280              0.1298800
     13.7834000              0.0450160              0.3279510
      5.4521500              0.5893530              0.4535270
      2.2258800              0.4652060              0.2521540
SP   3   1.00
      3.1864900             -0.2518300             -0.0142990
      1.1442700              0.0615890              0.3235720
      0.4203770              1.0601800              0.7435070
SP   1   1.00
      0.1426570              1.0000000              1.0000000
D    1   1.00
      1.5000000              1.0000000
D    1   1.00
      0.3750000              1.0000000
F    1   1.00
      0.7000000              1.0000000
****
}

set {
reference uhf
freeze_core true
e_convergence 10
d_convergence 10
dft_spherical_points 1202
dft_radial_points 99
}

e = energy('b3lyp')

print_out('Grab this energy {0}'.format(e))
--------------------------------------------------------------------------

    Molecular point group: c1

    Geometry (in Bohr), charge = 0, multiplicity = 2:

       Center              X                  Y                   Z               Mass
    ------------   -----------------  -----------------  -----------------  -----------------
         C           -0.323338659901     0.000694146899     0.003978044665    12.000000000000
         C            0.061351423299    -1.401062255501    -2.428619901035    12.000000000000
         C            0.060851882899     2.799958575499    -0.000257566435    12.000000000000
         C            0.061095559099    -1.400152143801     2.426526914065    12.000000000000
         H            2.086771933399    -1.643420565501    -2.849134124735     1.007825032230
         H           -0.765152542901    -0.388138092901    -4.027578661535     1.007825032230
         H           -0.766046897001    -3.291025401601    -2.350584229235     1.007825032230
         H            2.086712632499     3.289258890299    -0.002366705535     1.007825032230
         H           -0.766353833001     3.680526443999     1.674247024165     1.007825032230
         H           -0.764676790601     3.682243996099    -1.678441118435     1.007825032230
         H            2.087182346799    -1.643763359301     2.845000395665     1.007825032230
         H           -0.765114882601    -3.291954002901     2.346647694465     1.007825032230
         H           -0.765892123601    -0.387040117501     4.022831465565     1.007825032230

  Charge       = 0
  Multiplicity = 2
  Basis Set: ANONYMOUS720698D8
    Blend: 6-31G_2DFP_
  Basis Set: (ANONYMOUS720698D8 AUX)
    Blend: DEF2-UNIVERSAL-JKFIT

    Orbital Energies [Eh]
    ---------------------

    Alpha Occupied:

       1A    -10.180341     2A    -10.167064     3A    -10.167023
       4A    -10.166957     5A     -0.797769     6A     -0.686377
       7A     -0.685996     8A     -0.530776     9A     -0.441131
      10A     -0.434898    11A     -0.434440    12A     -0.382746
      13A     -0.382455    14A     -0.363610    15A     -0.338558
      16A     -0.337436    17A     -0.168960

    Alpha Virtual:

      18A      0.076072    19A      0.134131    20A      0.134178
      21A      0.142440    22A      0.142814    23A      0.154880
      24A      0.178696    25A      0.178861    26A      0.203542
      27A      0.214802    28A      0.275620    29A      0.276351
      30A      0.399103    31A      0.399353    32A      0.403346
      33A      0.424053    34A      0.424142    35A      0.456593
      36A      0.495336    37A      0.495442    38A      0.512160
      39A      0.513978    40A      0.578614    41A      0.579010
      42A      0.591583    43A      0.591704    44A      0.602576
      45A      0.624751    46A      0.631771    47A      0.636041
      48A      0.636473    49A      0.663322    50A      0.663503
      51A      0.683799    52A      0.683906    53A      0.734994
      54A      0.825287    55A      0.825528    56A      0.853916
      57A      0.914905    58A      0.915138    59A      0.944126
      60A      0.944619    61A      0.961115    62A      0.961470
      63A      1.003452    64A      1.127844    65A      1.128328
      66A      1.142270    67A      1.162790    68A      1.163746
      69A      1.223329    70A      1.273927    71A      1.275042
      72A      1.279368    73A      1.324239    74A      1.324475
      75A      1.355993    76A      1.365752    77A      1.366366
      78A      1.392435    79A      1.403853    80A      1.404231
      81A      1.416754    82A      1.417470    83A      1.427936
      84A      1.491488    85A      1.499079    86A      1.542759
      87A      1.542904    88A      1.574251    89A      1.574640
      90A      1.669818    91A      1.739177    92A      1.739674
      93A      1.768312    94A      1.830827    95A      1.831963
      96A      1.971733    97A      2.018265    98A      2.018272
      99A      2.019859   100A      2.051792   101A      2.053512
     102A      2.738219   103A      2.738753   104A      2.790925
     105A      2.811423   106A      2.889383   107A      2.890512
     108A      2.894945   109A      2.929103   110A      2.929889
     111A      2.958989   112A      2.964211   113A      2.964548
     114A      3.034001   115A      3.070769   116A      3.071811
     117A      3.084351   118A      3.168539   119A      3.168952
     120A      3.180675   121A      3.285015   122A      3.285609
     123A      3.326732   124A      3.327578   125A      3.375602
     126A      3.489531   127A      3.490751   128A      3.514025
     129A      3.525338   130A      3.568143   131A      3.568639
     132A      3.575147   133A      3.665602   134A      3.667136
     135A      3.679672   136A      3.694025   137A      3.694214
     138A      3.776031   139A      3.777546   140A      3.789172
     141A      3.911352   142A      3.913104   143A      4.034434
     144A      4.111007   145A      4.111725   146A      4.147096
     147A      4.149140   148A      4.173264   149A      4.201868
     150A      4.203258   151A      4.203666   152A      4.210892
     153A      4.315050   154A      4.316865   155A      4.358985
     156A      4.423430   157A      4.425379   158A      4.443534
     159A      4.516171   160A      4.517514   161A      4.577924
     162A      4.578318   163A      4.617842   164A      4.709465
     165A      4.773949   166A      4.775230   167A      4.836911
     168A      4.962789   169A      5.002266   170A      5.003732
     171A      5.228041   172A      5.246620   173A      5.247016
     174A      5.354940   175A      5.356067   176A      5.479347

    Beta Occupied:

       1A    -10.167822     2A    -10.167777     3A    -10.167724
       4A    -10.166519     5A     -0.781094     6A     -0.684168
       7A     -0.683810     8A     -0.511747     9A     -0.431271
      10A     -0.430818    11A     -0.421818    12A     -0.376817
      13A     -0.376554    14A     -0.362593    15A     -0.333691
      16A     -0.332550

    Beta Virtual:

      17A     -0.025743    18A      0.077081    19A      0.135041
      20A      0.135048    21A      0.144326    22A      0.144670
      23A      0.163339    24A      0.182377    25A      0.182523
      26A      0.215032    27A      0.218925    28A      0.282000
      29A      0.282666    30A      0.400276    31A      0.400519
      32A      0.419792    33A      0.426862    34A      0.426955
      35A      0.468501    36A      0.497592    37A      0.497708
      38A      0.513895    39A      0.556321    40A      0.584143
      41A      0.584585    42A      0.597761    43A      0.597883
      44A      0.610000    45A      0.628124    46A      0.631928
      47A      0.639320    48A      0.639766    49A      0.666886
      50A      0.667066    51A      0.686436    52A      0.686539
      53A      0.757516    54A      0.830457    55A      0.830695
      56A      0.855269    57A      0.922850    58A      0.923136
      59A      0.945963    60A      0.953547    61A      0.966414
      62A      0.966784    63A      1.008693    64A      1.131902
      65A      1.132351    66A      1.155623    67A      1.167857
      68A      1.168827    69A      1.232301    70A      1.279570
      71A      1.280594    72A      1.285121    73A      1.329246
      74A      1.329446    75A      1.365408    76A      1.371053
      77A      1.371554    78A      1.393495    79A      1.407340
      80A      1.407673    81A      1.421811    82A      1.422504
      83A      1.428214    84A      1.492536    85A      1.509523
      86A      1.547159    87A      1.547319    88A      1.582117
      89A      1.582517    90A      1.674666    91A      1.744933
      92A      1.745440    93A      1.779092    94A      1.834684
      95A      1.835816    96A      1.972592    97A      2.024678
      98A      2.026224    99A      2.039663   100A      2.058522
     101A      2.060223   102A      2.746536   103A      2.747108
     104A      2.811835   105A      2.816060   106A      2.902164
     107A      2.903112   108A      2.924642   109A      2.931538
     110A      2.932423   111A      2.960054   112A      2.968749
     113A      2.969096   114A      3.041937   115A      3.080754
     116A      3.081641   117A      3.086171   118A      3.184138
     119A      3.184702   120A      3.188509   121A      3.289854
     122A      3.290367   123A      3.330538   124A      3.331381
     125A      3.383421   126A      3.492241   127A      3.493495
     128A      3.512396   129A      3.528383   130A      3.574992
     131A      3.581517   132A      3.581962   133A      3.670353
     134A      3.671882   135A      3.692966   136A      3.725578
     137A      3.725924   138A      3.780567   139A      3.782083
     140A      3.817686   141A      3.921218   142A      3.922878
     143A      4.045321   144A      4.117802   145A      4.118562
     146A      4.154352   147A      4.156302   148A      4.187321
     149A      4.208231   150A      4.209522   151A      4.210871
     152A      4.215376   153A      4.322428   154A      4.324364
     155A      4.362349   156A      4.431651   157A      4.433555
     158A      4.446452   159A      4.523953   160A      4.525311
     161A      4.588491   162A      4.588930   163A      4.625057
     164A      4.719812   165A      4.780881   166A      4.782205
     167A      4.839829   168A      4.967582   169A      5.006324
     170A      5.007755   171A      5.233756   172A      5.248413
     173A      5.248793   174A      5.361393   175A      5.362576
     176A      5.481668

    Final Occupation by Irrep:
              A
    DOCC [    16 ]
    SOCC [     1 ]

  @DF-UKS Final Energy:  -157.81306306134121

   => Energetics <=

    Nuclear Repulsion Energy =            125.3946955145172382
    One-Electron Energy =                -458.7490353260108122
    Two-Electron Energy =                 195.8484226914694943
    DFT Exchange-Correlation Energy =     -20.3071459413171347
    Empirical Dispersion Energy =           0.0000000000000000
    VV10 Nonlocal Energy =                  0.0000000000000000
    Total Energy =                       -157.8130630613412109

  UHF NO Occupations:
  HONO-2 :   15  A 1.9996008
  HONO-1 :   16  A 1.9989805
  HONO-0 :   17  A 1.0000000
  LUNO+0 :   18  A 0.0010195
  LUNO+1 :   19  A 0.0003992
  LUNO+2 :   20  A 0.0001987
  LUNO+3 :   21  A 0.0001964

Computation Completed

Properties will be evaluated at   0.000000,   0.000000,   0.000000 [a0]

Properties computed using the SCF density matrix

  Nuclear Dipole Moment: [e a0]
     X:     0.8272      Y:     0.0033      Z:    -0.0096

  Electronic Dipole Moment: [e a0]
     X:    -0.7493      Y:    -0.0034      Z:     0.0108

  Dipole Moment: [e a0]
     X:     0.0779      Y:    -0.0001      Z:     0.0012     Total:     0.0779

  Dipole Moment: [D]
     X:     0.1980      Y:    -0.0002      Z:     0.0031     Total:     0.1981

*** tstop() called on n080 at Fri Nov  5 12:56:23 2021
Module time:
	user time   =     496.49 seconds =       8.27 minutes
	system time =       4.49 seconds =       0.07 minutes
	total time  =        126 seconds =       2.10 minutes
Total time:
	user time   =     496.49 seconds =       8.27 minutes
	system time =       4.49 seconds =       0.07 minutes
	total time  =        126 seconds =       2.10 minutes
Grab this energy -157.8130630613412
    Psi4 stopped on: Friday, 05 November 2021 12:56PM
    Psi4 wall time for execution: 0:02:05.96

*** Psi4 exiting successfully. Buy a developer a beer!
