                               Psi4 1.4a2.dev629

  ==> Input File <==

--------------------------------------------------------------------------
import os
memory 14 GB

molecule {
 C   -0.3233234751    0.0103364283    0.0000000000
 C    0.0615157213   -1.4027274453   -2.4206795572
 C    0.0602752704    2.8097267661   -0.0000000000
 C    0.0615157213   -1.4027274453    2.4206795572
 H    2.0872014410   -1.6510524798   -2.8384419283
 H   -0.7632540170   -0.3972594952   -4.0228556375
 H   -0.7667283346   -3.2946782826   -2.3365595012
 H    2.0862627662    3.2966640983   -0.0000000000
 H   -0.7666460299    3.6873418998    1.6770866461
 H   -0.7666460299    3.6873418998   -1.6770866461
 H    2.0872014410   -1.6510524798    2.8384419283
 H   -0.7667283346   -3.2946782826    2.3365595012
 H   -0.7632540170   -0.3972594952    4.0228556375
units bohr
0 2
}

basis {

assign 6-31g_2dfp_

[ 6-31g_2dfp_ ]

spherical

!----------------------------------------------------------------------
! Basis Set Exchange
! Version v0.8.13
! https://www.basissetexchange.org
!----------------------------------------------------------------------
!   Basis set: 6-31G(2df,p)
! Description: 6-31G(2df,p)
!        Role: orbital
!     Version: 0  (Data from the original Basis Set Exchange)
!----------------------------------------------------------------------

****
H     0
S    3   1.00
     18.7311370              0.03349460
      2.8253937              0.23472695
      0.6401217              0.81375733
S    1   1.00
      0.1612778              1.00000000
P    1   1.00
      1.5000000              1.0000000
P    1   1.00
      0.3750000              1.0000000
****
B     0
S    6   1.00
   2068.8823000              0.0018663
    310.6495700              0.0142515
     70.6830330              0.0695516
     19.8610800              0.2325729
      6.2993048              0.4670787
      2.1270270              0.3634314
SP   3   1.00
      4.7279710             -0.1303938              0.0745976
      1.1903377             -0.1307889              0.3078467
      0.3594117              1.1309444              0.7434568
SP   1   1.00
      0.1267512              1.0000000              1.0000000
D    1   1.00
      0.8020000              1.0000000
D    1   1.00
      0.2005000              1.0000000
F    1   1.00
      0.5000000              1.0000000
****
C     0
S    6   1.00
   3047.5249000              0.0018347
    457.3695100              0.0140373
    103.9486900              0.0688426
     29.2101550              0.2321844
      9.2866630              0.4679413
      3.1639270              0.3623120
SP   3   1.00
      7.8682724             -0.1193324              0.0689991
      1.8812885             -0.1608542              0.3164240
      0.5442493              1.1434564              0.7443083
SP   1   1.00
      0.1687144              1.0000000              1.0000000
D    1   1.00
      1.2520000              1.0000000
D    1   1.00
      0.3130000              1.0000000
F    1   1.00
      0.8000000              1.0000000
****
N     0
S    6   1.00
   4173.5110000              0.0018348
    627.4579000              0.0139950
    142.9021000              0.0685870
     40.2343300              0.2322410
     12.8202100              0.4690700
      4.3904370              0.3604550
SP   3   1.00
     11.6263580             -0.1149610              0.0675800
      2.7162800             -0.1691180              0.3239070
      0.7722180              1.1458520              0.7408950
SP   1   1.00
      0.2120313              1.0000000              1.0000000
D    1   1.00
      1.8260000              1.0000000
D    1   1.00
      0.4565000              1.0000000
F    1   1.00
      1.0000000              1.0000000
****
O     0
S    6   1.00
   5484.6717000              0.0018311
    825.2349500              0.0139501
    188.0469600              0.0684451
     52.9645000              0.2327143
     16.8975700              0.4701930
      5.7996353              0.3585209
SP   3   1.00
     15.5396160             -0.1107775              0.0708743
      3.5999336             -0.1480263              0.3397528
      1.0137618              1.1307670              0.7271586
SP   1   1.00
      0.2700058              1.0000000              1.0000000
D    1   1.00
      2.5840000              1.0000000
D    1   1.00
      0.6460000              1.0000000
F    1   1.00
      1.4000000              1.0000000
****
F     0
S    6   1.00
   7001.7130900              0.0018196169
   1051.3660900              0.0139160796
    239.2856900              0.0684053245
     67.3974453              0.233185760
     21.5199573              0.471267439
      7.40310130             0.356618546
SP   3   1.00
     20.8479528             -0.108506975            0.0716287243
      4.80830834            -0.146451658            0.3459121030
      1.34406986             1.128688580            0.7224699570
SP   1   1.00
      0.358151393            1.0000000              1.0000000
D    1   1.00
      3.5000000              1.0000000
D    1   1.00
      0.8750000              1.0000000
F    1   1.00
      1.8500000              1.0000000
****
Al     0
S    6   1.00
  13983.1000000              0.00194267
   2098.7500000              0.0148599
    477.7050000              0.0728494
    134.3600000              0.2468300
     42.8709000              0.4872580
     14.5189000              0.3234960
SP   6   1.00
    239.6680000             -0.00292619             0.00460285
     57.4419000             -0.0374080              0.0331990
     18.2859000             -0.1144870              0.1362820
      6.5991400              0.1156350              0.3304760
      2.4904900              0.6125950              0.4491460
      0.9445400              0.3937990              0.2657040
SP   3   1.00
      1.2779000             -0.2276060             -0.0175130
      0.3975900              0.00144583             0.2445330
      0.1600950              1.0927900              0.8049340
SP   1   1.00
      0.0556577              1.0000000              1.0000000
D    1   1.00
      0.6500000              1.0000000
D    1   1.00
      0.1625000              1.0000000
F    1   1.00
      0.2500000              1.0000000
****
Si     0
S    6   1.00
  16115.9000000              0.00195948
   2425.5800000              0.01492880
    553.8670000              0.07284780
    156.3400000              0.24613000
     50.0683000              0.48591400
     17.0178000              0.32500200
SP   6   1.00
    292.7180000             -0.00278094             0.00443826
     69.8731000             -0.03571460             0.03266790
     22.3363000             -0.11498500             0.13472100
      8.1503900              0.09356340             0.32867800
      3.1345800              0.60301700             0.44964000
      1.2254300              0.41895900             0.26137200
SP   3   1.00
      1.7273800             -0.24463000            -0.01779510
      0.5729220              0.00431572             0.25353900
      0.2221920              1.09818000             0.80066900
SP   1   1.00
      0.0778369              1.00000000             1.00000000
D    1   1.00
      0.9000000              1.0000000
D    1   1.00
      0.2250000              1.0000000
F    1   1.00
      0.3200000              1.0000000
****
P     0
S    6   1.00
  19413.3000000              0.0018516
   2909.4200000              0.0142062
    661.3640000              0.0699995
    185.7590000              0.2400790
     59.1943000              0.4847620
     20.0310000              0.3352000
SP   6   1.00
    339.4780000             -0.00278217             0.00456462
     81.0101000             -0.0360499              0.03369360
     25.8780000             -0.1166310              0.13975500
      9.4522100              0.0968328              0.33936200
      3.6656600              0.6144180              0.45092100
      1.4674600              0.4037980              0.23858600
SP   3   1.00
      2.1562300             -0.2529230             -0.01776530
      0.7489970              0.0328517              0.27405800
      0.2831450              1.0812500              0.78542100
SP   1   1.00
      0.0998317              1.0000000              1.00000000
D    1   1.00
      1.1000000              1.0000000
D    1   1.00
      0.2750000              1.0000000
F    1   1.00
      0.4500000              1.0000000
****
S     0
S    6   1.00
  21917.1000000              0.0018690
   3301.4900000              0.0142300
    754.1460000              0.0696960
    212.7110000              0.2384870
     67.9896000              0.4833070
     23.0515000              0.3380740
SP   6   1.00
    423.7350000             -0.0023767              0.0040610
    100.7100000             -0.0316930              0.0306810
     32.1599000             -0.1133170              0.1304520
     11.8079000              0.0560900              0.3272050
      4.6311000              0.5922550              0.4528510
      1.8702500              0.4550060              0.2560420
SP   3   1.00
      2.6158400             -0.2503740             -0.0145110
      0.9221670              0.0669570              0.3102630
      0.3412870              1.0545100              0.7544830
SP   1   1.00
      0.1171670              1.0000000              1.0000000
D    1   1.00
      1.3000000              1.0000000
D    1   1.00
      0.3250000              1.0000000
F    1   1.00
      0.5500000              1.0000000
****
Cl     0
S    6   1.00
  25180.1000000              0.0018330
   3780.3500000              0.0140340
    860.4740000              0.0690970
    242.1450000              0.2374520
     77.3349000              0.4830340
     26.2470000              0.3398560
SP   6   1.00
    491.7650000             -0.0022974              0.0039894
    116.9840000             -0.0307140              0.0303180
     37.4153000             -0.1125280              0.1298800
     13.7834000              0.0450160              0.3279510
      5.4521500              0.5893530              0.4535270
      2.2258800              0.4652060              0.2521540
SP   3   1.00
      3.1864900             -0.2518300             -0.0142990
      1.1442700              0.0615890              0.3235720
      0.4203770              1.0601800              0.7435070
SP   1   1.00
      0.1426570              1.0000000              1.0000000
D    1   1.00
      1.5000000              1.0000000
D    1   1.00
      0.3750000              1.0000000
F    1   1.00
      0.7000000              1.0000000
****
}

set {
reference uhf
freeze_core true
e_convergence 10
d_convergence 10
dft_spherical_points 1202
dft_radial_points 99
}

e = energy('b3lyp')

print_out('Grab this energy {0}'.format(e))
--------------------------------------------------------------------------

    Molecular point group: cs

    Geometry (in Bohr), charge = 0, multiplicity = 2:

       Center              X                  Y                   Z               Mass
    ------------   -----------------  -----------------  -----------------  -----------------
         C           -0.323327947964     0.007523193130     0.000000000000    12.000000000000
         C            0.061511248436    -1.405540680470    -2.420679557200    12.000000000000
         C            0.060270797536     2.806913530930     0.000000000000    12.000000000000
         C            0.061511248436    -1.405540680470     2.420679557200    12.000000000000
         H            2.087196968136    -1.653865714970    -2.838441928300     1.007825032230
         H           -0.763258489864    -0.400072730370    -4.022855637500     1.007825032230
         H           -0.766732807464    -3.297491517770    -2.336559501200     1.007825032230
         H            2.086258293336     3.293850863130     0.000000000000     1.007825032230
         H           -0.766650502764     3.684528664630     1.677086646100     1.007825032230
         H           -0.766650502764     3.684528664630    -1.677086646100     1.007825032230
         H            2.087196968136    -1.653865714970     2.838441928300     1.007825032230
         H           -0.766732807464    -3.297491517770     2.336559501200     1.007825032230
         H           -0.763258489864    -0.400072730370     4.022855637500     1.007825032230

  Charge       = 0
  Multiplicity = 2
  Basis Set: ANONYMOUS41F62EF3
    Blend: 6-31G_2DFP_
  Basis Set: (ANONYMOUS41F62EF3 AUX)
    Blend: DEF2-UNIVERSAL-JKFIT

    Orbital Energies [Eh]
    ---------------------

    Alpha Occupied:

       1Ap   -10.180342     2Ap   -10.167295     1App  -10.166891
       3Ap   -10.166859     4Ap    -0.797768     5Ap    -0.686597
       2App   -0.685775     6Ap    -0.530776     7Ap    -0.441127
       8Ap    -0.434721     3App   -0.434620     9Ap    -0.382861
       4App   -0.382339     5App   -0.363607    10Ap    -0.338793
       6App   -0.337197    11Ap    -0.168961

    Alpha Virtual:

      12Ap     0.076071    13Ap     0.133901     7App    0.134411
       8App    0.142589    14Ap     0.142662    15Ap     0.154881
      16Ap     0.178562     9App    0.178998    17Ap     0.203547
      10App    0.214807    11App    0.275864    18Ap     0.276103
      19Ap     0.399164    12App    0.399253    20Ap     0.403401
      21Ap     0.423966    13App    0.424237    22Ap     0.456598
      23Ap     0.495033    14App    0.495741    15App    0.512170
      24Ap     0.513981    25Ap     0.578724    16App    0.578851
      26Ap     0.591634    17App    0.591689    27Ap     0.602567
      28Ap     0.624740    18App    0.631772    19App    0.635874
      29Ap     0.636646    30Ap     0.663130    20App    0.663699
      31Ap     0.683559    21App    0.684152    32Ap     0.734993
      33Ap     0.824687    22App    0.826116    23App    0.853917
      34Ap     0.914645    24App    0.915388    25App    0.944060
      35Ap     0.944542    26App    0.960950    36Ap     0.961824
      37Ap     1.003475    38Ap     1.127128    27App    1.129052
      39Ap     1.142269    40Ap     1.163154    28App    1.163376
      41Ap     1.223340    42Ap     1.273518    29App    1.275488
      43Ap     1.279363    30App    1.324166    44Ap     1.324558
      45Ap     1.355979    46Ap     1.365597    31App    1.366421
      32App    1.392392    47Ap     1.403328    33App    1.404881
      48Ap     1.416320    34App    1.417940    35App    1.427956
      36App    1.491412    49Ap     1.499067    50Ap     1.542467
      37App    1.543231    51Ap     1.572566    38App    1.576460
      52Ap     1.669818    53Ap     1.738546    39App    1.740267
      54Ap     1.768346    55Ap     1.831144    40App    1.831647
      41App    1.971740    56Ap     2.017010    57Ap     2.018331
      42App    2.021068    58Ap     2.050643    43App    2.054701
      59Ap     2.738461    44App    2.738515    60Ap     2.790921
      45App    2.811439    46App    2.889288    61Ap     2.890593
      62Ap     2.894939    47App    2.929286    63Ap     2.929702
      48App    2.959008    64Ap     2.963328    49App    2.965457
      65Ap     3.034004    66Ap     3.070808    50App    3.071735
      51App    3.084392    67Ap     3.167920    52App    3.169668
      68Ap     3.180586    53App    3.284297    69Ap     3.286315
      70Ap     3.325832    54App    3.328501    71Ap     3.375669
      55App    3.490112    72Ap     3.490146    56App    3.513956
      73Ap     3.525281    74Ap     3.567122    57App    3.569469
      58App    3.575535    75Ap     3.665939    59App    3.666825
      76Ap     3.679662    60App    3.693681    77Ap     3.694556
      61App    3.775288    78Ap     3.778060    79Ap     3.789469
      80Ap     3.911282    62App    3.913168    81Ap     4.034442
      82Ap     4.110333    63App    4.112418    83Ap     4.147439
      64App    4.148748    84Ap     4.173241    85Ap     4.201686
      86Ap     4.202833    65App    4.204087    66App    4.211149
      67App    4.315354    87Ap     4.316558    68App    4.359032
      88Ap     4.424362    69App    4.424489    70App    4.443457
      89Ap     4.516128    71App    4.517611    90Ap     4.576752
      72App    4.579484    91Ap     4.617798    92Ap     4.709435
      93Ap     4.773897    73App    4.775318    74App    4.836905
      94Ap     4.962840    95Ap     5.001741    75App    5.004212
      96Ap     5.228033    76App    5.246640    97Ap     5.247040
      98Ap     5.355355    77App    5.355639    78App    5.479300

    Beta Occupied:

       1Ap   -10.168054     1App  -10.167643     2Ap   -10.167627
       3Ap   -10.166519     4Ap    -0.781093     5Ap    -0.684392
       2App   -0.683586     6Ap    -0.511748     7Ap    -0.431108
       3App   -0.430980     8Ap    -0.421821     9Ap    -0.376915
       4App   -0.376456     5App   -0.362590    10Ap    -0.333930
       6App   -0.332307

    Beta Virtual:

      11Ap    -0.025743    12Ap     0.077080    13Ap     0.134797
       7App    0.135294     8App    0.144465    14Ap     0.144530
      15Ap     0.163340    16Ap     0.182235     9App    0.182667
      10App    0.215036    17Ap     0.218929    11App    0.282258
      18Ap     0.282404    12App    0.400402    19Ap     0.400404
      20Ap     0.419795    21Ap     0.426773    13App    0.427052
      22Ap     0.468508    23Ap     0.497294    14App    0.498003
      15App    0.513905    24Ap     0.556324    25Ap     0.584331
      16App    0.584352    26Ap     0.597803    17App    0.597868
      27Ap     0.609993    28Ap     0.628124    18App    0.631929
      19App    0.639129    29Ap     0.639958    30Ap     0.666672
      20App    0.667281    31Ap     0.686142    21App    0.686842
      32Ap     0.757516    33Ap     0.829842    22App    0.831297
      23App    0.855270    34Ap     0.922569    24App    0.923401
      25App    0.945916    35Ap     0.953475    26App    0.966176
      36Ap     0.967196    37Ap     1.008712    38Ap     1.131173
      27App    1.133097    39Ap     1.155606    40Ap     1.168196
      28App    1.168488    41Ap     1.232308    42Ap     1.279172
      29App    1.281035    43Ap     1.285110    30App    1.329152
      44Ap     1.329553    45Ap     1.365389    46Ap     1.370696
      31App    1.371809    32App    1.393457    47Ap     1.406881
      33App    1.408259    48Ap     1.421375    34App    1.422979
      35App    1.428228    36App    1.492464    49Ap     1.509510
      50Ap     1.546775    37App    1.547744    51Ap     1.580615
      38App    1.584146    52Ap     1.674666    53Ap     1.744320
      39App    1.746021    54Ap     1.779122    55Ap     1.834996
      40App    1.835505    41App    1.972602    56Ap     2.023392
      42App    2.027522    57Ap     2.039677    58Ap     2.057433
      43App    2.061332    59Ap     2.746784    44App    2.746864
      45App    2.811851    60Ap     2.816057    46App    2.902093
      61Ap     2.903157    62Ap     2.924647    47App    2.931628
      63Ap     2.932334    48App    2.960071    64Ap     2.967904
      49App    2.969966    65Ap     3.041939    66Ap     3.080532
      50App    3.081693    51App    3.086354    67Ap     3.183830
      52App    3.185207    68Ap     3.188307    53App    3.289203
      69Ap     3.291012    70Ap     3.329630    54App    3.332316
      71Ap     3.383481    55App    3.492824    72Ap     3.492891
      56App    3.512327    73Ap     3.528338    57App    3.574794
      74Ap     3.580507    58App    3.583362    75Ap     3.670739
      59App    3.671511    76Ap     3.692958    60App    3.725490
      77Ap     3.726019    61App    3.779801    78Ap     3.782820
      79Ap     3.817771    80Ap     3.921106    62App    3.922987
      81Ap     4.045332    82Ap     4.117108    63App    4.119271
      83Ap     4.154681    64App    4.155930    84Ap     4.187297
      85Ap     4.207694    65App    4.209981    86Ap     4.210695
      66App    4.215701    67App    4.322708    87Ap     4.324081
      68App    4.362397    88Ap     4.432598    69App    4.432672
      70App    4.446356    89Ap     4.524064    71App    4.525251
      90Ap     4.587258    72App    4.590162    91Ap     4.625004
      92Ap     4.719785    93Ap     4.780851    73App    4.782270
      74App    4.839823    94Ap     4.967634    95Ap     5.005796
      75App    5.008235    96Ap     5.233748    76App    5.248425
      97Ap     5.248826    98Ap     5.361844    77App    5.362112
      78App    5.481621

    Final Occupation by Irrep:
             Ap   App
    DOCC [    10,    6 ]
    SOCC [     1,    0 ]

  @DF-UKS Final Energy:  -157.81305883137333

   => Energetics <=

    Nuclear Repulsion Energy =            125.3949670643798555
    One-Electron Energy =                -458.7495821399546685
    Two-Electron Energy =                 195.8487023174552064
    DFT Exchange-Correlation Energy =     -20.3071460732536941
    Empirical Dispersion Energy =           0.0000000000000000
    VV10 Nonlocal Energy =                  0.0000000000000000
    Total Energy =                       -157.8130588313733256

  UHF NO Occupations:
  HONO-2 :    9 Ap 1.9996009
  HONO-1 :   10 Ap 1.9989804
  HONO-0 :   11 Ap 1.0000000
  LUNO+0 :   12 Ap 0.0010196
  LUNO+1 :   13 Ap 0.0003991
  LUNO+2 :    7App 0.0001990
  LUNO+3 :   14 Ap 0.0001961

Computation Completed

Properties will be evaluated at   0.000000,   0.000000,   0.000000 [a0]

Properties computed using the SCF density matrix

  Nuclear Dipole Moment: [e a0]
     X:     0.8272      Y:    -0.0198      Z:    -0.0000

  Electronic Dipole Moment: [e a0]
     X:    -0.7492      Y:     0.0218      Z:     0.0000

  Dipole Moment: [e a0]
     X:     0.0779      Y:     0.0020      Z:    -0.0000     Total:     0.0779

  Dipole Moment: [D]
     X:     0.1980      Y:     0.0050      Z:    -0.0000     Total:     0.1981

*** tstop() called on n036 at Fri Nov  5 13:52:17 2021
Module time:
	user time   =     639.85 seconds =      10.66 minutes
	system time =      12.44 seconds =       0.21 minutes
	total time  =        164 seconds =       2.73 minutes
Total time:
	user time   =     639.85 seconds =      10.66 minutes
	system time =      12.44 seconds =       0.21 minutes
	total time  =        164 seconds =       2.73 minutes
Grab this energy -157.81305883137333
    Psi4 stopped on: Friday, 05 November 2021 01:52PM
    Psi4 wall time for execution: 0:02:43.98

*** Psi4 exiting successfully. Buy a developer a beer!
