                               Psi4 1.4a2.dev629

  ==> Input File <==

--------------------------------------------------------------------------
import os
memory 14 GB

molecule {
 C   -0.3205372439   -0.0000018300    0.0000000000
 C    0.0627576791   -1.4006717100   -2.4260244036
 C    0.0626379134    2.8013479034    0.0000000000
 C    0.0627576791   -1.4006717100    2.4260244036
 H    2.0832915374   -1.6468955715   -2.8522878432
 H   -0.7648578626   -0.3842124785   -4.0243595703
 H   -0.7650223320   -3.2930322969   -2.3449540212
 H    2.0831520189    3.2936993106    0.0000000000
 H   -0.7650993044    3.6772772082    1.6794112810
 H   -0.7650993044    3.6772772082   -1.6794112810
 H    2.0832915374   -1.6468955715    2.8522878432
 H   -0.7650223320   -3.2930322969    2.3449540212
 H   -0.7648578626   -0.3842124785    4.0243595703
units bohr
0 2
}

basis {

assign 6-31g_2dfp_

[ 6-31g_2dfp_ ]

spherical

!----------------------------------------------------------------------
! Basis Set Exchange
! Version v0.8.13
! https://www.basissetexchange.org
!----------------------------------------------------------------------
!   Basis set: 6-31G(2df,p)
! Description: 6-31G(2df,p)
!        Role: orbital
!     Version: 0  (Data from the original Basis Set Exchange)
!----------------------------------------------------------------------

****
H     0
S    3   1.00
     18.7311370              0.03349460
      2.8253937              0.23472695
      0.6401217              0.81375733
S    1   1.00
      0.1612778              1.00000000
P    1   1.00
      1.5000000              1.0000000
P    1   1.00
      0.3750000              1.0000000
****
B     0
S    6   1.00
   2068.8823000              0.0018663
    310.6495700              0.0142515
     70.6830330              0.0695516
     19.8610800              0.2325729
      6.2993048              0.4670787
      2.1270270              0.3634314
SP   3   1.00
      4.7279710             -0.1303938              0.0745976
      1.1903377             -0.1307889              0.3078467
      0.3594117              1.1309444              0.7434568
SP   1   1.00
      0.1267512              1.0000000              1.0000000
D    1   1.00
      0.8020000              1.0000000
D    1   1.00
      0.2005000              1.0000000
F    1   1.00
      0.5000000              1.0000000
****
C     0
S    6   1.00
   3047.5249000              0.0018347
    457.3695100              0.0140373
    103.9486900              0.0688426
     29.2101550              0.2321844
      9.2866630              0.4679413
      3.1639270              0.3623120
SP   3   1.00
      7.8682724             -0.1193324              0.0689991
      1.8812885             -0.1608542              0.3164240
      0.5442493              1.1434564              0.7443083
SP   1   1.00
      0.1687144              1.0000000              1.0000000
D    1   1.00
      1.2520000              1.0000000
D    1   1.00
      0.3130000              1.0000000
F    1   1.00
      0.8000000              1.0000000
****
N     0
S    6   1.00
   4173.5110000              0.0018348
    627.4579000              0.0139950
    142.9021000              0.0685870
     40.2343300              0.2322410
     12.8202100              0.4690700
      4.3904370              0.3604550
SP   3   1.00
     11.6263580             -0.1149610              0.0675800
      2.7162800             -0.1691180              0.3239070
      0.7722180              1.1458520              0.7408950
SP   1   1.00
      0.2120313              1.0000000              1.0000000
D    1   1.00
      1.8260000              1.0000000
D    1   1.00
      0.4565000              1.0000000
F    1   1.00
      1.0000000              1.0000000
****
O     0
S    6   1.00
   5484.6717000              0.0018311
    825.2349500              0.0139501
    188.0469600              0.0684451
     52.9645000              0.2327143
     16.8975700              0.4701930
      5.7996353              0.3585209
SP   3   1.00
     15.5396160             -0.1107775              0.0708743
      3.5999336             -0.1480263              0.3397528
      1.0137618              1.1307670              0.7271586
SP   1   1.00
      0.2700058              1.0000000              1.0000000
D    1   1.00
      2.5840000              1.0000000
D    1   1.00
      0.6460000              1.0000000
F    1   1.00
      1.4000000              1.0000000
****
F     0
S    6   1.00
   7001.7130900              0.0018196169
   1051.3660900              0.0139160796
    239.2856900              0.0684053245
     67.3974453              0.233185760
     21.5199573              0.471267439
      7.40310130             0.356618546
SP   3   1.00
     20.8479528             -0.108506975            0.0716287243
      4.80830834            -0.146451658            0.3459121030
      1.34406986             1.128688580            0.7224699570
SP   1   1.00
      0.358151393            1.0000000              1.0000000
D    1   1.00
      3.5000000              1.0000000
D    1   1.00
      0.8750000              1.0000000
F    1   1.00
      1.8500000              1.0000000
****
Al     0
S    6   1.00
  13983.1000000              0.00194267
   2098.7500000              0.0148599
    477.7050000              0.0728494
    134.3600000              0.2468300
     42.8709000              0.4872580
     14.5189000              0.3234960
SP   6   1.00
    239.6680000             -0.00292619             0.00460285
     57.4419000             -0.0374080              0.0331990
     18.2859000             -0.1144870              0.1362820
      6.5991400              0.1156350              0.3304760
      2.4904900              0.6125950              0.4491460
      0.9445400              0.3937990              0.2657040
SP   3   1.00
      1.2779000             -0.2276060             -0.0175130
      0.3975900              0.00144583             0.2445330
      0.1600950              1.0927900              0.8049340
SP   1   1.00
      0.0556577              1.0000000              1.0000000
D    1   1.00
      0.6500000              1.0000000
D    1   1.00
      0.1625000              1.0000000
F    1   1.00
      0.2500000              1.0000000
****
Si     0
S    6   1.00
  16115.9000000              0.00195948
   2425.5800000              0.01492880
    553.8670000              0.07284780
    156.3400000              0.24613000
     50.0683000              0.48591400
     17.0178000              0.32500200
SP   6   1.00
    292.7180000             -0.00278094             0.00443826
     69.8731000             -0.03571460             0.03266790
     22.3363000             -0.11498500             0.13472100
      8.1503900              0.09356340             0.32867800
      3.1345800              0.60301700             0.44964000
      1.2254300              0.41895900             0.26137200
SP   3   1.00
      1.7273800             -0.24463000            -0.01779510
      0.5729220              0.00431572             0.25353900
      0.2221920              1.09818000             0.80066900
SP   1   1.00
      0.0778369              1.00000000             1.00000000
D    1   1.00
      0.9000000              1.0000000
D    1   1.00
      0.2250000              1.0000000
F    1   1.00
      0.3200000              1.0000000
****
P     0
S    6   1.00
  19413.3000000              0.0018516
   2909.4200000              0.0142062
    661.3640000              0.0699995
    185.7590000              0.2400790
     59.1943000              0.4847620
     20.0310000              0.3352000
SP   6   1.00
    339.4780000             -0.00278217             0.00456462
     81.0101000             -0.0360499              0.03369360
     25.8780000             -0.1166310              0.13975500
      9.4522100              0.0968328              0.33936200
      3.6656600              0.6144180              0.45092100
      1.4674600              0.4037980              0.23858600
SP   3   1.00
      2.1562300             -0.2529230             -0.01776530
      0.7489970              0.0328517              0.27405800
      0.2831450              1.0812500              0.78542100
SP   1   1.00
      0.0998317              1.0000000              1.00000000
D    1   1.00
      1.1000000              1.0000000
D    1   1.00
      0.2750000              1.0000000
F    1   1.00
      0.4500000              1.0000000
****
S     0
S    6   1.00
  21917.1000000              0.0018690
   3301.4900000              0.0142300
    754.1460000              0.0696960
    212.7110000              0.2384870
     67.9896000              0.4833070
     23.0515000              0.3380740
SP   6   1.00
    423.7350000             -0.0023767              0.0040610
    100.7100000             -0.0316930              0.0306810
     32.1599000             -0.1133170              0.1304520
     11.8079000              0.0560900              0.3272050
      4.6311000              0.5922550              0.4528510
      1.8702500              0.4550060              0.2560420
SP   3   1.00
      2.6158400             -0.2503740             -0.0145110
      0.9221670              0.0669570              0.3102630
      0.3412870              1.0545100              0.7544830
SP   1   1.00
      0.1171670              1.0000000              1.0000000
D    1   1.00
      1.3000000              1.0000000
D    1   1.00
      0.3250000              1.0000000
F    1   1.00
      0.5500000              1.0000000
****
Cl     0
S    6   1.00
  25180.1000000              0.0018330
   3780.3500000              0.0140340
    860.4740000              0.0690970
    242.1450000              0.2374520
     77.3349000              0.4830340
     26.2470000              0.3398560
SP   6   1.00
    491.7650000             -0.0022974              0.0039894
    116.9840000             -0.0307140              0.0303180
     37.4153000             -0.1125280              0.1298800
     13.7834000              0.0450160              0.3279510
      5.4521500              0.5893530              0.4535270
      2.2258800              0.4652060              0.2521540
SP   3   1.00
      3.1864900             -0.2518300             -0.0142990
      1.1442700              0.0615890              0.3235720
      0.4203770              1.0601800              0.7435070
SP   1   1.00
      0.1426570              1.0000000              1.0000000
D    1   1.00
      1.5000000              1.0000000
D    1   1.00
      0.3750000              1.0000000
F    1   1.00
      0.7000000              1.0000000
****
}

set {
reference uhf
freeze_core true
e_convergence 10
d_convergence 10
dft_spherical_points 1202
dft_radial_points 99
}

e = energy('b3lyp')

print_out('Grab this energy {0}'.format(e))
--------------------------------------------------------------------------

    Molecular point group: cs

    Geometry (in Bohr), charge = 0, multiplicity = 2:

       Center              X                  Y                   Z               Mass
    ------------   -----------------  -----------------  -----------------  -----------------
         C           -0.322011847061    -0.000001911706     0.000000000000    12.000000000000
         C            0.061283075939    -1.400671791706    -2.426024403600    12.000000000000
         C            0.061163310239     2.801347821694     0.000000000000    12.000000000000
         C            0.061283075939    -1.400671791706     2.426024403600    12.000000000000
         H            2.081816934239    -1.646895653206    -2.852287843200     1.007825032230
         H           -0.766332465761    -0.384212560206    -4.024359570300     1.007825032230
         H           -0.766496935161    -3.293032378606    -2.344954021200     1.007825032230
         H            2.081677415739     3.293699228894     0.000000000000     1.007825032230
         H           -0.766573907561     3.677277126494     1.679411281000     1.007825032230
         H           -0.766573907561     3.677277126494    -1.679411281000     1.007825032230
         H            2.081816934239    -1.646895653206     2.852287843200     1.007825032230
         H           -0.766496935161    -3.293032378606     2.344954021200     1.007825032230
         H           -0.766332465761    -0.384212560206     4.024359570300     1.007825032230

  Charge       = 0
  Multiplicity = 2
  Basis Set: ANONYMOUSF26469B6
    Blend: 6-31G_2DFP_
  Basis Set: (ANONYMOUSF26469B6 AUX)
    Blend: DEF2-UNIVERSAL-JKFIT

    Orbital Energies [Eh]
    ---------------------

    Alpha Occupied:

       1Ap   -10.180272     2Ap   -10.166981     1App  -10.166980
       3Ap   -10.166935     4Ap    -0.797868     5Ap    -0.686231
       2App   -0.686231     6Ap    -0.530801     7Ap    -0.441049
       3App   -0.434841     8Ap    -0.434840     9Ap    -0.382583
       4App   -0.382582     5App   -0.363570     6App   -0.337966
      10Ap    -0.337966    11Ap    -0.169013

    Alpha Virtual:

      12Ap     0.076021    13Ap     0.134101     7App    0.134102
      14Ap     0.142631     8App    0.142631    15Ap     0.155250
      16Ap     0.178916     9App    0.178916    17Ap     0.203722
      10App    0.214750    11App    0.276049    18Ap     0.276051
      19Ap     0.399573    12App    0.399578    20Ap     0.403353
      13App    0.423756    21Ap     0.423757    22Ap     0.456906
      23Ap     0.495187    14App    0.495188    15App    0.512092
      24Ap     0.514190    25Ap     0.579138    16App    0.579147
      17App    0.591705    26Ap     0.591707    27Ap     0.603091
      28Ap     0.624322    18App    0.631640    19App    0.635965
      29Ap     0.635969    30Ap     0.664184    20App    0.664184
      31Ap     0.683518    21App    0.683519    32Ap     0.735016
      22App    0.825335    33Ap     0.825338    23App    0.854542
      24App    0.915393    34Ap     0.915399    35Ap     0.943669
      25App    0.944063    26App    0.961103    36Ap     0.961120
      37Ap     1.004360    38Ap     1.128313    27App    1.128325
      39Ap     1.142332    40Ap     1.163542    28App    1.163555
      41Ap     1.222850    42Ap     1.274704    29App    1.274707
      43Ap     1.279751    30App    1.324832    44Ap     1.324835
      45Ap     1.355041    31App    1.366454    46Ap     1.366459
      32App    1.392316    47Ap     1.404805    33App    1.404807
      34App    1.415976    48Ap     1.415983    35App    1.428739
      36App    1.492103    49Ap     1.499706    37App    1.543269
      50Ap     1.543271    51Ap     1.573462    38App    1.573464
      52Ap     1.668627    53Ap     1.740128    39App    1.740139
      54Ap     1.770026    40App    1.830272    55Ap     1.830272
      41App    1.970818    56Ap     2.018179    57Ap     2.019779
      42App    2.019784    43App    2.054493    58Ap     2.054493
      44App    2.737754    59Ap     2.737755    60Ap     2.791542
      45App    2.811481    61Ap     2.890484    46App    2.890490
      62Ap     2.895525    63Ap     2.929737    47App    2.929746
      48App    2.959195    64Ap     2.964857    49App    2.964871
      65Ap     3.035170    50App    3.070834    66Ap     3.070848
      51App    3.082610    67Ap     3.168835    52App    3.168842
      68Ap     3.180814    53App    3.285006    69Ap     3.285006
      70Ap     3.327625    54App    3.327631    71Ap     3.375148
      55App    3.489908    72Ap     3.489928    56App    3.515459
      73Ap     3.524298    57App    3.569315    74Ap     3.569335
      58App    3.576820    75Ap     3.666724    59App    3.666731
      76Ap     3.680128    60App    3.693398    77Ap     3.693414
      78Ap     3.777532    61App    3.777558    79Ap     3.788579
      80Ap     3.911776    62App    3.911782    81Ap     4.032874
      82Ap     4.111525    63App    4.111529    83Ap     4.148476
      64App    4.148483    84Ap     4.174827    85Ap     4.202482
      65App    4.202973    86Ap     4.202977    66App    4.212490
      87Ap     4.316774    67App    4.316794    68App    4.358906
      88Ap     4.424699    69App    4.424702    70App    4.444194
      71App    4.518299    89Ap     4.518300    72App    4.578584
      90Ap     4.578596    91Ap     4.618145    92Ap     4.710290
      93Ap     4.774828    73App    4.774836    74App    4.834526
      94Ap     4.963079    75App    5.004135    95Ap     5.004148
      96Ap     5.231140    76App    5.243738    97Ap     5.243738
      98Ap     5.358055    77App    5.358068    78App    5.477660

    Beta Occupied:

       1Ap   -10.167733     1App  -10.167733     2Ap   -10.167708
       3Ap   -10.166448     4Ap    -0.781190     5Ap    -0.684020
       2App   -0.684019     6Ap    -0.511720     3App   -0.431178
       7Ap    -0.431178     8Ap    -0.421811     9Ap    -0.376684
       4App   -0.376682     5App   -0.362539     6App   -0.333097
      10Ap    -0.333096

    Beta Virtual:

      11Ap    -0.025781    12Ap     0.077011    13Ap     0.134938
       7App    0.134939    14Ap     0.144534     8App    0.144535
      15Ap     0.163739    16Ap     0.182609     9App    0.182610
      10App    0.214989    17Ap     0.219067    11App    0.282381
      18Ap     0.282384    19Ap     0.400745    12App    0.400750
      20Ap     0.419726    13App    0.426562    21Ap     0.426563
      22Ap     0.468991    23Ap     0.497453    14App    0.497453
      15App    0.513825    24Ap     0.556489    25Ap     0.584681
      16App    0.584689    17App    0.597867    26Ap     0.597868
      27Ap     0.610399    28Ap     0.627839    18App    0.631801
      19App    0.639284    29Ap     0.639288    30Ap     0.667739
      20App    0.667740    31Ap     0.686147    21App    0.686149
      32Ap     0.757506    22App    0.830498    33Ap     0.830500
      23App    0.855889    24App    0.923392    34Ap     0.923399
      25App    0.945907    35Ap     0.952630    26App    0.966417
      36Ap     0.966433    37Ap     1.009669    38Ap     1.132307
      27App    1.132319    39Ap     1.155417    40Ap     1.168631
      28App    1.168644    41Ap     1.231936    42Ap     1.280342
      29App    1.280346    43Ap     1.285631    30App    1.329815
      44Ap     1.329817    45Ap     1.364419    31App    1.371620
      46Ap     1.371625    32App    1.393372    47Ap     1.408337
      33App    1.408340    34App    1.421011    48Ap     1.421017
      35App    1.429003    36App    1.493166    49Ap     1.510119
      50Ap     1.547637    37App    1.547638    38App    1.581365
      51Ap     1.581366    52Ap     1.673427    53Ap     1.745896
      39App    1.745907    54Ap     1.780833    40App    1.834124
      55Ap     1.834124    41App    1.971698    56Ap     2.026353
      42App    2.026357    57Ap     2.039576    43App    2.061070
      58Ap     2.061071    44App    2.746091    59Ap     2.746093
      45App    2.811895    60Ap     2.816719    61Ap     2.903130
      46App    2.903136    62Ap     2.925421    63Ap     2.932231
      47App    2.932240    48App    2.960263    64Ap     2.969474
      49App    2.969488    65Ap     3.042885    50App    3.080745
      66Ap     3.080757    51App    3.084428    67Ap     3.184566
      52App    3.184570    68Ap     3.188520    69Ap     3.289751
      53App    3.289751    70Ap     3.331440    54App    3.331445
      71Ap     3.382965    55App    3.492745    72Ap     3.492766
      56App    3.513831    73Ap     3.527322    57App    3.576674
      58App    3.582420    74Ap     3.582441    75Ap     3.671471
      59App    3.671482    76Ap     3.693389    60App    3.725189
      77Ap     3.725205    78Ap     3.782193    61App    3.782219
      79Ap     3.817123    80Ap     3.921487    62App    3.921494
      81Ap     4.043752    82Ap     4.118427    63App    4.118429
      83Ap     4.155613    64App    4.155621    84Ap     4.188822
      65App    4.208766    85Ap     4.208770    86Ap     4.210564
      66App    4.216871    87Ap     4.324288    67App    4.324308
      68App    4.362335    88Ap     4.432923    69App    4.432925
      70App    4.447101    71App    4.526041    89Ap     4.526042
      72App    4.589250    90Ap     4.589262    91Ap     4.625353
      92Ap     4.720624    93Ap     4.781818    73App    4.781826
      74App    4.837457    94Ap     4.967859    75App    5.008165
      95Ap     5.008178    96Ap     5.236876    76App    5.245540
      97Ap     5.245540    98Ap     5.364564    77App    5.364577
      78App    5.479999

    Final Occupation by Irrep:
             Ap   App
    DOCC [    10,    6 ]
    SOCC [     1,    0 ]

  @DF-UKS Final Energy:  -157.81306801889664

   => Energetics <=

    Nuclear Repulsion Energy =            125.4116186047421735
    One-Electron Energy =                -458.7823508909540919
    Two-Electron Energy =                 195.8652630379796733
    DFT Exchange-Correlation Energy =     -20.3075987706643879
    Empirical Dispersion Energy =           0.0000000000000000
    VV10 Nonlocal Energy =                  0.0000000000000000
    Total Energy =                       -157.8130680188966437

  UHF NO Occupations:
  HONO-2 :    9 Ap 1.9996019
  HONO-1 :   10 Ap 1.9989833
  HONO-0 :   11 Ap 1.0000000
  LUNO+0 :   12 Ap 0.0010167
  LUNO+1 :   13 Ap 0.0003981
  LUNO+2 :    7App 0.0001972
  LUNO+3 :   14 Ap 0.0001972

Computation Completed

Properties will be evaluated at   0.000000,   0.000000,   0.000000 [a0]

Properties computed using the SCF density matrix

  Nuclear Dipole Moment: [e a0]
     X:     0.8168      Y:    -0.0000      Z:     0.0000

  Electronic Dipole Moment: [e a0]
     X:    -0.7361      Y:     0.0000      Z:     0.0000

  Dipole Moment: [e a0]
     X:     0.0807      Y:     0.0000      Z:     0.0000     Total:     0.0807

  Dipole Moment: [D]
     X:     0.2051      Y:     0.0000      Z:     0.0000     Total:     0.2051

*** tstop() called on n089 at Fri Nov  5 14:51:33 2021
Module time:
	user time   =     473.48 seconds =       7.89 minutes
	system time =       4.42 seconds =       0.07 minutes
	total time  =        121 seconds =       2.02 minutes
Total time:
	user time   =     473.48 seconds =       7.89 minutes
	system time =       4.42 seconds =       0.07 minutes
	total time  =        121 seconds =       2.02 minutes
Grab this energy -157.81306801889664
    Psi4 stopped on: Friday, 05 November 2021 02:51PM
    Psi4 wall time for execution: 0:02:00.32

*** Psi4 exiting successfully. Buy a developer a beer!
