                               Psi4 1.4a2.dev629

  ==> Input File <==

--------------------------------------------------------------------------
import os
memory 14 GB

molecule {
 C   -0.3233394349   -0.0009295708    0.0000000000
 C    0.0613446128   -1.4021379776   -2.4260870748
 C    0.0606140752    2.8010079996    0.0000000000
 C    0.0613446128   -1.4021379776    2.4260870748
 H    2.0843913501   -1.6468227328   -2.8461599731
 H   -0.7668409345   -0.3879738322   -4.0266368684
 H   -0.7616112296   -3.2878342265   -2.3496056755
 H    2.0918929172    3.2875932185    0.0000000000
 H   -0.7681715159    3.6809207886    1.6796260271
 H   -0.7681715159    3.6809207886   -1.6796260271
 H    2.0843913501   -1.6468227328    2.8461599731
 H   -0.7616112296   -3.2878342265    2.3496056755
 H   -0.7668409345   -0.3879738322    4.0266368684
units bohr
0 2
}

basis {

assign 6-31g_2dfp_

[ 6-31g_2dfp_ ]

spherical

!----------------------------------------------------------------------
! Basis Set Exchange
! Version v0.8.13
! https://www.basissetexchange.org
!----------------------------------------------------------------------
!   Basis set: 6-31G(2df,p)
! Description: 6-31G(2df,p)
!        Role: orbital
!     Version: 0  (Data from the original Basis Set Exchange)
!----------------------------------------------------------------------

****
H     0
S    3   1.00
     18.7311370              0.03349460
      2.8253937              0.23472695
      0.6401217              0.81375733
S    1   1.00
      0.1612778              1.00000000
P    1   1.00
      1.5000000              1.0000000
P    1   1.00
      0.3750000              1.0000000
****
B     0
S    6   1.00
   2068.8823000              0.0018663
    310.6495700              0.0142515
     70.6830330              0.0695516
     19.8610800              0.2325729
      6.2993048              0.4670787
      2.1270270              0.3634314
SP   3   1.00
      4.7279710             -0.1303938              0.0745976
      1.1903377             -0.1307889              0.3078467
      0.3594117              1.1309444              0.7434568
SP   1   1.00
      0.1267512              1.0000000              1.0000000
D    1   1.00
      0.8020000              1.0000000
D    1   1.00
      0.2005000              1.0000000
F    1   1.00
      0.5000000              1.0000000
****
C     0
S    6   1.00
   3047.5249000              0.0018347
    457.3695100              0.0140373
    103.9486900              0.0688426
     29.2101550              0.2321844
      9.2866630              0.4679413
      3.1639270              0.3623120
SP   3   1.00
      7.8682724             -0.1193324              0.0689991
      1.8812885             -0.1608542              0.3164240
      0.5442493              1.1434564              0.7443083
SP   1   1.00
      0.1687144              1.0000000              1.0000000
D    1   1.00
      1.2520000              1.0000000
D    1   1.00
      0.3130000              1.0000000
F    1   1.00
      0.8000000              1.0000000
****
N     0
S    6   1.00
   4173.5110000              0.0018348
    627.4579000              0.0139950
    142.9021000              0.0685870
     40.2343300              0.2322410
     12.8202100              0.4690700
      4.3904370              0.3604550
SP   3   1.00
     11.6263580             -0.1149610              0.0675800
      2.7162800             -0.1691180              0.3239070
      0.7722180              1.1458520              0.7408950
SP   1   1.00
      0.2120313              1.0000000              1.0000000
D    1   1.00
      1.8260000              1.0000000
D    1   1.00
      0.4565000              1.0000000
F    1   1.00
      1.0000000              1.0000000
****
O     0
S    6   1.00
   5484.6717000              0.0018311
    825.2349500              0.0139501
    188.0469600              0.0684451
     52.9645000              0.2327143
     16.8975700              0.4701930
      5.7996353              0.3585209
SP   3   1.00
     15.5396160             -0.1107775              0.0708743
      3.5999336             -0.1480263              0.3397528
      1.0137618              1.1307670              0.7271586
SP   1   1.00
      0.2700058              1.0000000              1.0000000
D    1   1.00
      2.5840000              1.0000000
D    1   1.00
      0.6460000              1.0000000
F    1   1.00
      1.4000000              1.0000000
****
F     0
S    6   1.00
   7001.7130900              0.0018196169
   1051.3660900              0.0139160796
    239.2856900              0.0684053245
     67.3974453              0.233185760
     21.5199573              0.471267439
      7.40310130             0.356618546
SP   3   1.00
     20.8479528             -0.108506975            0.0716287243
      4.80830834            -0.146451658            0.3459121030
      1.34406986             1.128688580            0.7224699570
SP   1   1.00
      0.358151393            1.0000000              1.0000000
D    1   1.00
      3.5000000              1.0000000
D    1   1.00
      0.8750000              1.0000000
F    1   1.00
      1.8500000              1.0000000
****
Al     0
S    6   1.00
  13983.1000000              0.00194267
   2098.7500000              0.0148599
    477.7050000              0.0728494
    134.3600000              0.2468300
     42.8709000              0.4872580
     14.5189000              0.3234960
SP   6   1.00
    239.6680000             -0.00292619             0.00460285
     57.4419000             -0.0374080              0.0331990
     18.2859000             -0.1144870              0.1362820
      6.5991400              0.1156350              0.3304760
      2.4904900              0.6125950              0.4491460
      0.9445400              0.3937990              0.2657040
SP   3   1.00
      1.2779000             -0.2276060             -0.0175130
      0.3975900              0.00144583             0.2445330
      0.1600950              1.0927900              0.8049340
SP   1   1.00
      0.0556577              1.0000000              1.0000000
D    1   1.00
      0.6500000              1.0000000
D    1   1.00
      0.1625000              1.0000000
F    1   1.00
      0.2500000              1.0000000
****
Si     0
S    6   1.00
  16115.9000000              0.00195948
   2425.5800000              0.01492880
    553.8670000              0.07284780
    156.3400000              0.24613000
     50.0683000              0.48591400
     17.0178000              0.32500200
SP   6   1.00
    292.7180000             -0.00278094             0.00443826
     69.8731000             -0.03571460             0.03266790
     22.3363000             -0.11498500             0.13472100
      8.1503900              0.09356340             0.32867800
      3.1345800              0.60301700             0.44964000
      1.2254300              0.41895900             0.26137200
SP   3   1.00
      1.7273800             -0.24463000            -0.01779510
      0.5729220              0.00431572             0.25353900
      0.2221920              1.09818000             0.80066900
SP   1   1.00
      0.0778369              1.00000000             1.00000000
D    1   1.00
      0.9000000              1.0000000
D    1   1.00
      0.2250000              1.0000000
F    1   1.00
      0.3200000              1.0000000
****
P     0
S    6   1.00
  19413.3000000              0.0018516
   2909.4200000              0.0142062
    661.3640000              0.0699995
    185.7590000              0.2400790
     59.1943000              0.4847620
     20.0310000              0.3352000
SP   6   1.00
    339.4780000             -0.00278217             0.00456462
     81.0101000             -0.0360499              0.03369360
     25.8780000             -0.1166310              0.13975500
      9.4522100              0.0968328              0.33936200
      3.6656600              0.6144180              0.45092100
      1.4674600              0.4037980              0.23858600
SP   3   1.00
      2.1562300             -0.2529230             -0.01776530
      0.7489970              0.0328517              0.27405800
      0.2831450              1.0812500              0.78542100
SP   1   1.00
      0.0998317              1.0000000              1.00000000
D    1   1.00
      1.1000000              1.0000000
D    1   1.00
      0.2750000              1.0000000
F    1   1.00
      0.4500000              1.0000000
****
S     0
S    6   1.00
  21917.1000000              0.0018690
   3301.4900000              0.0142300
    754.1460000              0.0696960
    212.7110000              0.2384870
     67.9896000              0.4833070
     23.0515000              0.3380740
SP   6   1.00
    423.7350000             -0.0023767              0.0040610
    100.7100000             -0.0316930              0.0306810
     32.1599000             -0.1133170              0.1304520
     11.8079000              0.0560900              0.3272050
      4.6311000              0.5922550              0.4528510
      1.8702500              0.4550060              0.2560420
SP   3   1.00
      2.6158400             -0.2503740             -0.0145110
      0.9221670              0.0669570              0.3102630
      0.3412870              1.0545100              0.7544830
SP   1   1.00
      0.1171670              1.0000000              1.0000000
D    1   1.00
      1.3000000              1.0000000
D    1   1.00
      0.3250000              1.0000000
F    1   1.00
      0.5500000              1.0000000
****
Cl     0
S    6   1.00
  25180.1000000              0.0018330
   3780.3500000              0.0140340
    860.4740000              0.0690970
    242.1450000              0.2374520
     77.3349000              0.4830340
     26.2470000              0.3398560
SP   6   1.00
    491.7650000             -0.0022974              0.0039894
    116.9840000             -0.0307140              0.0303180
     37.4153000             -0.1125280              0.1298800
     13.7834000              0.0450160              0.3279510
      5.4521500              0.5893530              0.4535270
      2.2258800              0.4652060              0.2521540
SP   3   1.00
      3.1864900             -0.2518300             -0.0142990
      1.1442700              0.0615890              0.3235720
      0.4203770              1.0601800              0.7435070
SP   1   1.00
      0.1426570              1.0000000              1.0000000
D    1   1.00
      1.5000000              1.0000000
D    1   1.00
      0.3750000              1.0000000
F    1   1.00
      0.7000000              1.0000000
****
}

set {
reference uhf
freeze_core true
e_convergence 10
d_convergence 10
dft_spherical_points 1202
dft_radial_points 99
}

e = energy('b3lyp')

print_out('Grab this energy {0}'.format(e))
--------------------------------------------------------------------------

    Molecular point group: cs

    Geometry (in Bohr), charge = 0, multiplicity = 2:

       Center              X                  Y                   Z               Mass
    ------------   -----------------  -----------------  -----------------  -----------------
         C           -0.323340176581    -0.000120667619     0.000000000000    12.000000000000
         C            0.061343871119    -1.401329074419    -2.426087074800    12.000000000000
         C            0.060613333519     2.801816902781     0.000000000000    12.000000000000
         C            0.061343871119    -1.401329074419     2.426087074800    12.000000000000
         H            2.084390608419    -1.646013829619    -2.846159973100     1.007825032230
         H           -0.766841676181    -0.387164929019    -4.026636868400     1.007825032230
         H           -0.761611971281    -3.287025323319    -2.349605675500     1.007825032230
         H            2.091892175519     3.288402121681     0.000000000000     1.007825032230
         H           -0.768172257581     3.681729691781     1.679626027100     1.007825032230
         H           -0.768172257581     3.681729691781    -1.679626027100     1.007825032230
         H            2.084390608419    -1.646013829619     2.846159973100     1.007825032230
         H           -0.761611971281    -3.287025323319     2.349605675500     1.007825032230
         H           -0.766841676181    -0.387164929019     4.026636868400     1.007825032230

  Charge       = 0
  Multiplicity = 2
  Basis Set: ANONYMOUS4F3FE192
    Blend: 6-31G_2DFP_
  Basis Set: (ANONYMOUS4F3FE192 AUX)
    Blend: DEF2-UNIVERSAL-JKFIT

    Orbital Energies [Eh]
    ---------------------

    Alpha Occupied:

       1Ap   -10.180342     2Ap   -10.167678     1App  -10.166698
       3Ap   -10.166667     4Ap    -0.797767     2App   -0.686451
       5Ap    -0.685927     6Ap    -0.530777     7Ap    -0.441128
       3App   -0.434775     8Ap    -0.434566     4App   -0.382846
       9Ap    -0.382353     5App   -0.363606    10Ap    -0.338193
       6App   -0.337806    11Ap    -0.168961

    Alpha Virtual:

      12Ap     0.076069     7App    0.134027    13Ap     0.134256
      14Ap     0.142534     8App    0.142741    15Ap     0.154881
      16Ap     0.178366     9App    0.179190    17Ap     0.203547
      10App    0.214807    18Ap     0.275922    11App    0.276050
      12App    0.399063    19Ap     0.399393    20Ap     0.403343
      13App    0.423839    21Ap     0.424355    22Ap     0.456592
      23Ap     0.495369    14App    0.495409    15App    0.512163
      24Ap     0.513979    25Ap     0.578628    16App    0.579001
      26Ap     0.591169    17App    0.592076    27Ap     0.602595
      28Ap     0.624724    18App    0.631655    19App    0.636265
      29Ap     0.636384    30Ap     0.663028    20App    0.663808
      31Ap     0.683755    21App    0.683982    32Ap     0.734994
      22App    0.825246    33Ap     0.825554    23App    0.853921
      24App    0.914800    34Ap     0.915254    25App    0.944132
      35Ap     0.944615    26App    0.960953    36Ap     0.961627
      37Ap     1.003459    38Ap     1.128052    27App    1.128168
      39Ap     1.142231    28App    1.163126    40Ap     1.163408
      41Ap     1.223330    42Ap     1.274049    29App    1.274912
      43Ap     1.279357    30App    1.324196    44Ap     1.324494
      45Ap     1.355975    46Ap     1.365508    31App    1.366609
      32App    1.392450    47Ap     1.403608    33App    1.404474
      34App    1.416717    48Ap     1.417486    35App    1.427906
      36App    1.491495    49Ap     1.499077    37App    1.542757
      50Ap     1.542914    38App    1.574391    51Ap     1.574527
      52Ap     1.669824    53Ap     1.738769    39App    1.740037
      54Ap     1.768281    55Ap     1.830648    40App    1.832218
      41App    1.971711    56Ap     2.017991    57Ap     2.018815
      42App    2.019563    58Ap     2.052250    43App    2.053128
      44App    2.738217    59Ap     2.738748    60Ap     2.790926
      45App    2.811428    61Ap     2.889481    46App    2.890377
      62Ap     2.894979    47App    2.929411    63Ap     2.929570
      48App    2.958999    64Ap     2.963796    49App    2.964993
      65Ap     3.034017    50App    3.070946    66Ap     3.071639
      51App    3.084386    67Ap     3.168479    52App    3.169075
      68Ap     3.180612    53App    3.285086    69Ap     3.285534
      70Ap     3.326823    54App    3.327504    71Ap     3.375631
      55App    3.489046    72Ap     3.491278    56App    3.514011
      73Ap     3.525345    57App    3.567933    74Ap     3.568798
      58App    3.575197    75Ap     3.665059    59App    3.667638
      76Ap     3.679612    77Ap     3.694025    60App    3.694338
      78Ap     3.776085    61App    3.777517    79Ap     3.789129
      62App    3.912087    80Ap     3.912331    81Ap     4.034426
      82Ap     4.110126    63App    4.112583    64App    4.145663
      83Ap     4.150136    84Ap     4.173472    85Ap     4.201007
      65App    4.202932    86Ap     4.204993    66App    4.211057
      87Ap     4.315952    67App    4.315987    68App    4.358916
      88Ap     4.424158    69App    4.424617    70App    4.443620
      89Ap     4.515523    71App    4.518140    72App    4.577872
      90Ap     4.578693    91Ap     4.617577    92Ap     4.709454
      93Ap     4.773537    73App    4.775695    74App    4.836883
      94Ap     4.962860    95Ap     5.002048    75App    5.003911
      96Ap     5.227267    76App    5.243005    97Ap     5.251231
      98Ap     5.351403    77App    5.359713    78App    5.479503

    Beta Occupied:

       1Ap   -10.168440     1App  -10.167449     2Ap   -10.167436
       3Ap   -10.166517     4Ap    -0.781093     2App   -0.684251
       5Ap    -0.683731     6Ap    -0.511748     3App   -0.431135
       7Ap    -0.430953     8Ap    -0.421821     4App   -0.376936
       9Ap    -0.376433     5App   -0.362590    10Ap    -0.333305
       6App   -0.332940

    Beta Virtual:

      11Ap    -0.025743    12Ap     0.077078     7App    0.134839
      13Ap     0.135232    14Ap     0.144328     8App    0.144682
      15Ap     0.163337    16Ap     0.182047     9App    0.182852
      10App    0.215037    17Ap     0.218929    18Ap     0.282273
      11App    0.282395    12App    0.400232    19Ap     0.400563
      20Ap     0.419790    13App    0.426647    21Ap     0.427169
      22Ap     0.468500    23Ap     0.497635    14App    0.497664
      15App    0.513898    24Ap     0.556324    25Ap     0.584173
      16App    0.584556    26Ap     0.597351    17App    0.598256
      27Ap     0.610017    28Ap     0.628096    18App    0.631866
      19App    0.639498    29Ap     0.639671    30Ap     0.666594
      20App    0.667372    31Ap     0.686402    21App    0.686603
      32Ap     0.757518    22App    0.830376    33Ap     0.830760
      23App    0.855274    24App    0.922792    34Ap     0.923204
      25App    0.945969    35Ap     0.953543    26App    0.966270
      36Ap     0.966922    37Ap     1.008699    38Ap     1.132065
      27App    1.132215    39Ap     1.155607    28App    1.168190
      40Ap     1.168490    41Ap     1.232302    42Ap     1.279626
      29App    1.280529    43Ap     1.285111    30App    1.329136
      44Ap     1.329531    45Ap     1.365379    46Ap     1.370840
      31App    1.371777    32App    1.393507    47Ap     1.407037
      33App    1.407974    34App    1.421863    48Ap     1.422443
      35App    1.428176    36App    1.492546    49Ap     1.509519
      37App    1.547094    50Ap     1.547395    38App    1.582266
      51Ap     1.582389    52Ap     1.674671    53Ap     1.744500
      39App    1.745828    54Ap     1.779062    55Ap     1.834539
      40App    1.836040    41App    1.972578    56Ap     2.024923
      42App    2.025998    57Ap     2.039577    58Ap     2.059056
      43App    2.059795    44App    2.746550    59Ap     2.747088
      45App    2.811840    60Ap     2.816061    61Ap     2.902243
      46App    2.903020    62Ap     2.924650    47App    2.931898
      63Ap     2.932046    48App    2.960067    64Ap     2.968299
      49App    2.969578    65Ap     3.041950    50App    3.080886
      66Ap     3.081494    51App    3.086230    67Ap     3.184236
      52App    3.184758    68Ap     3.188355    53App    3.289848
      69Ap     3.290370    70Ap     3.330573    54App    3.331362
      71Ap     3.383449    55App    3.491820    72Ap     3.493964
      56App    3.512376    73Ap     3.528389    57App    3.574944
      58App    3.581276    74Ap     3.582246    75Ap     3.669884
      59App    3.672306    76Ap     3.693000    77Ap     3.725379
      60App    3.726157    78Ap     3.780617    61App    3.782044
      79Ap     3.817670    62App    3.921824    80Ap     3.922226
      81Ap     4.045306    82Ap     4.116965    63App    4.119368
      64App    4.152877    83Ap     4.157404    84Ap     4.187494
      85Ap     4.207840    65App    4.208948    86Ap     4.211982
      66App    4.215527    67App    4.323347    87Ap     4.323476
      68App    4.362283    88Ap     4.432337    69App    4.432772
      70App    4.446594    89Ap     4.523367    71App    4.525874
      72App    4.588551    90Ap     4.589217    91Ap     4.624768
      92Ap     4.719797    93Ap     4.780486    73App    4.782653
      74App    4.839799    94Ap     4.967656    95Ap     5.006106
      75App    5.007931    96Ap     5.232876    76App    5.244803
      97Ap     5.253109    98Ap     5.357907    77App    5.366166
      78App    5.481827

    Final Occupation by Irrep:
             Ap   App
    DOCC [    10,    6 ]
    SOCC [     1,    0 ]

  @DF-UKS Final Energy:  -157.81304442506521

   => Energetics <=

    Nuclear Repulsion Energy =            125.3946967056087658
    One-Electron Energy =                -458.7489855690314471
    Two-Electron Energy =                 195.8483959315647382
    DFT Exchange-Correlation Energy =     -20.3071514932073036
    Empirical Dispersion Energy =           0.0000000000000000
    VV10 Nonlocal Energy =                  0.0000000000000000
    Total Energy =                       -157.8130444250652147

  UHF NO Occupations:
  HONO-2 :    9 Ap 1.9996009
  HONO-1 :   10 Ap 1.9989805
  HONO-0 :   11 Ap 1.0000000
  LUNO+0 :   12 Ap 0.0010195
  LUNO+1 :   13 Ap 0.0003991
  LUNO+2 :   14 Ap 0.0001976
  LUNO+3 :    7App 0.0001975

Computation Completed

Properties will be evaluated at   0.000000,   0.000000,   0.000000 [a0]

Properties computed using the SCF density matrix

  Nuclear Dipole Moment: [e a0]
     X:     0.8272      Y:     0.0057      Z:     0.0000

  Electronic Dipole Moment: [e a0]
     X:    -0.7493      Y:    -0.0099      Z:     0.0000

  Dipole Moment: [e a0]
     X:     0.0779      Y:    -0.0042      Z:     0.0000     Total:     0.0780

  Dipole Moment: [D]
     X:     0.1980      Y:    -0.0106      Z:     0.0000     Total:     0.1983

*** tstop() called on n091 at Fri Nov  5 14:24:53 2021
Module time:
	user time   =     496.70 seconds =       8.28 minutes
	system time =       4.63 seconds =       0.08 minutes
	total time  =        126 seconds =       2.10 minutes
Total time:
	user time   =     496.70 seconds =       8.28 minutes
	system time =       4.63 seconds =       0.08 minutes
	total time  =        126 seconds =       2.10 minutes
Grab this energy -157.81304442506521
    Psi4 stopped on: Friday, 05 November 2021 02:24PM
    Psi4 wall time for execution: 0:02:06.07

*** Psi4 exiting successfully. Buy a developer a beer!
