                               Psi4 1.4a2.dev629

  ==> Input File <==

--------------------------------------------------------------------------
import os
memory 14 GB

molecule {
 C   -0.3233311522   -0.0004286056   -0.0049986865
 C    0.0607739798   -1.4080079195   -2.4301050972
 C    0.0607101537    2.8018512544    0.0062298634
 C    0.0618219870   -1.3957614282    2.4213519715
 H    2.0858050941   -1.6555035706   -2.8500044777
 H   -0.7675424423   -0.3956491380   -4.0343065348
 H   -0.7649143284   -3.2959318685   -2.3492638437
 H    2.0877060235    3.2880693490    0.0111412714
 H   -0.7687532578    3.6727922067    1.6850092309
 H   -0.7632456076    3.6879636283   -1.6661206192
 H    2.0871588329   -1.6379300491    2.8418463776
 H   -0.7603281152   -3.2843866919    2.3488322516
 H   -0.7684690442   -0.3771014807    4.0203882928
units bohr
0 2
}

basis {

assign 6-31g_2dfp_

[ 6-31g_2dfp_ ]

spherical

!----------------------------------------------------------------------
! Basis Set Exchange
! Version v0.8.13
! https://www.basissetexchange.org
!----------------------------------------------------------------------
!   Basis set: 6-31G(2df,p)
! Description: 6-31G(2df,p)
!        Role: orbital
!     Version: 0  (Data from the original Basis Set Exchange)
!----------------------------------------------------------------------

****
H     0
S    3   1.00
     18.7311370              0.03349460
      2.8253937              0.23472695
      0.6401217              0.81375733
S    1   1.00
      0.1612778              1.00000000
P    1   1.00
      1.5000000              1.0000000
P    1   1.00
      0.3750000              1.0000000
****
B     0
S    6   1.00
   2068.8823000              0.0018663
    310.6495700              0.0142515
     70.6830330              0.0695516
     19.8610800              0.2325729
      6.2993048              0.4670787
      2.1270270              0.3634314
SP   3   1.00
      4.7279710             -0.1303938              0.0745976
      1.1903377             -0.1307889              0.3078467
      0.3594117              1.1309444              0.7434568
SP   1   1.00
      0.1267512              1.0000000              1.0000000
D    1   1.00
      0.8020000              1.0000000
D    1   1.00
      0.2005000              1.0000000
F    1   1.00
      0.5000000              1.0000000
****
C     0
S    6   1.00
   3047.5249000              0.0018347
    457.3695100              0.0140373
    103.9486900              0.0688426
     29.2101550              0.2321844
      9.2866630              0.4679413
      3.1639270              0.3623120
SP   3   1.00
      7.8682724             -0.1193324              0.0689991
      1.8812885             -0.1608542              0.3164240
      0.5442493              1.1434564              0.7443083
SP   1   1.00
      0.1687144              1.0000000              1.0000000
D    1   1.00
      1.2520000              1.0000000
D    1   1.00
      0.3130000              1.0000000
F    1   1.00
      0.8000000              1.0000000
****
N     0
S    6   1.00
   4173.5110000              0.0018348
    627.4579000              0.0139950
    142.9021000              0.0685870
     40.2343300              0.2322410
     12.8202100              0.4690700
      4.3904370              0.3604550
SP   3   1.00
     11.6263580             -0.1149610              0.0675800
      2.7162800             -0.1691180              0.3239070
      0.7722180              1.1458520              0.7408950
SP   1   1.00
      0.2120313              1.0000000              1.0000000
D    1   1.00
      1.8260000              1.0000000
D    1   1.00
      0.4565000              1.0000000
F    1   1.00
      1.0000000              1.0000000
****
O     0
S    6   1.00
   5484.6717000              0.0018311
    825.2349500              0.0139501
    188.0469600              0.0684451
     52.9645000              0.2327143
     16.8975700              0.4701930
      5.7996353              0.3585209
SP   3   1.00
     15.5396160             -0.1107775              0.0708743
      3.5999336             -0.1480263              0.3397528
      1.0137618              1.1307670              0.7271586
SP   1   1.00
      0.2700058              1.0000000              1.0000000
D    1   1.00
      2.5840000              1.0000000
D    1   1.00
      0.6460000              1.0000000
F    1   1.00
      1.4000000              1.0000000
****
F     0
S    6   1.00
   7001.7130900              0.0018196169
   1051.3660900              0.0139160796
    239.2856900              0.0684053245
     67.3974453              0.233185760
     21.5199573              0.471267439
      7.40310130             0.356618546
SP   3   1.00
     20.8479528             -0.108506975            0.0716287243
      4.80830834            -0.146451658            0.3459121030
      1.34406986             1.128688580            0.7224699570
SP   1   1.00
      0.358151393            1.0000000              1.0000000
D    1   1.00
      3.5000000              1.0000000
D    1   1.00
      0.8750000              1.0000000
F    1   1.00
      1.8500000              1.0000000
****
Al     0
S    6   1.00
  13983.1000000              0.00194267
   2098.7500000              0.0148599
    477.7050000              0.0728494
    134.3600000              0.2468300
     42.8709000              0.4872580
     14.5189000              0.3234960
SP   6   1.00
    239.6680000             -0.00292619             0.00460285
     57.4419000             -0.0374080              0.0331990
     18.2859000             -0.1144870              0.1362820
      6.5991400              0.1156350              0.3304760
      2.4904900              0.6125950              0.4491460
      0.9445400              0.3937990              0.2657040
SP   3   1.00
      1.2779000             -0.2276060             -0.0175130
      0.3975900              0.00144583             0.2445330
      0.1600950              1.0927900              0.8049340
SP   1   1.00
      0.0556577              1.0000000              1.0000000
D    1   1.00
      0.6500000              1.0000000
D    1   1.00
      0.1625000              1.0000000
F    1   1.00
      0.2500000              1.0000000
****
Si     0
S    6   1.00
  16115.9000000              0.00195948
   2425.5800000              0.01492880
    553.8670000              0.07284780
    156.3400000              0.24613000
     50.0683000              0.48591400
     17.0178000              0.32500200
SP   6   1.00
    292.7180000             -0.00278094             0.00443826
     69.8731000             -0.03571460             0.03266790
     22.3363000             -0.11498500             0.13472100
      8.1503900              0.09356340             0.32867800
      3.1345800              0.60301700             0.44964000
      1.2254300              0.41895900             0.26137200
SP   3   1.00
      1.7273800             -0.24463000            -0.01779510
      0.5729220              0.00431572             0.25353900
      0.2221920              1.09818000             0.80066900
SP   1   1.00
      0.0778369              1.00000000             1.00000000
D    1   1.00
      0.9000000              1.0000000
D    1   1.00
      0.2250000              1.0000000
F    1   1.00
      0.3200000              1.0000000
****
P     0
S    6   1.00
  19413.3000000              0.0018516
   2909.4200000              0.0142062
    661.3640000              0.0699995
    185.7590000              0.2400790
     59.1943000              0.4847620
     20.0310000              0.3352000
SP   6   1.00
    339.4780000             -0.00278217             0.00456462
     81.0101000             -0.0360499              0.03369360
     25.8780000             -0.1166310              0.13975500
      9.4522100              0.0968328              0.33936200
      3.6656600              0.6144180              0.45092100
      1.4674600              0.4037980              0.23858600
SP   3   1.00
      2.1562300             -0.2529230             -0.01776530
      0.7489970              0.0328517              0.27405800
      0.2831450              1.0812500              0.78542100
SP   1   1.00
      0.0998317              1.0000000              1.00000000
D    1   1.00
      1.1000000              1.0000000
D    1   1.00
      0.2750000              1.0000000
F    1   1.00
      0.4500000              1.0000000
****
S     0
S    6   1.00
  21917.1000000              0.0018690
   3301.4900000              0.0142300
    754.1460000              0.0696960
    212.7110000              0.2384870
     67.9896000              0.4833070
     23.0515000              0.3380740
SP   6   1.00
    423.7350000             -0.0023767              0.0040610
    100.7100000             -0.0316930              0.0306810
     32.1599000             -0.1133170              0.1304520
     11.8079000              0.0560900              0.3272050
      4.6311000              0.5922550              0.4528510
      1.8702500              0.4550060              0.2560420
SP   3   1.00
      2.6158400             -0.2503740             -0.0145110
      0.9221670              0.0669570              0.3102630
      0.3412870              1.0545100              0.7544830
SP   1   1.00
      0.1171670              1.0000000              1.0000000
D    1   1.00
      1.3000000              1.0000000
D    1   1.00
      0.3250000              1.0000000
F    1   1.00
      0.5500000              1.0000000
****
Cl     0
S    6   1.00
  25180.1000000              0.0018330
   3780.3500000              0.0140340
    860.4740000              0.0690970
    242.1450000              0.2374520
     77.3349000              0.4830340
     26.2470000              0.3398560
SP   6   1.00
    491.7650000             -0.0022974              0.0039894
    116.9840000             -0.0307140              0.0303180
     37.4153000             -0.1125280              0.1298800
     13.7834000              0.0450160              0.3279510
      5.4521500              0.5893530              0.4535270
      2.2258800              0.4652060              0.2521540
SP   3   1.00
      3.1864900             -0.2518300             -0.0142990
      1.1442700              0.0615890              0.3235720
      0.4203770              1.0601800              0.7435070
SP   1   1.00
      0.1426570              1.0000000              1.0000000
D    1   1.00
      1.5000000              1.0000000
D    1   1.00
      0.3750000              1.0000000
F    1   1.00
      0.7000000              1.0000000
****
}

set {
reference uhf
freeze_core true
e_convergence 10
d_convergence 10
dft_spherical_points 1202
dft_radial_points 99
}

e = energy('b3lyp')

print_out('Grab this energy {0}'.format(e))
--------------------------------------------------------------------------

    Molecular point group: c1

    Geometry (in Bohr), charge = 0, multiplicity = 2:

       Center              X                  Y                   Z               Mass
    ------------   -----------------  -----------------  -----------------  -----------------
         C           -0.323334032283     0.000023814874    -0.003549904985    12.000000000000
         C            0.060771099717    -1.407555499026    -2.428656315685    12.000000000000
         C            0.060707273617     2.802303674874     0.007678644915    12.000000000000
         C            0.061819106917    -1.395309007726     2.422800753015    12.000000000000
         H            2.085802214017    -1.655051150126    -2.848555696185     1.007825032230
         H           -0.767545322383    -0.395196717526    -4.032857753285     1.007825032230
         H           -0.764917208483    -3.295479448026    -2.347815062185     1.007825032230
         H            2.087703143417     3.288521769474     0.012590052915     1.007825032230
         H           -0.768756137883     3.673244627174     1.686458012415     1.007825032230
         H           -0.763248487683     3.688416048774    -1.664671837685     1.007825032230
         H            2.087155952817    -1.637477628626     2.843295159115     1.007825032230
         H           -0.760330995283    -3.283934271426     2.350281033115     1.007825032230
         H           -0.768471924283    -0.376649060226     4.021837074315     1.007825032230

  Charge       = 0
  Multiplicity = 2
  Basis Set: ANONYMOUSBA67BEC4
    Blend: 6-31G_2DFP_
  Basis Set: (ANONYMOUSBA67BEC4 AUX)
    Blend: DEF2-UNIVERSAL-JKFIT

    Orbital Energies [Eh]
    ---------------------

    Alpha Occupied:

       1A    -10.180342     2A    -10.167290     3A    -10.167008
       4A    -10.166747     5A     -0.797770     6A     -0.686415
       7A     -0.685959     8A     -0.530779     9A     -0.441128
      10A     -0.434997    11A     -0.434343    12A     -0.382745
      13A     -0.382452    14A     -0.363612    15A     -0.338311
      16A     -0.337682    17A     -0.168961

    Alpha Virtual:

      18A      0.076070    19A      0.133889    20A      0.134417
      21A      0.142380    22A      0.142874    23A      0.154883
      24A      0.178536    25A      0.179021    26A      0.203544
      27A      0.214808    28A      0.275786    29A      0.276187
      30A      0.398894    31A      0.399498    32A      0.403412
      33A      0.423892    34A      0.424312    35A      0.456595
      36A      0.494979    37A      0.495792    38A      0.512173
      39A      0.513987    40A      0.578548    41A      0.579060
      42A      0.591495    43A      0.591777    44A      0.602574
      45A      0.624721    46A      0.631762    47A      0.635927
      48A      0.636626    49A      0.663114    50A      0.663714
      51A      0.683550    52A      0.684176    53A      0.734993
      54A      0.824543    55A      0.826258    56A      0.853914
      57A      0.914694    58A      0.915359    59A      0.944050
      60A      0.944512    61A      0.961103    62A      0.961692
      63A      1.003472    64A      1.126931    65A      1.129313
      66A      1.142215    67A      1.162773    68A      1.163760
      69A      1.223330    70A      1.273923    71A      1.275064
      72A      1.279358    73A      1.324119    74A      1.324578
      75A      1.355989    76A      1.365214    77A      1.366838
      78A      1.392426    79A      1.403268    80A      1.404898
      81A      1.416260    82A      1.417983    83A      1.427920
      84A      1.491439    85A      1.499057    86A      1.542488
      87A      1.543198    88A      1.572631    89A      1.576374
      90A      1.669827    91A      1.738104    92A      1.740688
      93A      1.768354    94A      1.830455    95A      1.832333
      96A      1.971751    97A      2.017132    98A      2.018496
      99A      2.020719   100A      2.050115   101A      2.055285
     102A      2.738166   103A      2.738802   104A      2.790921
     105A      2.811439   106A      2.889770   107A      2.890124
     108A      2.894944   109A      2.929321   110A      2.929668
     111A      2.958961   112A      2.963488   113A      2.965328
     114A      3.034012   115A      3.070137   116A      3.072336
     117A      3.084473   118A      3.167937   119A      3.169667
     120A      3.180563   121A      3.284564   122A      3.286042
     123A      3.326154   124A      3.328182   125A      3.375675
     126A      3.489574   127A      3.490680   128A      3.514037
     129A      3.525300   130A      3.567155   131A      3.569469
     132A      3.575367   133A      3.665895   134A      3.666917
     135A      3.679645   136A      3.693591   137A      3.694643
     138A      3.775900   139A      3.777597   140A      3.789298
     141A      3.910695   142A      3.913761   143A      4.034463
     144A      4.109889   145A      4.112805   146A      4.146408
     147A      4.149719   148A      4.173323   149A      4.201089
     150A      4.202679   151A      4.204963   152A      4.211040
     153A      4.315306   154A      4.316603   155A      4.358999
     156A      4.423790   157A      4.425008   158A      4.443558
     159A      4.515553   160A      4.518156   161A      4.577191
     162A      4.579338   163A      4.617551   164A      4.709417
     165A      4.772995   166A      4.776237   167A      4.836948
     168A      4.962862   169A      5.001912   170A      5.004026
     171A      5.227570   172A      5.246688   173A      5.247363
     174A      5.354087   175A      5.356947   176A      5.479395

    Beta Occupied:

       1A    -10.168046     2A    -10.167768     3A    -10.167511
       4A    -10.166518     5A     -0.781095     6A     -0.684222
       7A     -0.683757     8A     -0.511750     9A     -0.431374
      10A     -0.430711    11A     -0.421822    12A     -0.376840
      13A     -0.376528    14A     -0.362595    15A     -0.333436
      16A     -0.332804

    Beta Virtual:

      17A     -0.025743    18A      0.077079    19A      0.134759
      20A      0.135329    21A      0.144231    22A      0.144765
      23A      0.163341    24A      0.182198    25A      0.182701
      26A      0.215038    27A      0.218927    28A      0.282124
      29A      0.282545    30A      0.400116    31A      0.400671
      32A      0.419799    33A      0.426693    34A      0.427134
      35A      0.468506    36A      0.497237    37A      0.498058
      38A      0.513908    39A      0.556328    40A      0.584127
      41A      0.584583    42A      0.597646    43A      0.597981
      44A      0.609994    45A      0.628105    46A      0.631922
      47A      0.639217    48A      0.639903    49A      0.666667
      50A      0.667287    51A      0.686155    52A      0.686842
      53A      0.757516    54A      0.829704    55A      0.831432
      56A      0.855268    57A      0.922665    58A      0.923329
      59A      0.945910    60A      0.953424    61A      0.966354
      62A      0.967051    63A      1.008710    64A      1.130967
      65A      1.133337    66A      1.155586    67A      1.167814
      68A      1.168869    69A      1.232300    70A      1.279508
      71A      1.280672    72A      1.285112    73A      1.329103
      74A      1.329572    75A      1.365404    76A      1.370379
      77A      1.372152    78A      1.393490    79A      1.406767
      80A      1.408338    81A      1.421346    82A      1.422988
      83A      1.428194    84A      1.492492    85A      1.509500
      86A      1.546793    87A      1.547707    88A      1.580643
      89A      1.584104    90A      1.674674    91A      1.743867
      92A      1.746453    93A      1.779129    94A      1.834296
      95A      1.836202    96A      1.972614    97A      2.023844
      98A      2.027005    99A      2.039646   100A      2.056942
     101A      2.061913   102A      2.746458   103A      2.747182
     104A      2.811852   105A      2.816056   106A      2.902435
     107A      2.902837   108A      2.924648   109A      2.931896
     110A      2.932060   111A      2.960038   112A      2.968063
     113A      2.969827   114A      3.041947   115A      3.079943
     116A      3.082037   117A      3.086614   118A      3.183802
     119A      3.185268   120A      3.188264   121A      3.289428
     122A      3.290782   123A      3.329938   124A      3.332007
     125A      3.383491   126A      3.492315   127A      3.493392
     128A      3.512413   129A      3.528355   130A      3.574759
     131A      3.580600   132A      3.583168   133A      3.670755
     134A      3.671545   135A      3.692953   136A      3.725320
     137A      3.726162   138A      3.780460   139A      3.782171
     140A      3.817761   141A      3.920484   142A      3.923604
     143A      4.045351   144A      4.116623   145A      4.119704
     146A      4.153627   147A      4.156935   148A      4.187358
     149A      4.207007   150A      4.210572   151A      4.210975
     152A      4.215539   153A      4.322790   154A      4.324003
     155A      4.362362   156A      4.431985   157A      4.433195
     158A      4.446492   159A      4.523390   160A      4.525890
     161A      4.587713   162A      4.590019   163A      4.624744
     164A      4.719761   165A      4.779936   166A      4.783202
     167A      4.839868   168A      4.967655   169A      5.005953
     170A      5.008064   171A      5.233178   172A      5.248495
     173A      5.249237   174A      5.360566   175A      5.363424
     176A      5.481717

    Final Occupation by Irrep:
              A
    DOCC [    16 ]
    SOCC [     1 ]

  @DF-UKS Final Energy:  -157.81305221038974

   => Energetics <=

    Nuclear Repulsion Energy =            125.3948892213597901
    One-Electron Energy =                -458.7493943995775112
    Two-Electron Energy =                 195.8486022867740814
    DFT Exchange-Correlation Energy =     -20.3071493189461059
    Empirical Dispersion Energy =           0.0000000000000000
    VV10 Nonlocal Energy =                  0.0000000000000000
    Total Energy =                       -157.8130522103897420

  UHF NO Occupations:
  HONO-2 :   15  A 1.9996009
  HONO-1 :   16  A 1.9989804
  HONO-0 :   17  A 1.0000000
  LUNO+0 :   18  A 0.0010196
  LUNO+1 :   19  A 0.0003991
  LUNO+2 :   20  A 0.0001979
  LUNO+3 :   21  A 0.0001972

Computation Completed

Properties will be evaluated at   0.000000,   0.000000,   0.000000 [a0]

Properties computed using the SCF density matrix

  Nuclear Dipole Moment: [e a0]
     X:     0.8272      Y:     0.0032      Z:     0.0102

  Electronic Dipole Moment: [e a0]
     X:    -0.7493      Y:    -0.0049      Z:    -0.0109

  Dipole Moment: [e a0]
     X:     0.0779      Y:    -0.0017      Z:    -0.0007     Total:     0.0779

  Dipole Moment: [D]
     X:     0.1980      Y:    -0.0044      Z:    -0.0019     Total:     0.1981

*** tstop() called on n071 at Fri Nov  5 14:30:33 2021
Module time:
	user time   =     571.95 seconds =       9.53 minutes
	system time =      13.91 seconds =       0.23 minutes
	total time  =        147 seconds =       2.45 minutes
Total time:
	user time   =     571.95 seconds =       9.53 minutes
	system time =      13.91 seconds =       0.23 minutes
	total time  =        147 seconds =       2.45 minutes
Grab this energy -157.81305221038974
    Psi4 stopped on: Friday, 05 November 2021 02:30PM
    Psi4 wall time for execution: 0:02:27.53

*** Psi4 exiting successfully. Buy a developer a beer!
