                               Psi4 1.4a2.dev629

  ==> Input File <==

--------------------------------------------------------------------------
import os
memory 14 GB

molecule {
 C   -0.3187245804   -0.0000019394   -0.0000000000
 C    0.0616095690   -1.4008335222   -2.4263044012
 C    0.0614897824    2.8016713446   -0.0000000000
 C    0.0616095690   -1.4008335222    2.4263044012
 H    2.0866560758   -1.6439416005   -2.8471703994
 H   -0.7662688906   -0.3886425088   -4.0255186575
 H   -0.7664320377   -3.2918211704   -2.3493710794
 H    2.0865171646    3.2877906048   -0.0000000000
 H   -0.7665098382    3.6804966401    1.6761539326
 H   -0.7665098382    3.6804966401   -1.6761539326
 H    2.0866560758   -1.6439416005    2.8471703994
 H   -0.7664320377   -3.2918211704    2.3493710794
 H   -0.7662688906   -0.3886425088    4.0255186575
units bohr
0 2
}

basis {

assign 6-31g_2dfp_

[ 6-31g_2dfp_ ]

spherical

!----------------------------------------------------------------------
! Basis Set Exchange
! Version v0.8.13
! https://www.basissetexchange.org
!----------------------------------------------------------------------
!   Basis set: 6-31G(2df,p)
! Description: 6-31G(2df,p)
!        Role: orbital
!     Version: 0  (Data from the original Basis Set Exchange)
!----------------------------------------------------------------------

****
H     0
S    3   1.00
     18.7311370              0.03349460
      2.8253937              0.23472695
      0.6401217              0.81375733
S    1   1.00
      0.1612778              1.00000000
P    1   1.00
      1.5000000              1.0000000
P    1   1.00
      0.3750000              1.0000000
****
B     0
S    6   1.00
   2068.8823000              0.0018663
    310.6495700              0.0142515
     70.6830330              0.0695516
     19.8610800              0.2325729
      6.2993048              0.4670787
      2.1270270              0.3634314
SP   3   1.00
      4.7279710             -0.1303938              0.0745976
      1.1903377             -0.1307889              0.3078467
      0.3594117              1.1309444              0.7434568
SP   1   1.00
      0.1267512              1.0000000              1.0000000
D    1   1.00
      0.8020000              1.0000000
D    1   1.00
      0.2005000              1.0000000
F    1   1.00
      0.5000000              1.0000000
****
C     0
S    6   1.00
   3047.5249000              0.0018347
    457.3695100              0.0140373
    103.9486900              0.0688426
     29.2101550              0.2321844
      9.2866630              0.4679413
      3.1639270              0.3623120
SP   3   1.00
      7.8682724             -0.1193324              0.0689991
      1.8812885             -0.1608542              0.3164240
      0.5442493              1.1434564              0.7443083
SP   1   1.00
      0.1687144              1.0000000              1.0000000
D    1   1.00
      1.2520000              1.0000000
D    1   1.00
      0.3130000              1.0000000
F    1   1.00
      0.8000000              1.0000000
****
N     0
S    6   1.00
   4173.5110000              0.0018348
    627.4579000              0.0139950
    142.9021000              0.0685870
     40.2343300              0.2322410
     12.8202100              0.4690700
      4.3904370              0.3604550
SP   3   1.00
     11.6263580             -0.1149610              0.0675800
      2.7162800             -0.1691180              0.3239070
      0.7722180              1.1458520              0.7408950
SP   1   1.00
      0.2120313              1.0000000              1.0000000
D    1   1.00
      1.8260000              1.0000000
D    1   1.00
      0.4565000              1.0000000
F    1   1.00
      1.0000000              1.0000000
****
O     0
S    6   1.00
   5484.6717000              0.0018311
    825.2349500              0.0139501
    188.0469600              0.0684451
     52.9645000              0.2327143
     16.8975700              0.4701930
      5.7996353              0.3585209
SP   3   1.00
     15.5396160             -0.1107775              0.0708743
      3.5999336             -0.1480263              0.3397528
      1.0137618              1.1307670              0.7271586
SP   1   1.00
      0.2700058              1.0000000              1.0000000
D    1   1.00
      2.5840000              1.0000000
D    1   1.00
      0.6460000              1.0000000
F    1   1.00
      1.4000000              1.0000000
****
F     0
S    6   1.00
   7001.7130900              0.0018196169
   1051.3660900              0.0139160796
    239.2856900              0.0684053245
     67.3974453              0.233185760
     21.5199573              0.471267439
      7.40310130             0.356618546
SP   3   1.00
     20.8479528             -0.108506975            0.0716287243
      4.80830834            -0.146451658            0.3459121030
      1.34406986             1.128688580            0.7224699570
SP   1   1.00
      0.358151393            1.0000000              1.0000000
D    1   1.00
      3.5000000              1.0000000
D    1   1.00
      0.8750000              1.0000000
F    1   1.00
      1.8500000              1.0000000
****
Al     0
S    6   1.00
  13983.1000000              0.00194267
   2098.7500000              0.0148599
    477.7050000              0.0728494
    134.3600000              0.2468300
     42.8709000              0.4872580
     14.5189000              0.3234960
SP   6   1.00
    239.6680000             -0.00292619             0.00460285
     57.4419000             -0.0374080              0.0331990
     18.2859000             -0.1144870              0.1362820
      6.5991400              0.1156350              0.3304760
      2.4904900              0.6125950              0.4491460
      0.9445400              0.3937990              0.2657040
SP   3   1.00
      1.2779000             -0.2276060             -0.0175130
      0.3975900              0.00144583             0.2445330
      0.1600950              1.0927900              0.8049340
SP   1   1.00
      0.0556577              1.0000000              1.0000000
D    1   1.00
      0.6500000              1.0000000
D    1   1.00
      0.1625000              1.0000000
F    1   1.00
      0.2500000              1.0000000
****
Si     0
S    6   1.00
  16115.9000000              0.00195948
   2425.5800000              0.01492880
    553.8670000              0.07284780
    156.3400000              0.24613000
     50.0683000              0.48591400
     17.0178000              0.32500200
SP   6   1.00
    292.7180000             -0.00278094             0.00443826
     69.8731000             -0.03571460             0.03266790
     22.3363000             -0.11498500             0.13472100
      8.1503900              0.09356340             0.32867800
      3.1345800              0.60301700             0.44964000
      1.2254300              0.41895900             0.26137200
SP   3   1.00
      1.7273800             -0.24463000            -0.01779510
      0.5729220              0.00431572             0.25353900
      0.2221920              1.09818000             0.80066900
SP   1   1.00
      0.0778369              1.00000000             1.00000000
D    1   1.00
      0.9000000              1.0000000
D    1   1.00
      0.2250000              1.0000000
F    1   1.00
      0.3200000              1.0000000
****
P     0
S    6   1.00
  19413.3000000              0.0018516
   2909.4200000              0.0142062
    661.3640000              0.0699995
    185.7590000              0.2400790
     59.1943000              0.4847620
     20.0310000              0.3352000
SP   6   1.00
    339.4780000             -0.00278217             0.00456462
     81.0101000             -0.0360499              0.03369360
     25.8780000             -0.1166310              0.13975500
      9.4522100              0.0968328              0.33936200
      3.6656600              0.6144180              0.45092100
      1.4674600              0.4037980              0.23858600
SP   3   1.00
      2.1562300             -0.2529230             -0.01776530
      0.7489970              0.0328517              0.27405800
      0.2831450              1.0812500              0.78542100
SP   1   1.00
      0.0998317              1.0000000              1.00000000
D    1   1.00
      1.1000000              1.0000000
D    1   1.00
      0.2750000              1.0000000
F    1   1.00
      0.4500000              1.0000000
****
S     0
S    6   1.00
  21917.1000000              0.0018690
   3301.4900000              0.0142300
    754.1460000              0.0696960
    212.7110000              0.2384870
     67.9896000              0.4833070
     23.0515000              0.3380740
SP   6   1.00
    423.7350000             -0.0023767              0.0040610
    100.7100000             -0.0316930              0.0306810
     32.1599000             -0.1133170              0.1304520
     11.8079000              0.0560900              0.3272050
      4.6311000              0.5922550              0.4528510
      1.8702500              0.4550060              0.2560420
SP   3   1.00
      2.6158400             -0.2503740             -0.0145110
      0.9221670              0.0669570              0.3102630
      0.3412870              1.0545100              0.7544830
SP   1   1.00
      0.1171670              1.0000000              1.0000000
D    1   1.00
      1.3000000              1.0000000
D    1   1.00
      0.3250000              1.0000000
F    1   1.00
      0.5500000              1.0000000
****
Cl     0
S    6   1.00
  25180.1000000              0.0018330
   3780.3500000              0.0140340
    860.4740000              0.0690970
    242.1450000              0.2374520
     77.3349000              0.4830340
     26.2470000              0.3398560
SP   6   1.00
    491.7650000             -0.0022974              0.0039894
    116.9840000             -0.0307140              0.0303180
     37.4153000             -0.1125280              0.1298800
     13.7834000              0.0450160              0.3279510
      5.4521500              0.5893530              0.4535270
      2.2258800              0.4652060              0.2521540
SP   3   1.00
      3.1864900             -0.2518300             -0.0142990
      1.1442700              0.0615890              0.3235720
      0.4203770              1.0601800              0.7435070
SP   1   1.00
      0.1426570              1.0000000              1.0000000
D    1   1.00
      1.5000000              1.0000000
D    1   1.00
      0.3750000              1.0000000
F    1   1.00
      0.7000000              1.0000000
****
}

set {
reference uhf
freeze_core true
e_convergence 10
d_convergence 10
dft_spherical_points 1202
dft_radial_points 99
}

e = energy('b3lyp')

print_out('Grab this energy {0}'.format(e))
--------------------------------------------------------------------------

    Molecular point group: cs

    Geometry (in Bohr), charge = 0, multiplicity = 2:

       Center              X                  Y                   Z               Mass
    ------------   -----------------  -----------------  -----------------  -----------------
         C           -0.319884908754    -0.000001964745     0.000000000000    12.000000000000
         C            0.060449240646    -1.400833547545    -2.426304401200    12.000000000000
         C            0.060329454046     2.801671319255     0.000000000000    12.000000000000
         C            0.060449240646    -1.400833547545     2.426304401200    12.000000000000
         H            2.085495747446    -1.643941625845    -2.847170399400     1.007825032230
         H           -0.767429218954    -0.388642534145    -4.025518657500     1.007825032230
         H           -0.767592366054    -3.291821195745    -2.349371079400     1.007825032230
         H            2.085356836246     3.287790579455     0.000000000000     1.007825032230
         H           -0.767670166554     3.680496614755     1.676153932600     1.007825032230
         H           -0.767670166554     3.680496614755    -1.676153932600     1.007825032230
         H            2.085495747446    -1.643941625845     2.847170399400     1.007825032230
         H           -0.767592366054    -3.291821195745     2.349371079400     1.007825032230
         H           -0.767429218954    -0.388642534145     4.025518657500     1.007825032230

  Charge       = 0
  Multiplicity = 2
  Basis Set: ANONYMOUS67710826
    Blend: 6-31G_2DFP_
  Basis Set: (ANONYMOUS67710826 AUX)
    Blend: DEF2-UNIVERSAL-JKFIT

    Orbital Energies [Eh]
    ---------------------

    Alpha Occupied:

       1Ap   -10.180164     2Ap   -10.167015     1App  -10.167015
       3Ap   -10.166969     4Ap    -0.797835     5Ap    -0.686217
       2App   -0.686216     6Ap    -0.530748     7Ap    -0.441301
       3App   -0.434589     8Ap    -0.434588     9Ap    -0.382741
       4App   -0.382739     5App   -0.363455     6App   -0.338041
      10Ap    -0.338041    11Ap    -0.168663

    Alpha Virtual:

      12Ap     0.076053    13Ap     0.134152     7App    0.134153
      14Ap     0.142570     8App    0.142570    15Ap     0.154864
      16Ap     0.178814     9App    0.178814    17Ap     0.203567
      10App    0.214718    11App    0.276296    18Ap     0.276298
      19Ap     0.399265    12App    0.399269    20Ap     0.403464
      13App    0.424132    21Ap     0.424132    22Ap     0.456503
      23Ap     0.495363    14App    0.495364    15App    0.512219
      24Ap     0.514074    25Ap     0.578595    16App    0.578604
      17App    0.591911    26Ap     0.591912    27Ap     0.602662
      28Ap     0.624702    18App    0.631695    19App    0.636272
      29Ap     0.636275    30Ap     0.663423    20App    0.663424
      31Ap     0.683937    21App    0.683938    32Ap     0.735318
      22App    0.825634    33Ap     0.825637    23App    0.853867
      24App    0.915254    34Ap     0.915259    25App    0.944182
      35Ap     0.944581    26App    0.961176    36Ap     0.961193
      37Ap     1.002576    38Ap     1.127768    27App    1.127781
      39Ap     1.142579    40Ap     1.162989    28App    1.163002
      41Ap     1.223905    42Ap     1.274841    29App    1.274844
      43Ap     1.279262    30App    1.324489    44Ap     1.324492
      45Ap     1.356789    31App    1.366083    46Ap     1.366088
      32App    1.392374    47Ap     1.404632    33App    1.404634
      34App    1.417472    48Ap     1.417479    35App    1.428041
      36App    1.491212    49Ap     1.499189    37App    1.542375
      50Ap     1.542377    51Ap     1.574656    38App    1.574657
      52Ap     1.669559    53Ap     1.739866    39App    1.739877
      54Ap     1.768470    40App    1.831456    55Ap     1.831457
      41App    1.971431    56Ap     2.019040    42App    2.019043
      57Ap     2.019573    58Ap     2.052625    43App    2.052625
      44App    2.739011    59Ap     2.739011    60Ap     2.790948
      45App    2.811183    61Ap     2.890376    46App    2.890382
      62Ap     2.894595    63Ap     2.929321    47App    2.929329
      48App    2.958898    64Ap     2.964508    49App    2.964522
      65Ap     3.033694    50App    3.072741    66Ap     3.072754
      51App    3.084361    67Ap     3.168677    52App    3.168684
      68Ap     3.180426    53App    3.284158    69Ap     3.284158
      70Ap     3.325882    54App    3.325888    71Ap     3.375742
      55App    3.490572    72Ap     3.490592    56App    3.514653
      73Ap     3.524709    57App    3.569091    74Ap     3.569112
      58App    3.574980    75Ap     3.666957    59App    3.666964
      76Ap     3.678840    60App    3.694335    77Ap     3.694350
      78Ap     3.777962    61App    3.777988    79Ap     3.791704
      80Ap     3.912144    62App    3.912150    81Ap     4.035942
      82Ap     4.111235    63App    4.111239    83Ap     4.147923
      64App    4.147931    84Ap     4.173420    65App    4.203110
      85Ap     4.203113    86Ap     4.203397    66App    4.210888
      87Ap     4.315966    67App    4.315985    68App    4.358379
      88Ap     4.425226    69App    4.425229    70App    4.442813
      71App    4.516420    89Ap     4.516421    72App    4.578051
      90Ap     4.578064    91Ap     4.618847    92Ap     4.709578
      93Ap     4.774981    73App    4.774989    74App    4.838326
      94Ap     4.962695    75App    5.003506    95Ap     5.003518
      96Ap     5.228229    76App    5.246899    97Ap     5.246899
      98Ap     5.355325    77App    5.355338    78App    5.480224

    Beta Occupied:

       1Ap   -10.167771     1App  -10.167771     2Ap   -10.167743
       3Ap   -10.166343     4Ap    -0.781140     5Ap    -0.684017
       2App   -0.684017     6Ap    -0.511723     3App   -0.430958
       7Ap    -0.430958     8Ap    -0.421975     9Ap    -0.376828
       4App   -0.376826     5App   -0.362439     6App   -0.333163
      10Ap    -0.333163

    Beta Virtual:

      11Ap    -0.025494    12Ap     0.077065    13Ap     0.135020
       7App    0.135021    14Ap     0.144447     8App    0.144447
      15Ap     0.163302    16Ap     0.182495     9App    0.182496
      10App    0.214951    17Ap     0.218994    11App    0.282620
      18Ap     0.282622    19Ap     0.400431    12App    0.400435
      20Ap     0.419878    13App    0.426943    21Ap     0.426944
      22Ap     0.468462    23Ap     0.497619    14App    0.497619
      15App    0.513954    24Ap     0.556468    25Ap     0.584168
      16App    0.584176    17App    0.598068    26Ap     0.598069
      27Ap     0.610087    28Ap     0.628086    18App    0.631850
      19App    0.639570    29Ap     0.639574    30Ap     0.666957
      20App    0.666958    31Ap     0.686580    21App    0.686582
      32Ap     0.757814    22App    0.830778    33Ap     0.830780
      23App    0.855222    24App    0.923210    34Ap     0.923216
      25App    0.946022    35Ap     0.953551    26App    0.966534
      36Ap     0.966550    37Ap     1.007748    38Ap     1.131896
      27App    1.131907    39Ap     1.155979    40Ap     1.168002
      28App    1.168014    41Ap     1.232888    42Ap     1.280405
      29App    1.280408    43Ap     1.285015    30App    1.329413
      44Ap     1.329415    45Ap     1.366249    31App    1.371327
      46Ap     1.371331    32App    1.393426    47Ap     1.408117
      33App    1.408119    34App    1.422558    48Ap     1.422565
      35App    1.428322    36App    1.492259    49Ap     1.509647
      50Ap     1.546682    37App    1.546683    38App    1.582625
      51Ap     1.582626    52Ap     1.674406    53Ap     1.745621
      39App    1.745632    54Ap     1.779265    40App    1.835326
      55Ap     1.835327    41App    1.972293    56Ap     2.025486
      42App    2.025490    57Ap     2.040916    58Ap     2.059295
      43App    2.059295    44App    2.747344    59Ap     2.747345
      45App    2.811587    60Ap     2.816154    61Ap     2.903005
      46App    2.903011    62Ap     2.924407    63Ap     2.931839
      47App    2.931848    48App    2.959960    64Ap     2.969027
      49App    2.969041    65Ap     3.041631    50App    3.082587
      66Ap     3.082598    51App    3.086176    67Ap     3.184611
      52App    3.184615    68Ap     3.187987    53App    3.289042
      69Ap     3.289042    70Ap     3.329660    54App    3.329665
      71Ap     3.383588    55App    3.493277    72Ap     3.493297
      56App    3.513010    73Ap     3.527783    57App    3.574846
      58App    3.582317    74Ap     3.582339    75Ap     3.671794
      59App    3.671805    76Ap     3.692159    60App    3.725926
      77Ap     3.725942    78Ap     3.782413    61App    3.782439
      79Ap     3.820233    80Ap     3.921995    62App    3.922003
      81Ap     4.046790    82Ap     4.118089    63App    4.118091
      83Ap     4.155101    64App    4.155110    84Ap     4.187493
      65App    4.209052    85Ap     4.209055    86Ap     4.211367
      66App    4.215347    87Ap     4.323398    67App    4.323418
      68App    4.361727    88Ap     4.433424    69App    4.433427
      70App    4.445718    71App    4.524226    89Ap     4.524228
      72App    4.588643    90Ap     4.588655    91Ap     4.626123
      92Ap     4.719806    93Ap     4.781943    73App    4.781950
      74App    4.841234    94Ap     4.967476    75App    5.007546
      95Ap     5.007559    96Ap     5.233974    76App    5.248693
      97Ap     5.248693    98Ap     5.361814    77App    5.361827
      78App    5.482540

    Final Occupation by Irrep:
             Ap   App
    DOCC [    10,    6 ]
    SOCC [     1,    0 ]

  @DF-UKS Final Energy:  -157.81308487904963

   => Energetics <=

    Nuclear Repulsion Energy =            125.4057788402596572
    One-Electron Energy =                -458.7711691891960868
    Two-Electron Energy =                 195.8597710473385689
    DFT Exchange-Correlation Energy =     -20.3074655774517474
    Empirical Dispersion Energy =           0.0000000000000000
    VV10 Nonlocal Energy =                  0.0000000000000000
    Total Energy =                       -157.8130848790496259

  UHF NO Occupations:
  HONO-2 :    9 Ap 1.9996004
  HONO-1 :   10 Ap 1.9989781
  HONO-0 :   11 Ap 1.0000000
  LUNO+0 :   12 Ap 0.0010219
  LUNO+1 :   13 Ap 0.0003996
  LUNO+2 :    7App 0.0001974
  LUNO+3 :   14 Ap 0.0001973

Computation Completed

Properties will be evaluated at   0.000000,   0.000000,   0.000000 [a0]

Properties computed using the SCF density matrix

  Nuclear Dipole Moment: [e a0]
     X:     0.8190      Y:    -0.0000      Z:    -0.0000

  Electronic Dipole Moment: [e a0]
     X:    -0.7418      Y:     0.0000      Z:     0.0000

  Dipole Moment: [e a0]
     X:     0.0773      Y:     0.0000      Z:    -0.0000     Total:     0.0773

  Dipole Moment: [D]
     X:     0.1964      Y:     0.0000      Z:    -0.0000     Total:     0.1964

*** tstop() called on n062 at Fri Nov  5 11:32:06 2021
Module time:
	user time   =     541.42 seconds =       9.02 minutes
	system time =      12.08 seconds =       0.20 minutes
	total time  =        139 seconds =       2.32 minutes
Total time:
	user time   =     541.42 seconds =       9.02 minutes
	system time =      12.08 seconds =       0.20 minutes
	total time  =        139 seconds =       2.32 minutes
Grab this energy -157.81308487904963
    Psi4 stopped on: Friday, 05 November 2021 11:32AM
    Psi4 wall time for execution: 0:02:19.22

*** Psi4 exiting successfully. Buy a developer a beer!
