                               Psi4 1.4a2.dev629

  ==> Input File <==

--------------------------------------------------------------------------
import os
memory 14 GB

molecule {
 C   -0.3233407389    0.0004921075    0.0000010076
 C    0.0610913334   -1.4020185425   -2.4252253842
 C    0.0611169587    2.8026168630   -0.0015998289
 C    0.0610910376   -1.3992465237    2.4268281105
 H    2.0890277010   -1.6434532255   -2.8475216555
 H   -0.7663734652   -0.3863349538   -4.0262960338
 H   -0.7667747097   -3.2941105521   -2.3486381490
 H    2.0826162443    3.2885968432    0.0006165546
 H   -0.7632760455    3.6796688731    1.6727604544
 H   -0.7636660336    3.6797945326   -1.6721583898
 H    2.0890273786   -1.6445331987    2.8469010308
 H   -0.7663789515   -3.2945696471    2.3482216626
 H   -0.7667685860   -0.3869268898    4.0261106205
units bohr
0 2
}

basis {

assign 6-31g_2dfp_

[ 6-31g_2dfp_ ]

spherical

!----------------------------------------------------------------------
! Basis Set Exchange
! Version v0.8.13
! https://www.basissetexchange.org
!----------------------------------------------------------------------
!   Basis set: 6-31G(2df,p)
! Description: 6-31G(2df,p)
!        Role: orbital
!     Version: 0  (Data from the original Basis Set Exchange)
!----------------------------------------------------------------------

****
H     0
S    3   1.00
     18.7311370              0.03349460
      2.8253937              0.23472695
      0.6401217              0.81375733
S    1   1.00
      0.1612778              1.00000000
P    1   1.00
      1.5000000              1.0000000
P    1   1.00
      0.3750000              1.0000000
****
B     0
S    6   1.00
   2068.8823000              0.0018663
    310.6495700              0.0142515
     70.6830330              0.0695516
     19.8610800              0.2325729
      6.2993048              0.4670787
      2.1270270              0.3634314
SP   3   1.00
      4.7279710             -0.1303938              0.0745976
      1.1903377             -0.1307889              0.3078467
      0.3594117              1.1309444              0.7434568
SP   1   1.00
      0.1267512              1.0000000              1.0000000
D    1   1.00
      0.8020000              1.0000000
D    1   1.00
      0.2005000              1.0000000
F    1   1.00
      0.5000000              1.0000000
****
C     0
S    6   1.00
   3047.5249000              0.0018347
    457.3695100              0.0140373
    103.9486900              0.0688426
     29.2101550              0.2321844
      9.2866630              0.4679413
      3.1639270              0.3623120
SP   3   1.00
      7.8682724             -0.1193324              0.0689991
      1.8812885             -0.1608542              0.3164240
      0.5442493              1.1434564              0.7443083
SP   1   1.00
      0.1687144              1.0000000              1.0000000
D    1   1.00
      1.2520000              1.0000000
D    1   1.00
      0.3130000              1.0000000
F    1   1.00
      0.8000000              1.0000000
****
N     0
S    6   1.00
   4173.5110000              0.0018348
    627.4579000              0.0139950
    142.9021000              0.0685870
     40.2343300              0.2322410
     12.8202100              0.4690700
      4.3904370              0.3604550
SP   3   1.00
     11.6263580             -0.1149610              0.0675800
      2.7162800             -0.1691180              0.3239070
      0.7722180              1.1458520              0.7408950
SP   1   1.00
      0.2120313              1.0000000              1.0000000
D    1   1.00
      1.8260000              1.0000000
D    1   1.00
      0.4565000              1.0000000
F    1   1.00
      1.0000000              1.0000000
****
O     0
S    6   1.00
   5484.6717000              0.0018311
    825.2349500              0.0139501
    188.0469600              0.0684451
     52.9645000              0.2327143
     16.8975700              0.4701930
      5.7996353              0.3585209
SP   3   1.00
     15.5396160             -0.1107775              0.0708743
      3.5999336             -0.1480263              0.3397528
      1.0137618              1.1307670              0.7271586
SP   1   1.00
      0.2700058              1.0000000              1.0000000
D    1   1.00
      2.5840000              1.0000000
D    1   1.00
      0.6460000              1.0000000
F    1   1.00
      1.4000000              1.0000000
****
F     0
S    6   1.00
   7001.7130900              0.0018196169
   1051.3660900              0.0139160796
    239.2856900              0.0684053245
     67.3974453              0.233185760
     21.5199573              0.471267439
      7.40310130             0.356618546
SP   3   1.00
     20.8479528             -0.108506975            0.0716287243
      4.80830834            -0.146451658            0.3459121030
      1.34406986             1.128688580            0.7224699570
SP   1   1.00
      0.358151393            1.0000000              1.0000000
D    1   1.00
      3.5000000              1.0000000
D    1   1.00
      0.8750000              1.0000000
F    1   1.00
      1.8500000              1.0000000
****
Al     0
S    6   1.00
  13983.1000000              0.00194267
   2098.7500000              0.0148599
    477.7050000              0.0728494
    134.3600000              0.2468300
     42.8709000              0.4872580
     14.5189000              0.3234960
SP   6   1.00
    239.6680000             -0.00292619             0.00460285
     57.4419000             -0.0374080              0.0331990
     18.2859000             -0.1144870              0.1362820
      6.5991400              0.1156350              0.3304760
      2.4904900              0.6125950              0.4491460
      0.9445400              0.3937990              0.2657040
SP   3   1.00
      1.2779000             -0.2276060             -0.0175130
      0.3975900              0.00144583             0.2445330
      0.1600950              1.0927900              0.8049340
SP   1   1.00
      0.0556577              1.0000000              1.0000000
D    1   1.00
      0.6500000              1.0000000
D    1   1.00
      0.1625000              1.0000000
F    1   1.00
      0.2500000              1.0000000
****
Si     0
S    6   1.00
  16115.9000000              0.00195948
   2425.5800000              0.01492880
    553.8670000              0.07284780
    156.3400000              0.24613000
     50.0683000              0.48591400
     17.0178000              0.32500200
SP   6   1.00
    292.7180000             -0.00278094             0.00443826
     69.8731000             -0.03571460             0.03266790
     22.3363000             -0.11498500             0.13472100
      8.1503900              0.09356340             0.32867800
      3.1345800              0.60301700             0.44964000
      1.2254300              0.41895900             0.26137200
SP   3   1.00
      1.7273800             -0.24463000            -0.01779510
      0.5729220              0.00431572             0.25353900
      0.2221920              1.09818000             0.80066900
SP   1   1.00
      0.0778369              1.00000000             1.00000000
D    1   1.00
      0.9000000              1.0000000
D    1   1.00
      0.2250000              1.0000000
F    1   1.00
      0.3200000              1.0000000
****
P     0
S    6   1.00
  19413.3000000              0.0018516
   2909.4200000              0.0142062
    661.3640000              0.0699995
    185.7590000              0.2400790
     59.1943000              0.4847620
     20.0310000              0.3352000
SP   6   1.00
    339.4780000             -0.00278217             0.00456462
     81.0101000             -0.0360499              0.03369360
     25.8780000             -0.1166310              0.13975500
      9.4522100              0.0968328              0.33936200
      3.6656600              0.6144180              0.45092100
      1.4674600              0.4037980              0.23858600
SP   3   1.00
      2.1562300             -0.2529230             -0.01776530
      0.7489970              0.0328517              0.27405800
      0.2831450              1.0812500              0.78542100
SP   1   1.00
      0.0998317              1.0000000              1.00000000
D    1   1.00
      1.1000000              1.0000000
D    1   1.00
      0.2750000              1.0000000
F    1   1.00
      0.4500000              1.0000000
****
S     0
S    6   1.00
  21917.1000000              0.0018690
   3301.4900000              0.0142300
    754.1460000              0.0696960
    212.7110000              0.2384870
     67.9896000              0.4833070
     23.0515000              0.3380740
SP   6   1.00
    423.7350000             -0.0023767              0.0040610
    100.7100000             -0.0316930              0.0306810
     32.1599000             -0.1133170              0.1304520
     11.8079000              0.0560900              0.3272050
      4.6311000              0.5922550              0.4528510
      1.8702500              0.4550060              0.2560420
SP   3   1.00
      2.6158400             -0.2503740             -0.0145110
      0.9221670              0.0669570              0.3102630
      0.3412870              1.0545100              0.7544830
SP   1   1.00
      0.1171670              1.0000000              1.0000000
D    1   1.00
      1.3000000              1.0000000
D    1   1.00
      0.3250000              1.0000000
F    1   1.00
      0.5500000              1.0000000
****
Cl     0
S    6   1.00
  25180.1000000              0.0018330
   3780.3500000              0.0140340
    860.4740000              0.0690970
    242.1450000              0.2374520
     77.3349000              0.4830340
     26.2470000              0.3398560
SP   6   1.00
    491.7650000             -0.0022974              0.0039894
    116.9840000             -0.0307140              0.0303180
     37.4153000             -0.1125280              0.1298800
     13.7834000              0.0450160              0.3279510
      5.4521500              0.5893530              0.4535270
      2.2258800              0.4652060              0.2521540
SP   3   1.00
      3.1864900             -0.2518300             -0.0142990
      1.1442700              0.0615890              0.3235720
      0.4203770              1.0601800              0.7435070
SP   1   1.00
      0.1426570              1.0000000              1.0000000
D    1   1.00
      1.5000000              1.0000000
D    1   1.00
      0.3750000              1.0000000
F    1   1.00
      0.7000000              1.0000000
****
}

set {
reference uhf
freeze_core true
e_convergence 10
d_convergence 10
dft_spherical_points 1202
dft_radial_points 99
}

e = energy('b3lyp')

print_out('Grab this energy {0}'.format(e))
--------------------------------------------------------------------------

    Molecular point group: c1

    Geometry (in Bohr), charge = 0, multiplicity = 2:

       Center              X                  Y                   Z               Mass
    ------------   -----------------  -----------------  -----------------  -----------------
         C           -0.323340464557     0.000137387616     0.000000255472    12.000000000000
         C            0.061091607743    -1.402373262384    -2.425226136328    12.000000000000
         C            0.061117233043     2.802262143116    -0.001600581028    12.000000000000
         C            0.061091311943    -1.399601243584     2.426827358372    12.000000000000
         H            2.089027975343    -1.643807945384    -2.847522407628     1.007825032230
         H           -0.766373190857    -0.386689673684    -4.026296785928     1.007825032230
         H           -0.766774435357    -3.294465271984    -2.348638901128     1.007825032230
         H            2.082616518643     3.288242123316     0.000615802472     1.007825032230
         H           -0.763275771157     3.679314153216     1.672759702272     1.007825032230
         H           -0.763665759257     3.679439812716    -1.672159141928     1.007825032230
         H            2.089027652943    -1.644887918584     2.846900278672     1.007825032230
         H           -0.766378677157    -3.294924366984     2.348220910472     1.007825032230
         H           -0.766768311657    -0.387281609684     4.026109868372     1.007825032230

  Charge       = 0
  Multiplicity = 2
  Basis Set: ANONYMOUS3E5D5B30
    Blend: 6-31G_2DFP_
  Basis Set: (ANONYMOUS3E5D5B30 AUX)
    Blend: DEF2-UNIVERSAL-JKFIT

    Orbital Energies [Eh]
    ---------------------

    Alpha Occupied:

       1A    -10.180342     2A    -10.167365     3A    -10.167335
       4A    -10.166344     5A     -0.797767     6A     -0.686510
       7A     -0.685865     8A     -0.530775     9A     -0.441125
      10A     -0.434760    11A     -0.434584    12A     -0.382822
      13A     -0.382376    14A     -0.363611    15A     -0.338029
      16A     -0.337967    17A     -0.168961

    Alpha Virtual:

      18A      0.076070    19A      0.134143    20A      0.134152
      21A      0.142532    22A      0.142737    23A      0.154874
      24A      0.178455    25A      0.179106    26A      0.203545
      27A      0.214807    28A      0.275941    29A      0.276029
      30A      0.399151    31A      0.399305    32A      0.403344
      33A      0.424001    34A      0.424192    35A      0.456591
      36A      0.495320    37A      0.495460    38A      0.512154
      39A      0.513985    40A      0.578699    41A      0.578931
      42A      0.591332    43A      0.591914    44A      0.602592
      45A      0.624755    46A      0.631713    47A      0.635864
      48A      0.636706    49A      0.663229    50A      0.663598
      51A      0.683544    52A      0.684180    53A      0.734994
      54A      0.825009    55A      0.825796    56A      0.853917
      57A      0.915018    58A      0.915035    59A      0.944129
      60A      0.944613    61A      0.961054    62A      0.961538
      63A      1.003455    64A      1.127788    65A      1.128428
      66A      1.142219    67A      1.163175    68A      1.163361
      69A      1.223322    70A      1.274309    71A      1.274667
      72A      1.279350    73A      1.324001    74A      1.324702
      75A      1.355971    76A      1.365789    77A      1.366327
      78A      1.392463    79A      1.403670    80A      1.404429
      81A      1.416780    82A      1.417422    83A      1.427909
      84A      1.491452    85A      1.499131    86A      1.542775
      87A      1.542885    88A      1.574173    89A      1.574738
      90A      1.669798    91A      1.739310    92A      1.739501
      93A      1.768335    94A      1.829806    95A      1.833053
      96A      1.971702    97A      2.018066    98A      2.019146
      99A      2.019165   100A      2.052608   101A      2.052725
     102A      2.738040   103A      2.738932   104A      2.790917
     105A      2.811436   106A      2.889675   107A      2.890178
     108A      2.894980   109A      2.929390   110A      2.929602
     111A      2.959007   112A      2.963871   113A      2.964902
     114A      3.034021   115A      3.071037   116A      3.071524
     117A      3.084378   118A      3.168646   119A      3.168921
     120A      3.180593   121A      3.285245   122A      3.285387
     123A      3.327124   124A      3.327206   125A      3.375611
     126A      3.489337   127A      3.490987   128A      3.513986
     129A      3.525367   130A      3.568292   131A      3.568440
     132A      3.575198   133A      3.665655   134A      3.667018
     135A      3.679655   136A      3.693647   137A      3.694651
     138A      3.776248   139A      3.777393   140A      3.789120
     141A      3.911777   142A      3.912651   143A      4.034439
     144A      4.110594   145A      4.112029   146A      4.146148
     147A      4.150000   148A      4.173316   149A      4.201097
     150A      4.202332   151A      4.205281   152A      4.211177
     153A      4.315246   154A      4.316656   155A      4.358944
     156A      4.424248   157A      4.424563   158A      4.443545
     159A      4.516607   160A      4.517049   161A      4.577834
     162A      4.578753   163A      4.617532   164A      4.709488
     165A      4.774499   166A      4.774693   167A      4.836878
     168A      4.962867   169A      5.002376   170A      5.003560
     171A      5.227835   172A      5.243171   173A      5.250440
     174A      5.352499   175A      5.358698   176A      5.479439

    Beta Occupied:

       1A    -10.168120     2A    -10.168101     3A    -10.167106
       4A    -10.166515     5A     -0.781092     6A     -0.684312
       7A     -0.683668     8A     -0.511747     9A     -0.431142
      10A     -0.430945    11A     -0.421824    12A     -0.376915
      13A     -0.376452    14A     -0.362595    15A     -0.333145
      16A     -0.333097

    Beta Virtual:

      17A     -0.025743    18A      0.077079    19A      0.134979
      20A      0.135096    21A      0.144450    22A      0.144559
      23A      0.163333    24A      0.182136    25A      0.182768
      26A      0.215030    27A      0.218934    28A      0.282287
      29A      0.282379    30A      0.400317    31A      0.400478
      32A      0.419791    33A      0.426810    34A      0.427006
      35A      0.468499    36A      0.497580    37A      0.497720
      38A      0.513896    39A      0.556324    40A      0.584241
      41A      0.584488    42A      0.597534    43A      0.598076
      44A      0.610010    45A      0.628124    46A      0.631909
      47A      0.639173    48A      0.639937    49A      0.666779
      50A      0.667176    51A      0.686214    52A      0.686780
      53A      0.757518    54A      0.830152    55A      0.830990
      56A      0.855271    57A      0.922992    58A      0.923003
      59A      0.945967    60A      0.953540    61A      0.966390
      62A      0.966815    63A      1.008695    64A      1.131800
      65A      1.132474    66A      1.155595    67A      1.168237
      68A      1.168448    69A      1.232295    70A      1.279904
      71A      1.280267    72A      1.285103    73A      1.328944
      74A      1.329738    75A      1.365377    76A      1.371044
      77A      1.371564    78A      1.393526    79A      1.407116
      80A      1.407914    81A      1.421785    82A      1.422518
      83A      1.428178    84A      1.492520    85A      1.509554
      86A      1.547136    87A      1.547338    88A      1.582055
      89A      1.582600    90A      1.674643    91A      1.745093
      92A      1.745244    93A      1.779111    94A      1.833690
      95A      1.836879    96A      1.972566    97A      2.025385
      98A      2.025493    99A      2.039669   100A      2.059269
     101A      2.059498   102A      2.746362   103A      2.747281
     104A      2.811806   105A      2.816094   106A      2.902442
     107A      2.902814   108A      2.924656   109A      2.931923
     110A      2.932035   111A      2.960072   112A      2.968373
     113A      2.969487   114A      3.041955   115A      3.080858
     116A      3.081491   117A      3.086230   118A      3.184341
     119A      3.184711   120A      3.188289   121A      3.290017
     122A      3.290212   123A      3.330949   124A      3.330989
     125A      3.383429   126A      3.492100   127A      3.493686
     128A      3.512359   129A      3.528403   130A      3.574959
     131A      3.581748   132A      3.581763   133A      3.670346
     134A      3.671837   135A      3.692973   136A      3.725285
     137A      3.726238   138A      3.780804   139A      3.781890
     140A      3.817666   141A      3.921607   142A      3.922456
     143A      4.045321   144A      4.117605   145A      4.118627
     146A      4.153580   147A      4.157017   148A      4.187368
     149A      4.208108   150A      4.208213   151A      4.212229
     152A      4.215659   153A      4.322809   154A      4.323969
     155A      4.362309   156A      4.432521   157A      4.432674
     158A      4.446477   159A      4.524457   160A      4.524780
     161A      4.588482   162A      4.589307   163A      4.624723
     164A      4.719832   165A      4.781420   166A      4.781678
     167A      4.839795   168A      4.967663   169A      5.006432
     170A      5.007582   171A      5.233539   172A      5.244971
     173A      5.252225   174A      5.358993   175A      5.365160
     176A      5.481759

    Final Occupation by Irrep:
              A
    DOCC [    16 ]
    SOCC [     1 ]

  @DF-UKS Final Energy:  -157.81305572431140

   => Energetics <=

    Nuclear Repulsion Energy =            125.3946605364027675
    One-Electron Energy =                -458.7489475510330976
    Two-Electron Energy =                 195.8483790016651653
    DFT Exchange-Correlation Energy =     -20.3071477113461931
    Empirical Dispersion Energy =           0.0000000000000000
    VV10 Nonlocal Energy =                  0.0000000000000000
    Total Energy =                       -157.8130557243113969

  UHF NO Occupations:
  HONO-2 :   15  A 1.9996009
  HONO-1 :   16  A 1.9989805
  HONO-0 :   17  A 1.0000000
  LUNO+0 :   18  A 0.0010195
  LUNO+1 :   19  A 0.0003991
  LUNO+2 :   20  A 0.0001976
  LUNO+3 :   21  A 0.0001975

Computation Completed

Properties will be evaluated at   0.000000,   0.000000,   0.000000 [a0]

Properties computed using the SCF density matrix

  Nuclear Dipole Moment: [e a0]
     X:     0.8272      Y:    -0.0025      Z:    -0.0000

  Electronic Dipole Moment: [e a0]
     X:    -0.7493      Y:     0.0050      Z:     0.0000

  Dipole Moment: [e a0]
     X:     0.0779      Y:     0.0024      Z:     0.0000     Total:     0.0780

  Dipole Moment: [D]
     X:     0.1980      Y:     0.0062      Z:     0.0000     Total:     0.1981

*** tstop() called on n040 at Fri Nov  5 12:48:15 2021
Module time:
	user time   =     631.97 seconds =      10.53 minutes
	system time =      12.11 seconds =       0.20 minutes
	total time  =        162 seconds =       2.70 minutes
Total time:
	user time   =     631.97 seconds =      10.53 minutes
	system time =      12.11 seconds =       0.20 minutes
	total time  =        162 seconds =       2.70 minutes
Grab this energy -157.8130557243114
    Psi4 stopped on: Friday, 05 November 2021 12:48PM
    Psi4 wall time for execution: 0:02:41.93

*** Psi4 exiting successfully. Buy a developer a beer!
