                               Psi4 1.4a2.dev629

  ==> Input File <==

--------------------------------------------------------------------------
import os
memory 14 GB

molecule {
 C   -0.3251192211   -0.0000026925   -0.0002572433
 C    0.0588086876   -1.4013427630   -2.4264185837
 C    0.0604631070    2.8020163656    0.0007665063
 C    0.0623585391   -1.4006703928    2.4267874858
 H    2.0874307752   -1.6409725224   -2.8422674869
 H   -0.7643666353   -0.3900848913   -4.0281140082
 H   -0.7646655534   -3.2932267855   -2.3520419308
 H    2.0871162657    3.2820682982   -0.0002377709
 H   -0.7653661208    3.6835270093    1.6757704906
 H   -0.7650939813    3.6834358284   -1.6761068243
 H    2.0870805140   -1.6411870441    2.8421632457
 H   -0.7656404496   -3.2930254544    2.3520844099
 H   -0.7656138039   -0.3905592690    4.0278717100
units bohr
0 2
}

basis {

assign 6-31g_2dfp_

[ 6-31g_2dfp_ ]

spherical

!----------------------------------------------------------------------
! Basis Set Exchange
! Version v0.8.13
! https://www.basissetexchange.org
!----------------------------------------------------------------------
!   Basis set: 6-31G(2df,p)
! Description: 6-31G(2df,p)
!        Role: orbital
!     Version: 0  (Data from the original Basis Set Exchange)
!----------------------------------------------------------------------

****
H     0
S    3   1.00
     18.7311370              0.03349460
      2.8253937              0.23472695
      0.6401217              0.81375733
S    1   1.00
      0.1612778              1.00000000
P    1   1.00
      1.5000000              1.0000000
P    1   1.00
      0.3750000              1.0000000
****
B     0
S    6   1.00
   2068.8823000              0.0018663
    310.6495700              0.0142515
     70.6830330              0.0695516
     19.8610800              0.2325729
      6.2993048              0.4670787
      2.1270270              0.3634314
SP   3   1.00
      4.7279710             -0.1303938              0.0745976
      1.1903377             -0.1307889              0.3078467
      0.3594117              1.1309444              0.7434568
SP   1   1.00
      0.1267512              1.0000000              1.0000000
D    1   1.00
      0.8020000              1.0000000
D    1   1.00
      0.2005000              1.0000000
F    1   1.00
      0.5000000              1.0000000
****
C     0
S    6   1.00
   3047.5249000              0.0018347
    457.3695100              0.0140373
    103.9486900              0.0688426
     29.2101550              0.2321844
      9.2866630              0.4679413
      3.1639270              0.3623120
SP   3   1.00
      7.8682724             -0.1193324              0.0689991
      1.8812885             -0.1608542              0.3164240
      0.5442493              1.1434564              0.7443083
SP   1   1.00
      0.1687144              1.0000000              1.0000000
D    1   1.00
      1.2520000              1.0000000
D    1   1.00
      0.3130000              1.0000000
F    1   1.00
      0.8000000              1.0000000
****
N     0
S    6   1.00
   4173.5110000              0.0018348
    627.4579000              0.0139950
    142.9021000              0.0685870
     40.2343300              0.2322410
     12.8202100              0.4690700
      4.3904370              0.3604550
SP   3   1.00
     11.6263580             -0.1149610              0.0675800
      2.7162800             -0.1691180              0.3239070
      0.7722180              1.1458520              0.7408950
SP   1   1.00
      0.2120313              1.0000000              1.0000000
D    1   1.00
      1.8260000              1.0000000
D    1   1.00
      0.4565000              1.0000000
F    1   1.00
      1.0000000              1.0000000
****
O     0
S    6   1.00
   5484.6717000              0.0018311
    825.2349500              0.0139501
    188.0469600              0.0684451
     52.9645000              0.2327143
     16.8975700              0.4701930
      5.7996353              0.3585209
SP   3   1.00
     15.5396160             -0.1107775              0.0708743
      3.5999336             -0.1480263              0.3397528
      1.0137618              1.1307670              0.7271586
SP   1   1.00
      0.2700058              1.0000000              1.0000000
D    1   1.00
      2.5840000              1.0000000
D    1   1.00
      0.6460000              1.0000000
F    1   1.00
      1.4000000              1.0000000
****
F     0
S    6   1.00
   7001.7130900              0.0018196169
   1051.3660900              0.0139160796
    239.2856900              0.0684053245
     67.3974453              0.233185760
     21.5199573              0.471267439
      7.40310130             0.356618546
SP   3   1.00
     20.8479528             -0.108506975            0.0716287243
      4.80830834            -0.146451658            0.3459121030
      1.34406986             1.128688580            0.7224699570
SP   1   1.00
      0.358151393            1.0000000              1.0000000
D    1   1.00
      3.5000000              1.0000000
D    1   1.00
      0.8750000              1.0000000
F    1   1.00
      1.8500000              1.0000000
****
Al     0
S    6   1.00
  13983.1000000              0.00194267
   2098.7500000              0.0148599
    477.7050000              0.0728494
    134.3600000              0.2468300
     42.8709000              0.4872580
     14.5189000              0.3234960
SP   6   1.00
    239.6680000             -0.00292619             0.00460285
     57.4419000             -0.0374080              0.0331990
     18.2859000             -0.1144870              0.1362820
      6.5991400              0.1156350              0.3304760
      2.4904900              0.6125950              0.4491460
      0.9445400              0.3937990              0.2657040
SP   3   1.00
      1.2779000             -0.2276060             -0.0175130
      0.3975900              0.00144583             0.2445330
      0.1600950              1.0927900              0.8049340
SP   1   1.00
      0.0556577              1.0000000              1.0000000
D    1   1.00
      0.6500000              1.0000000
D    1   1.00
      0.1625000              1.0000000
F    1   1.00
      0.2500000              1.0000000
****
Si     0
S    6   1.00
  16115.9000000              0.00195948
   2425.5800000              0.01492880
    553.8670000              0.07284780
    156.3400000              0.24613000
     50.0683000              0.48591400
     17.0178000              0.32500200
SP   6   1.00
    292.7180000             -0.00278094             0.00443826
     69.8731000             -0.03571460             0.03266790
     22.3363000             -0.11498500             0.13472100
      8.1503900              0.09356340             0.32867800
      3.1345800              0.60301700             0.44964000
      1.2254300              0.41895900             0.26137200
SP   3   1.00
      1.7273800             -0.24463000            -0.01779510
      0.5729220              0.00431572             0.25353900
      0.2221920              1.09818000             0.80066900
SP   1   1.00
      0.0778369              1.00000000             1.00000000
D    1   1.00
      0.9000000              1.0000000
D    1   1.00
      0.2250000              1.0000000
F    1   1.00
      0.3200000              1.0000000
****
P     0
S    6   1.00
  19413.3000000              0.0018516
   2909.4200000              0.0142062
    661.3640000              0.0699995
    185.7590000              0.2400790
     59.1943000              0.4847620
     20.0310000              0.3352000
SP   6   1.00
    339.4780000             -0.00278217             0.00456462
     81.0101000             -0.0360499              0.03369360
     25.8780000             -0.1166310              0.13975500
      9.4522100              0.0968328              0.33936200
      3.6656600              0.6144180              0.45092100
      1.4674600              0.4037980              0.23858600
SP   3   1.00
      2.1562300             -0.2529230             -0.01776530
      0.7489970              0.0328517              0.27405800
      0.2831450              1.0812500              0.78542100
SP   1   1.00
      0.0998317              1.0000000              1.00000000
D    1   1.00
      1.1000000              1.0000000
D    1   1.00
      0.2750000              1.0000000
F    1   1.00
      0.4500000              1.0000000
****
S     0
S    6   1.00
  21917.1000000              0.0018690
   3301.4900000              0.0142300
    754.1460000              0.0696960
    212.7110000              0.2384870
     67.9896000              0.4833070
     23.0515000              0.3380740
SP   6   1.00
    423.7350000             -0.0023767              0.0040610
    100.7100000             -0.0316930              0.0306810
     32.1599000             -0.1133170              0.1304520
     11.8079000              0.0560900              0.3272050
      4.6311000              0.5922550              0.4528510
      1.8702500              0.4550060              0.2560420
SP   3   1.00
      2.6158400             -0.2503740             -0.0145110
      0.9221670              0.0669570              0.3102630
      0.3412870              1.0545100              0.7544830
SP   1   1.00
      0.1171670              1.0000000              1.0000000
D    1   1.00
      1.3000000              1.0000000
D    1   1.00
      0.3250000              1.0000000
F    1   1.00
      0.5500000              1.0000000
****
Cl     0
S    6   1.00
  25180.1000000              0.0018330
   3780.3500000              0.0140340
    860.4740000              0.0690970
    242.1450000              0.2374520
     77.3349000              0.4830340
     26.2470000              0.3398560
SP   6   1.00
    491.7650000             -0.0022974              0.0039894
    116.9840000             -0.0307140              0.0303180
     37.4153000             -0.1125280              0.1298800
     13.7834000              0.0450160              0.3279510
      5.4521500              0.5893530              0.4535270
      2.2258800              0.4652060              0.2521540
SP   3   1.00
      3.1864900             -0.2518300             -0.0142990
      1.1442700              0.0615890              0.3235720
      0.4203770              1.0601800              0.7435070
SP   1   1.00
      0.1426570              1.0000000              1.0000000
D    1   1.00
      1.5000000              1.0000000
D    1   1.00
      0.3750000              1.0000000
F    1   1.00
      0.7000000              1.0000000
****
}

set {
reference uhf
freeze_core true
e_convergence 10
d_convergence 10
dft_spherical_points 1202
dft_radial_points 99
}

e = energy('b3lyp')

print_out('Grab this energy {0}'.format(e))
--------------------------------------------------------------------------

    Molecular point group: c1

    Geometry (in Bohr), charge = 0, multiplicity = 2:

       Center              X                  Y                   Z               Mass
    ------------   -----------------  -----------------  -----------------  -----------------
         C           -0.324454937625    -0.000002362776    -0.000426384227    12.000000000000
         C            0.059472971075    -1.401342433276    -2.426587724627    12.000000000000
         C            0.061127390475     2.802016695324     0.000597365373    12.000000000000
         C            0.063022822575    -1.400670063076     2.426618344873    12.000000000000
         H            2.088095058675    -1.640972192676    -2.842436627827     1.007825032230
         H           -0.763702351825    -0.390084561576    -4.028283149127     1.007825032230
         H           -0.764001269925    -3.293226455776    -2.352211071727     1.007825032230
         H            2.087780549175     3.282068627924    -0.000406911827     1.007825032230
         H           -0.764701837325     3.683527339024     1.675601349673     1.007825032230
         H           -0.764429697825     3.683436158124    -1.676275965227     1.007825032230
         H            2.087744797475    -1.641186714376     2.841994104773     1.007825032230
         H           -0.764976166125    -3.293025124676     2.351915268973     1.007825032230
         H           -0.764949520425    -0.390558939276     4.027702569073     1.007825032230

  Charge       = 0
  Multiplicity = 2
  Basis Set: ANONYMOUS52BDF514
    Blend: 6-31G_2DFP_
  Basis Set: (ANONYMOUS52BDF514 AUX)
    Blend: DEF2-UNIVERSAL-JKFIT

    Orbital Energies [Eh]
    ---------------------

    Alpha Occupied:

       1A    -10.180355     2A    -10.167098     3A    -10.167067
       4A    -10.167021     5A     -0.797702     6A     -0.686182
       7A     -0.686116     8A     -0.530764     9A     -0.441295
      10A     -0.434560    11A     -0.434358    12A     -0.382902
      13A     -0.382602    14A     -0.363473    15A     -0.338059
      16A     -0.337891    17A     -0.168871

    Alpha Virtual:

      18A      0.076036    19A      0.134172    20A      0.134238
      21A      0.142496    22A      0.142621    23A      0.154673
      24A      0.178702    25A      0.178930    26A      0.203415
      27A      0.214581    28A      0.275891    29A      0.276002
      30A      0.398844    31A      0.399158    32A      0.403421
      33A      0.424201    34A      0.424298    35A      0.456357
      36A      0.495384    37A      0.495441    38A      0.512350
      39A      0.513923    40A      0.578572    41A      0.578737
      42A      0.591711    43A      0.591957    44A      0.602803
      45A      0.624699    46A      0.631524    47A      0.636048
      48A      0.636260    49A      0.662967    50A      0.663307
      51A      0.683788    52A      0.684085    53A      0.734910
      54A      0.825492    55A      0.825520    56A      0.853575
      57A      0.914863    58A      0.914905    59A      0.943905
      60A      0.945409    61A      0.961493    62A      0.961647
      63A      1.002724    64A      1.127555    65A      1.127761
      66A      1.142808    67A      1.162621    68A      1.162817
      69A      1.223405    70A      1.274371    71A      1.274653
      72A      1.279144    73A      1.323821    74A      1.324332
      75A      1.356400    76A      1.365428    77A      1.366043
      78A      1.392641    79A      1.404196    80A      1.404448
      81A      1.416982    82A      1.417550    83A      1.427296
      84A      1.490895    85A      1.499395    86A      1.542718
      87A      1.542806    88A      1.574917    89A      1.575228
      90A      1.669764    91A      1.739145    92A      1.739961
      93A      1.768473    94A      1.830921    95A      1.831309
      96A      1.971634    97A      2.017552    98A      2.018458
      99A      2.018906   100A      2.051788   101A      2.052534
     102A      2.738862   103A      2.738942   104A      2.790700
     105A      2.810911   106A      2.889521   107A      2.890065
     108A      2.894693   109A      2.929008   110A      2.929073
     111A      2.958936   112A      2.964219   113A      2.964428
     114A      3.033529   115A      3.071638   116A      3.071874
     117A      3.084715   118A      3.168729   119A      3.168970
     120A      3.180429   121A      3.285687   122A      3.285751
     123A      3.325903   124A      3.326203   125A      3.375905
     126A      3.490346   127A      3.490960   128A      3.513740
     129A      3.525152   130A      3.567741   131A      3.567961
     132A      3.574332   133A      3.666145   134A      3.666742
     135A      3.678555   136A      3.694623   137A      3.694662
     138A      3.775602   139A      3.775694   140A      3.790432
     141A      3.912043   142A      3.912208   143A      4.035573
     144A      4.111174   145A      4.111329   146A      4.148294
     147A      4.148422   148A      4.173297   149A      4.202028
     150A      4.202384   151A      4.203162   152A      4.210350
     153A      4.315216   154A      4.316096   155A      4.357806
     156A      4.424843   157A      4.425078   158A      4.442431
     159A      4.514960   160A      4.517072   161A      4.577100
     162A      4.577528   163A      4.616994   164A      4.709163
     165A      4.773706   166A      4.774726   167A      4.837927
     168A      4.962344   169A      5.002605   170A      5.003510
     171A      5.227698   172A      5.246843   173A      5.246890
     174A      5.354669   175A      5.355190   176A      5.479084

    Beta Occupied:

       1A    -10.167852     2A    -10.167821     3A    -10.167786
       4A    -10.166527     5A     -0.781023     6A     -0.683987
       7A     -0.683921     8A     -0.511739     9A     -0.430946
      10A     -0.430734    11A     -0.421985    12A     -0.377006
      13A     -0.376689    14A     -0.362464    15A     -0.333180
      16A     -0.333009

    Beta Virtual:

      17A     -0.025576    18A      0.077049    19A      0.135055
      20A      0.135105    21A      0.144361    22A      0.144477
      23A      0.163083    24A      0.182378    25A      0.182610
      26A      0.214809    27A      0.218837    28A      0.282252
      29A      0.282358    30A      0.400008    31A      0.400325
      32A      0.419844    33A      0.427015    34A      0.427117
      35A      0.468187    36A      0.497634    37A      0.497683
      38A      0.514080    39A      0.556353    40A      0.584107
      41A      0.584263    42A      0.597911    43A      0.598166
      44A      0.610208    45A      0.628071    46A      0.631674
      47A      0.639341    48A      0.639555    49A      0.666523
      50A      0.666831    51A      0.686439    52A      0.686742
      53A      0.757469    54A      0.830647    55A      0.830670
      56A      0.854926    57A      0.922790    58A      0.922829
      59A      0.945741    60A      0.954256    61A      0.966818
      62A      0.966986    63A      1.007935    64A      1.131543
      65A      1.131825    66A      1.156406    67A      1.167749
      68A      1.167849    69A      1.232272    70A      1.279945
      71A      1.280237    72A      1.284830    73A      1.328761
      74A      1.329293    75A      1.365876    76A      1.370677
      77A      1.371293    78A      1.393683    79A      1.407634
      80A      1.407912    81A      1.422101    82A      1.422638
      83A      1.427561    84A      1.491954    85A      1.509861
      86A      1.547151    87A      1.547200    88A      1.582830
      89A      1.583037    90A      1.674608    91A      1.744913
      92A      1.745714    93A      1.779238    94A      1.834778
      95A      1.835166    96A      1.972486    97A      2.023934
      98A      2.025210    99A      2.039878   100A      2.058543
     101A      2.059237   102A      2.747192   103A      2.747262
     104A      2.811318   105A      2.815831   106A      2.902285
     107A      2.902812   108A      2.924416   109A      2.931475
     110A      2.931534   111A      2.959994   112A      2.968730
     113A      2.968930   114A      3.041473   115A      3.081562
     116A      3.081785   117A      3.086540   118A      3.184509
     119A      3.184706   120A      3.188095   121A      3.290519
     122A      3.290562   123A      3.329717   124A      3.330046
     125A      3.383750   126A      3.493010   127A      3.493622
     128A      3.512096   129A      3.528235   130A      3.574202
     131A      3.581201   132A      3.581299   133A      3.671046
     134A      3.671520   135A      3.691907   136A      3.725974
     137A      3.726256   138A      3.780075   139A      3.780146
     140A      3.818953   141A      3.921891   142A      3.922088
     143A      4.046407   144A      4.117953   145A      4.118003
     146A      4.155535   147A      4.155751   148A      4.187394
     149A      4.208041   150A      4.208407   151A      4.210997
     152A      4.214790   153A      4.322616   154A      4.323544
     155A      4.361149   156A      4.433062   157A      4.433276
     158A      4.445335   159A      4.522767   160A      4.524872
     161A      4.587695   162A      4.588095   163A      4.624263
     164A      4.719401   165A      4.780691   166A      4.781674
     167A      4.840840   168A      4.967142   169A      5.006646
     170A      5.007516   171A      5.233428   172A      5.248623
     173A      5.248671   174A      5.361149   175A      5.361668
     176A      5.481400

    Final Occupation by Irrep:
              A
    DOCC [    16 ]
    SOCC [     1 ]

  @DF-UKS Final Energy:  -157.81306097450246

   => Energetics <=

    Nuclear Repulsion Energy =            125.3830125392828165
    One-Electron Energy =                -458.7262334874156977
    Two-Electron Energy =                 195.8369572114931714
    DFT Exchange-Correlation Energy =     -20.3067972378627779
    Empirical Dispersion Energy =           0.0000000000000000
    VV10 Nonlocal Energy =                  0.0000000000000000
    Total Energy =                       -157.8130609745024628

  UHF NO Occupations:
  HONO-2 :   15  A 1.9996022
  HONO-1 :   16  A 1.9989785
  HONO-0 :   17  A 1.0000000
  LUNO+0 :   18  A 0.0010215
  LUNO+1 :   19  A 0.0003978
  LUNO+2 :   20  A 0.0001980
  LUNO+3 :   21  A 0.0001977

Computation Completed

Properties will be evaluated at   0.000000,   0.000000,   0.000000 [a0]

Properties computed using the SCF density matrix

  Nuclear Dipole Moment: [e a0]
     X:     0.8319      Y:    -0.0000      Z:    -0.0012

  Electronic Dipole Moment: [e a0]
     X:    -0.7535      Y:     0.0000      Z:     0.0011

  Dipole Moment: [e a0]
     X:     0.0783      Y:     0.0000      Z:    -0.0001     Total:     0.0783

  Dipole Moment: [D]
     X:     0.1991      Y:     0.0000      Z:    -0.0003     Total:     0.1991

*** tstop() called on n083 at Fri Nov  5 12:24:08 2021
Module time:
	user time   =     497.32 seconds =       8.29 minutes
	system time =       4.58 seconds =       0.08 minutes
	total time  =        126 seconds =       2.10 minutes
Total time:
	user time   =     497.32 seconds =       8.29 minutes
	system time =       4.58 seconds =       0.08 minutes
	total time  =        126 seconds =       2.10 minutes
Grab this energy -157.81306097450246
    Psi4 stopped on: Friday, 05 November 2021 12:24PM
    Psi4 wall time for execution: 0:02:06.19

*** Psi4 exiting successfully. Buy a developer a beer!
