                               Psi4 1.4a2.dev629

  ==> Input File <==

--------------------------------------------------------------------------
import os
memory 14 GB

molecule {
 C   -0.3236385287   -0.0000032790    0.0053484141
 C    0.0614064442   -1.4040488752   -2.4307764269
 C    0.0611585071    2.8072005911    0.0011026989
 C    0.0611515457   -1.4031466641    2.4314191633
 H    2.0870225836   -1.6472172383   -2.8538523562
 H   -0.7651990213   -0.3914324014   -4.0318798664
 H   -0.7662014228   -3.2948619958   -2.3545966515
 H    2.0870888244    3.2946940806   -0.0010042268
 H   -0.7666496392    3.6853928751    1.6761479978
 H   -0.7649740771    3.6871086955   -1.6776229858
 H    2.0874359798   -1.6475695450    2.8524541345
 H   -0.7652679617   -3.2958002367    2.3533929287
 H   -0.7659411107   -0.3903403204    4.0298671762
units bohr
0 2
}

basis {

assign 6-31g_2dfp_

[ 6-31g_2dfp_ ]

spherical

!----------------------------------------------------------------------
! Basis Set Exchange
! Version v0.8.13
! https://www.basissetexchange.org
!----------------------------------------------------------------------
!   Basis set: 6-31G(2df,p)
! Description: 6-31G(2df,p)
!        Role: orbital
!     Version: 0  (Data from the original Basis Set Exchange)
!----------------------------------------------------------------------

****
H     0
S    3   1.00
     18.7311370              0.03349460
      2.8253937              0.23472695
      0.6401217              0.81375733
S    1   1.00
      0.1612778              1.00000000
P    1   1.00
      1.5000000              1.0000000
P    1   1.00
      0.3750000              1.0000000
****
B     0
S    6   1.00
   2068.8823000              0.0018663
    310.6495700              0.0142515
     70.6830330              0.0695516
     19.8610800              0.2325729
      6.2993048              0.4670787
      2.1270270              0.3634314
SP   3   1.00
      4.7279710             -0.1303938              0.0745976
      1.1903377             -0.1307889              0.3078467
      0.3594117              1.1309444              0.7434568
SP   1   1.00
      0.1267512              1.0000000              1.0000000
D    1   1.00
      0.8020000              1.0000000
D    1   1.00
      0.2005000              1.0000000
F    1   1.00
      0.5000000              1.0000000
****
C     0
S    6   1.00
   3047.5249000              0.0018347
    457.3695100              0.0140373
    103.9486900              0.0688426
     29.2101550              0.2321844
      9.2866630              0.4679413
      3.1639270              0.3623120
SP   3   1.00
      7.8682724             -0.1193324              0.0689991
      1.8812885             -0.1608542              0.3164240
      0.5442493              1.1434564              0.7443083
SP   1   1.00
      0.1687144              1.0000000              1.0000000
D    1   1.00
      1.2520000              1.0000000
D    1   1.00
      0.3130000              1.0000000
F    1   1.00
      0.8000000              1.0000000
****
N     0
S    6   1.00
   4173.5110000              0.0018348
    627.4579000              0.0139950
    142.9021000              0.0685870
     40.2343300              0.2322410
     12.8202100              0.4690700
      4.3904370              0.3604550
SP   3   1.00
     11.6263580             -0.1149610              0.0675800
      2.7162800             -0.1691180              0.3239070
      0.7722180              1.1458520              0.7408950
SP   1   1.00
      0.2120313              1.0000000              1.0000000
D    1   1.00
      1.8260000              1.0000000
D    1   1.00
      0.4565000              1.0000000
F    1   1.00
      1.0000000              1.0000000
****
O     0
S    6   1.00
   5484.6717000              0.0018311
    825.2349500              0.0139501
    188.0469600              0.0684451
     52.9645000              0.2327143
     16.8975700              0.4701930
      5.7996353              0.3585209
SP   3   1.00
     15.5396160             -0.1107775              0.0708743
      3.5999336             -0.1480263              0.3397528
      1.0137618              1.1307670              0.7271586
SP   1   1.00
      0.2700058              1.0000000              1.0000000
D    1   1.00
      2.5840000              1.0000000
D    1   1.00
      0.6460000              1.0000000
F    1   1.00
      1.4000000              1.0000000
****
F     0
S    6   1.00
   7001.7130900              0.0018196169
   1051.3660900              0.0139160796
    239.2856900              0.0684053245
     67.3974453              0.233185760
     21.5199573              0.471267439
      7.40310130             0.356618546
SP   3   1.00
     20.8479528             -0.108506975            0.0716287243
      4.80830834            -0.146451658            0.3459121030
      1.34406986             1.128688580            0.7224699570
SP   1   1.00
      0.358151393            1.0000000              1.0000000
D    1   1.00
      3.5000000              1.0000000
D    1   1.00
      0.8750000              1.0000000
F    1   1.00
      1.8500000              1.0000000
****
Al     0
S    6   1.00
  13983.1000000              0.00194267
   2098.7500000              0.0148599
    477.7050000              0.0728494
    134.3600000              0.2468300
     42.8709000              0.4872580
     14.5189000              0.3234960
SP   6   1.00
    239.6680000             -0.00292619             0.00460285
     57.4419000             -0.0374080              0.0331990
     18.2859000             -0.1144870              0.1362820
      6.5991400              0.1156350              0.3304760
      2.4904900              0.6125950              0.4491460
      0.9445400              0.3937990              0.2657040
SP   3   1.00
      1.2779000             -0.2276060             -0.0175130
      0.3975900              0.00144583             0.2445330
      0.1600950              1.0927900              0.8049340
SP   1   1.00
      0.0556577              1.0000000              1.0000000
D    1   1.00
      0.6500000              1.0000000
D    1   1.00
      0.1625000              1.0000000
F    1   1.00
      0.2500000              1.0000000
****
Si     0
S    6   1.00
  16115.9000000              0.00195948
   2425.5800000              0.01492880
    553.8670000              0.07284780
    156.3400000              0.24613000
     50.0683000              0.48591400
     17.0178000              0.32500200
SP   6   1.00
    292.7180000             -0.00278094             0.00443826
     69.8731000             -0.03571460             0.03266790
     22.3363000             -0.11498500             0.13472100
      8.1503900              0.09356340             0.32867800
      3.1345800              0.60301700             0.44964000
      1.2254300              0.41895900             0.26137200
SP   3   1.00
      1.7273800             -0.24463000            -0.01779510
      0.5729220              0.00431572             0.25353900
      0.2221920              1.09818000             0.80066900
SP   1   1.00
      0.0778369              1.00000000             1.00000000
D    1   1.00
      0.9000000              1.0000000
D    1   1.00
      0.2250000              1.0000000
F    1   1.00
      0.3200000              1.0000000
****
P     0
S    6   1.00
  19413.3000000              0.0018516
   2909.4200000              0.0142062
    661.3640000              0.0699995
    185.7590000              0.2400790
     59.1943000              0.4847620
     20.0310000              0.3352000
SP   6   1.00
    339.4780000             -0.00278217             0.00456462
     81.0101000             -0.0360499              0.03369360
     25.8780000             -0.1166310              0.13975500
      9.4522100              0.0968328              0.33936200
      3.6656600              0.6144180              0.45092100
      1.4674600              0.4037980              0.23858600
SP   3   1.00
      2.1562300             -0.2529230             -0.01776530
      0.7489970              0.0328517              0.27405800
      0.2831450              1.0812500              0.78542100
SP   1   1.00
      0.0998317              1.0000000              1.00000000
D    1   1.00
      1.1000000              1.0000000
D    1   1.00
      0.2750000              1.0000000
F    1   1.00
      0.4500000              1.0000000
****
S     0
S    6   1.00
  21917.1000000              0.0018690
   3301.4900000              0.0142300
    754.1460000              0.0696960
    212.7110000              0.2384870
     67.9896000              0.4833070
     23.0515000              0.3380740
SP   6   1.00
    423.7350000             -0.0023767              0.0040610
    100.7100000             -0.0316930              0.0306810
     32.1599000             -0.1133170              0.1304520
     11.8079000              0.0560900              0.3272050
      4.6311000              0.5922550              0.4528510
      1.8702500              0.4550060              0.2560420
SP   3   1.00
      2.6158400             -0.2503740             -0.0145110
      0.9221670              0.0669570              0.3102630
      0.3412870              1.0545100              0.7544830
SP   1   1.00
      0.1171670              1.0000000              1.0000000
D    1   1.00
      1.3000000              1.0000000
D    1   1.00
      0.3250000              1.0000000
F    1   1.00
      0.5500000              1.0000000
****
Cl     0
S    6   1.00
  25180.1000000              0.0018330
   3780.3500000              0.0140340
    860.4740000              0.0690970
    242.1450000              0.2374520
     77.3349000              0.4830340
     26.2470000              0.3398560
SP   6   1.00
    491.7650000             -0.0022974              0.0039894
    116.9840000             -0.0307140              0.0303180
     37.4153000             -0.1125280              0.1298800
     13.7834000              0.0450160              0.3279510
      5.4521500              0.5893530              0.4535270
      2.2258800              0.4652060              0.2521540
SP   3   1.00
      3.1864900             -0.2518300             -0.0142990
      1.1442700              0.0615890              0.3235720
      0.4203770              1.0601800              0.7435070
SP   1   1.00
      0.1426570              1.0000000              1.0000000
D    1   1.00
      1.5000000              1.0000000
D    1   1.00
      0.3750000              1.0000000
F    1   1.00
      0.7000000              1.0000000
****
}

set {
reference uhf
freeze_core true
e_convergence 10
d_convergence 10
dft_spherical_points 1202
dft_radial_points 99
}

e = energy('b3lyp')

print_out('Grab this energy {0}'.format(e))
--------------------------------------------------------------------------

    Molecular point group: c1

    Geometry (in Bohr), charge = 0, multiplicity = 2:

       Center              X                  Y                   Z               Mass
    ------------   -----------------  -----------------  -----------------  -----------------
         C           -0.323661247325    -0.000003191092     0.003982087613    12.000000000000
         C            0.061383725575    -1.404048787292    -2.432142753387    12.000000000000
         C            0.061135788475     2.807200679008    -0.000263627587    12.000000000000
         C            0.061128827075    -1.403146576192     2.430052836813    12.000000000000
         H            2.086999864975    -1.647217150392    -2.855218682687     1.007825032230
         H           -0.765221739925    -0.391432313492    -4.033246192887     1.007825032230
         H           -0.766224141425    -3.294861907892    -2.355962977987     1.007825032230
         H            2.087066105775     3.294694168508    -0.002370553287     1.007825032230
         H           -0.766672357825     3.685392963008     1.674781671313     1.007825032230
         H           -0.764996795725     3.687108783408    -1.678989312287     1.007825032230
         H            2.087413261175    -1.647569457092     2.851087808013     1.007825032230
         H           -0.765290680325    -3.295800148792     2.352026602213     1.007825032230
         H           -0.765963829325    -0.390340232492     4.028500849713     1.007825032230

  Charge       = 0
  Multiplicity = 2
  Basis Set: ANONYMOUSCF919994
    Blend: 6-31G_2DFP_
  Basis Set: (ANONYMOUSCF919994 AUX)
    Blend: DEF2-UNIVERSAL-JKFIT

    Orbital Energies [Eh]
    ---------------------

    Alpha Occupied:

       1A    -10.181113     2A    -10.167411     3A    -10.167381
       4A    -10.167335     5A     -0.796724     6A     -0.686075
       7A     -0.685699     8A     -0.530777     9A     -0.440538
      10A     -0.434403    11A     -0.433976    12A     -0.382643
      13A     -0.382410    14A     -0.363726    15A     -0.338329
      16A     -0.337291    17A     -0.169285

    Alpha Virtual:

      18A      0.076102    19A      0.134099    20A      0.134131
      21A      0.142246    22A      0.142603    23A      0.154818
      24A      0.178597    25A      0.178609    26A      0.202434
      27A      0.214458    28A      0.275160    29A      0.275746
      30A      0.399130    31A      0.399367    32A      0.403548
      33A      0.424382    34A      0.424383    35A      0.456030
      36A      0.495116    37A      0.495212    38A      0.511827
      39A      0.513568    40A      0.577915    41A      0.578320
      42A      0.591083    43A      0.591113    44A      0.602126
      45A      0.624344    46A      0.631421    47A      0.635310
      48A      0.635606    49A      0.662866    50A      0.662999
      51A      0.683361    52A      0.683462    53A      0.735194
      54A      0.825454    55A      0.825668    56A      0.852911
      57A      0.914186    58A      0.914408    59A      0.942802
      60A      0.945189    61A      0.960163    62A      0.960508
      63A      1.002335    64A      1.126957    65A      1.127440
      66A      1.141922    67A      1.162107    68A      1.162870
      69A      1.222439    70A      1.273115    71A      1.274056
      72A      1.278832    73A      1.323924    74A      1.324116
      75A      1.355823    76A      1.363959    77A      1.364509
      78A      1.390928    79A      1.404274    80A      1.404354
      81A      1.416449    82A      1.417067    83A      1.426496
      84A      1.490295    85A      1.498508    86A      1.542087
      87A      1.542101    88A      1.573259    89A      1.573303
      90A      1.669895    91A      1.738583    92A      1.738992
      93A      1.766802    94A      1.829926    95A      1.830460
      96A      1.970362    97A      2.016012    98A      2.017363
      99A      2.018508   100A      2.047670   101A      2.048716
     102A      2.737644   103A      2.738122   104A      2.789763
     105A      2.808701   106A      2.888216   107A      2.889353
     108A      2.893414   109A      2.928948   110A      2.929707
     111A      2.958754   112A      2.964533   113A      2.964828
     114A      3.034030   115A      3.069858   116A      3.070848
     117A      3.082780   118A      3.167829   119A      3.167981
     120A      3.178806   121A      3.284497   122A      3.285074
     123A      3.326366   124A      3.327112   125A      3.376962
     126A      3.487823   127A      3.488867   128A      3.513241
     129A      3.522987   130A      3.568240   131A      3.568687
     132A      3.573036   133A      3.666127   134A      3.666729
     135A      3.677735   136A      3.692659   137A      3.692717
     138A      3.771606   139A      3.773052   140A      3.788458
     141A      3.909677   142A      3.910599   143A      4.032600
     144A      4.108121   145A      4.108824   146A      4.146451
     147A      4.148393   148A      4.172048   149A      4.200127
     150A      4.200882   151A      4.201702   152A      4.209261
     153A      4.313886   154A      4.314980   155A      4.356490
     156A      4.422330   157A      4.422457   158A      4.441028
     159A      4.513739   160A      4.513990   161A      4.574347
     162A      4.574774   163A      4.610571   164A      4.704698
     165A      4.767618   166A      4.768739   167A      4.832935
     168A      4.959810   169A      5.001117   170A      5.001612
     171A      5.227028   172A      5.245382   173A      5.245433
     174A      5.352353   175A      5.353460   176A      5.473648

    Beta Occupied:

       1A    -10.168162     2A    -10.168137     3A    -10.168109
       4A    -10.167259     5A     -0.780072     6A     -0.683886
       7A     -0.683534     8A     -0.511648     9A     -0.430795
      10A     -0.430374    11A     -0.421322    12A     -0.376724
      13A     -0.376573    14A     -0.362721    15A     -0.333457
      16A     -0.332400

    Beta Virtual:

      17A     -0.025775    18A      0.077099    19A      0.135010
      20A      0.135012    21A      0.144099    22A      0.144435
      23A      0.163234    24A      0.182230    25A      0.182266
      26A      0.214680    27A      0.217996    28A      0.281612
      29A      0.282128    30A      0.400270    31A      0.400502
      32A      0.420091    33A      0.427192    34A      0.427214
      35A      0.467584    36A      0.497359    37A      0.497461
      38A      0.513546    39A      0.555982    40A      0.583440
      41A      0.583887    42A      0.597333    43A      0.597338
      44A      0.609514    45A      0.627659    46A      0.631567
      47A      0.638511    48A      0.638834    49A      0.666475
      50A      0.666598    51A      0.685916    52A      0.686020
      53A      0.757894    54A      0.830610    55A      0.830816
      56A      0.854227    57A      0.922116    58A      0.922393
      59A      0.944635    60A      0.954208    61A      0.965436
      62A      0.965797    63A      1.007653    64A      1.131019
      65A      1.131454    66A      1.155271    67A      1.167184
      68A      1.167933    69A      1.231270    70A      1.278727
      71A      1.279562    72A      1.284650    73A      1.328928
      74A      1.329097    75A      1.365208    76A      1.369258
      77A      1.369714    78A      1.391977    79A      1.407718
      80A      1.407905    81A      1.421446    82A      1.422053
      83A      1.426737    84A      1.491344    85A      1.508889
      86A      1.546546    87A      1.546570    88A      1.581079
      89A      1.581089    90A      1.674734    91A      1.744338
      92A      1.744754    93A      1.777559    94A      1.833749
      95A      1.834312    96A      1.971217    97A      2.023767
      98A      2.024885    99A      2.037321   100A      2.054372
     101A      2.055390   102A      2.746044   103A      2.746583
     104A      2.809109   105A      2.814918   106A      2.901202
     107A      2.902175   108A      2.923058   109A      2.931224
     110A      2.932078   111A      2.959806   112A      2.969020
     113A      2.969313   114A      3.041877   115A      3.079757
     116A      3.080595   117A      3.084578   118A      3.183558
     119A      3.183800   120A      3.186710   121A      3.289161
     122A      3.289657   123A      3.330244   124A      3.330993
     125A      3.384799   126A      3.490561   127A      3.491618
     128A      3.511619   129A      3.526084   130A      3.572862
     131A      3.581613   132A      3.581974   133A      3.671058
     134A      3.671494   135A      3.691046   136A      3.724355
     137A      3.724649   138A      3.776110   139A      3.777535
     140A      3.817112   141A      3.919492   142A      3.920410
     143A      4.043557   144A      4.115258   145A      4.115866
     146A      4.153499   147A      4.155395   148A      4.185993
     149A      4.206204   150A      4.206994   151A      4.209290
     152A      4.213665   153A      4.321231   154A      4.322452
     155A      4.359873   156A      4.430443   157A      4.430559
     158A      4.443902   159A      4.521357   160A      4.521700
     161A      4.584904   162A      4.585351   163A      4.617807
     164A      4.714963   165A      4.774533   166A      4.775726
     167A      4.835854   168A      4.964580   169A      5.005133
     170A      5.005598   171A      5.232705   172A      5.247160
     173A      5.247200   174A      5.358754   175A      5.359912
     176A      5.475948

    Final Occupation by Irrep:
              A
    DOCC [    16 ]
    SOCC [     1 ]

  @DF-UKS Final Energy:  -157.81306543165311

   => Energetics <=

    Nuclear Repulsion Energy =            125.2137310387149682
    One-Electron Energy =                -458.3927178273511345
    Two-Electron Energy =                 195.6692750067493876
    DFT Exchange-Correlation Energy =     -20.3033536497663434
    Empirical Dispersion Energy =           0.0000000000000000
    VV10 Nonlocal Energy =                  0.0000000000000000
    Total Energy =                       -157.8130654316531150

  UHF NO Occupations:
  HONO-2 :   15  A 1.9996026
  HONO-1 :   16  A 1.9989734
  HONO-0 :   17  A 1.0000000
  LUNO+0 :   18  A 0.0010266
  LUNO+1 :   19  A 0.0003974
  LUNO+2 :   20  A 0.0002008
  LUNO+3 :   21  A 0.0001987

Computation Completed

Properties will be evaluated at   0.000000,   0.000000,   0.000000 [a0]

Properties computed using the SCF density matrix

  Nuclear Dipole Moment: [e a0]
     X:     0.8270      Y:    -0.0000      Z:    -0.0096

  Electronic Dipole Moment: [e a0]
     X:    -0.7483      Y:     0.0000      Z:     0.0109

  Dipole Moment: [e a0]
     X:     0.0788      Y:     0.0000      Z:     0.0012     Total:     0.0788

  Dipole Moment: [D]
     X:     0.2002      Y:     0.0000      Z:     0.0032     Total:     0.2003

*** tstop() called on n091 at Fri Nov  5 14:02:12 2021
Module time:
	user time   =     632.19 seconds =      10.54 minutes
	system time =       5.81 seconds =       0.10 minutes
	total time  =        160 seconds =       2.67 minutes
Total time:
	user time   =     632.19 seconds =      10.54 minutes
	system time =       5.81 seconds =       0.10 minutes
	total time  =        160 seconds =       2.67 minutes
Grab this energy -157.81306543165311
    Psi4 stopped on: Friday, 05 November 2021 02:02PM
    Psi4 wall time for execution: 0:02:40.25

*** Psi4 exiting successfully. Buy a developer a beer!
