                               Psi4 1.4a2.dev629

  ==> Input File <==

--------------------------------------------------------------------------
import os
memory 14 GB

molecule {
 C   -0.3233407866   -0.0004987838    0.0000031379
 C    0.0604530104   -1.4011488953   -2.4262793263
 C    0.0623959693    2.8016629183    0.0000497991
 C    0.0604506605   -1.4012294192    2.4262339599
 H    2.0889968304   -1.6400718182   -2.8494784739
 H   -0.7714037934   -0.3914096651   -4.0243945086
 H   -0.7614742170   -3.2918400317   -2.3483839078
 H    2.0826695952    3.2885881643    0.0046407013
 H   -0.7677491217    3.6804345081    1.6776335539
 H   -0.7597192543    3.6799714639   -1.6816129675
 H    2.0889923382   -1.6481488755    2.8448205106
 H   -0.7694913762   -3.2886116243    2.3507661005
 H   -0.7633877316   -0.3877222550    4.0260014209
units bohr
0 2
}

basis {

assign 6-31g_2dfp_

[ 6-31g_2dfp_ ]

spherical

!----------------------------------------------------------------------
! Basis Set Exchange
! Version v0.8.13
! https://www.basissetexchange.org
!----------------------------------------------------------------------
!   Basis set: 6-31G(2df,p)
! Description: 6-31G(2df,p)
!        Role: orbital
!     Version: 0  (Data from the original Basis Set Exchange)
!----------------------------------------------------------------------

****
H     0
S    3   1.00
     18.7311370              0.03349460
      2.8253937              0.23472695
      0.6401217              0.81375733
S    1   1.00
      0.1612778              1.00000000
P    1   1.00
      1.5000000              1.0000000
P    1   1.00
      0.3750000              1.0000000
****
B     0
S    6   1.00
   2068.8823000              0.0018663
    310.6495700              0.0142515
     70.6830330              0.0695516
     19.8610800              0.2325729
      6.2993048              0.4670787
      2.1270270              0.3634314
SP   3   1.00
      4.7279710             -0.1303938              0.0745976
      1.1903377             -0.1307889              0.3078467
      0.3594117              1.1309444              0.7434568
SP   1   1.00
      0.1267512              1.0000000              1.0000000
D    1   1.00
      0.8020000              1.0000000
D    1   1.00
      0.2005000              1.0000000
F    1   1.00
      0.5000000              1.0000000
****
C     0
S    6   1.00
   3047.5249000              0.0018347
    457.3695100              0.0140373
    103.9486900              0.0688426
     29.2101550              0.2321844
      9.2866630              0.4679413
      3.1639270              0.3623120
SP   3   1.00
      7.8682724             -0.1193324              0.0689991
      1.8812885             -0.1608542              0.3164240
      0.5442493              1.1434564              0.7443083
SP   1   1.00
      0.1687144              1.0000000              1.0000000
D    1   1.00
      1.2520000              1.0000000
D    1   1.00
      0.3130000              1.0000000
F    1   1.00
      0.8000000              1.0000000
****
N     0
S    6   1.00
   4173.5110000              0.0018348
    627.4579000              0.0139950
    142.9021000              0.0685870
     40.2343300              0.2322410
     12.8202100              0.4690700
      4.3904370              0.3604550
SP   3   1.00
     11.6263580             -0.1149610              0.0675800
      2.7162800             -0.1691180              0.3239070
      0.7722180              1.1458520              0.7408950
SP   1   1.00
      0.2120313              1.0000000              1.0000000
D    1   1.00
      1.8260000              1.0000000
D    1   1.00
      0.4565000              1.0000000
F    1   1.00
      1.0000000              1.0000000
****
O     0
S    6   1.00
   5484.6717000              0.0018311
    825.2349500              0.0139501
    188.0469600              0.0684451
     52.9645000              0.2327143
     16.8975700              0.4701930
      5.7996353              0.3585209
SP   3   1.00
     15.5396160             -0.1107775              0.0708743
      3.5999336             -0.1480263              0.3397528
      1.0137618              1.1307670              0.7271586
SP   1   1.00
      0.2700058              1.0000000              1.0000000
D    1   1.00
      2.5840000              1.0000000
D    1   1.00
      0.6460000              1.0000000
F    1   1.00
      1.4000000              1.0000000
****
F     0
S    6   1.00
   7001.7130900              0.0018196169
   1051.3660900              0.0139160796
    239.2856900              0.0684053245
     67.3974453              0.233185760
     21.5199573              0.471267439
      7.40310130             0.356618546
SP   3   1.00
     20.8479528             -0.108506975            0.0716287243
      4.80830834            -0.146451658            0.3459121030
      1.34406986             1.128688580            0.7224699570
SP   1   1.00
      0.358151393            1.0000000              1.0000000
D    1   1.00
      3.5000000              1.0000000
D    1   1.00
      0.8750000              1.0000000
F    1   1.00
      1.8500000              1.0000000
****
Al     0
S    6   1.00
  13983.1000000              0.00194267
   2098.7500000              0.0148599
    477.7050000              0.0728494
    134.3600000              0.2468300
     42.8709000              0.4872580
     14.5189000              0.3234960
SP   6   1.00
    239.6680000             -0.00292619             0.00460285
     57.4419000             -0.0374080              0.0331990
     18.2859000             -0.1144870              0.1362820
      6.5991400              0.1156350              0.3304760
      2.4904900              0.6125950              0.4491460
      0.9445400              0.3937990              0.2657040
SP   3   1.00
      1.2779000             -0.2276060             -0.0175130
      0.3975900              0.00144583             0.2445330
      0.1600950              1.0927900              0.8049340
SP   1   1.00
      0.0556577              1.0000000              1.0000000
D    1   1.00
      0.6500000              1.0000000
D    1   1.00
      0.1625000              1.0000000
F    1   1.00
      0.2500000              1.0000000
****
Si     0
S    6   1.00
  16115.9000000              0.00195948
   2425.5800000              0.01492880
    553.8670000              0.07284780
    156.3400000              0.24613000
     50.0683000              0.48591400
     17.0178000              0.32500200
SP   6   1.00
    292.7180000             -0.00278094             0.00443826
     69.8731000             -0.03571460             0.03266790
     22.3363000             -0.11498500             0.13472100
      8.1503900              0.09356340             0.32867800
      3.1345800              0.60301700             0.44964000
      1.2254300              0.41895900             0.26137200
SP   3   1.00
      1.7273800             -0.24463000            -0.01779510
      0.5729220              0.00431572             0.25353900
      0.2221920              1.09818000             0.80066900
SP   1   1.00
      0.0778369              1.00000000             1.00000000
D    1   1.00
      0.9000000              1.0000000
D    1   1.00
      0.2250000              1.0000000
F    1   1.00
      0.3200000              1.0000000
****
P     0
S    6   1.00
  19413.3000000              0.0018516
   2909.4200000              0.0142062
    661.3640000              0.0699995
    185.7590000              0.2400790
     59.1943000              0.4847620
     20.0310000              0.3352000
SP   6   1.00
    339.4780000             -0.00278217             0.00456462
     81.0101000             -0.0360499              0.03369360
     25.8780000             -0.1166310              0.13975500
      9.4522100              0.0968328              0.33936200
      3.6656600              0.6144180              0.45092100
      1.4674600              0.4037980              0.23858600
SP   3   1.00
      2.1562300             -0.2529230             -0.01776530
      0.7489970              0.0328517              0.27405800
      0.2831450              1.0812500              0.78542100
SP   1   1.00
      0.0998317              1.0000000              1.00000000
D    1   1.00
      1.1000000              1.0000000
D    1   1.00
      0.2750000              1.0000000
F    1   1.00
      0.4500000              1.0000000
****
S     0
S    6   1.00
  21917.1000000              0.0018690
   3301.4900000              0.0142300
    754.1460000              0.0696960
    212.7110000              0.2384870
     67.9896000              0.4833070
     23.0515000              0.3380740
SP   6   1.00
    423.7350000             -0.0023767              0.0040610
    100.7100000             -0.0316930              0.0306810
     32.1599000             -0.1133170              0.1304520
     11.8079000              0.0560900              0.3272050
      4.6311000              0.5922550              0.4528510
      1.8702500              0.4550060              0.2560420
SP   3   1.00
      2.6158400             -0.2503740             -0.0145110
      0.9221670              0.0669570              0.3102630
      0.3412870              1.0545100              0.7544830
SP   1   1.00
      0.1171670              1.0000000              1.0000000
D    1   1.00
      1.3000000              1.0000000
D    1   1.00
      0.3250000              1.0000000
F    1   1.00
      0.5500000              1.0000000
****
Cl     0
S    6   1.00
  25180.1000000              0.0018330
   3780.3500000              0.0140340
    860.4740000              0.0690970
    242.1450000              0.2374520
     77.3349000              0.4830340
     26.2470000              0.3398560
SP   6   1.00
    491.7650000             -0.0022974              0.0039894
    116.9840000             -0.0307140              0.0303180
     37.4153000             -0.1125280              0.1298800
     13.7834000              0.0450160              0.3279510
      5.4521500              0.5893530              0.4535270
      2.2258800              0.4652060              0.2521540
SP   3   1.00
      3.1864900             -0.2518300             -0.0142990
      1.1442700              0.0615890              0.3235720
      0.4203770              1.0601800              0.7435070
SP   1   1.00
      0.1426570              1.0000000              1.0000000
D    1   1.00
      1.5000000              1.0000000
D    1   1.00
      0.3750000              1.0000000
F    1   1.00
      0.7000000              1.0000000
****
}

set {
reference uhf
freeze_core true
e_convergence 10
d_convergence 10
dft_spherical_points 1202
dft_radial_points 99
}

e = energy('b3lyp')

print_out('Grab this energy {0}'.format(e))
--------------------------------------------------------------------------

    Molecular point group: c1

    Geometry (in Bohr), charge = 0, multiplicity = 2:

       Center              X                  Y                   Z               Mass
    ------------   -----------------  -----------------  -----------------  -----------------
         C           -0.323340562874    -0.000264494627     0.000001679748    12.000000000000
         C            0.060453234126    -1.400914606127    -2.426280784452    12.000000000000
         C            0.062396193026     2.801897207473     0.000048340948    12.000000000000
         C            0.060450884226    -1.400995130027     2.426232501748    12.000000000000
         H            2.088997054126    -1.639837529027    -2.849479932052     1.007825032230
         H           -0.771403569674    -0.391175375927    -4.024395966752     1.007825032230
         H           -0.761473993274    -3.291605742527    -2.348385365952     1.007825032230
         H            2.082669818926     3.288822453473     0.004639243148     1.007825032230
         H           -0.767748897974     3.680668797273     1.677632095748     1.007825032230
         H           -0.759719030574     3.680205753073    -1.681614425652     1.007825032230
         H            2.088992561926    -1.647914586327     2.844819052448     1.007825032230
         H           -0.769491152474    -3.288377335127     2.350764642348     1.007825032230
         H           -0.763387507874    -0.387487965827     4.025999962748     1.007825032230

  Charge       = 0
  Multiplicity = 2
  Basis Set: ANONYMOUSE2AAF70D
    Blend: 6-31G_2DFP_
  Basis Set: (ANONYMOUSE2AAF70D AUX)
    Blend: DEF2-UNIVERSAL-JKFIT

    Orbital Energies [Eh]
    ---------------------

    Alpha Occupied:

       1A    -10.180342     2A    -10.167043     3A    -10.167025
       4A    -10.166976     5A     -0.797766     6A     -0.686189
       7A     -0.686186     8A     -0.530777     9A     -0.441126
      10A     -0.434690    11A     -0.434650    12A     -0.382622
      13A     -0.382574    14A     -0.363611    15A     -0.338032
      16A     -0.337967    17A     -0.168961

    Alpha Virtual:

      18A      0.076071    19A      0.133990    20A      0.134320
      21A      0.142566    22A      0.142688    23A      0.154881
      24A      0.178693    25A      0.178864    26A      0.203547
      27A      0.214802    28A      0.275911    29A      0.276061
      30A      0.399193    31A      0.399264    32A      0.403344
      33A      0.424013    34A      0.424182    35A      0.456592
      36A      0.495242    37A      0.495535    38A      0.512147
      39A      0.513995    40A      0.578646    41A      0.578986
      42A      0.591487    43A      0.591772    44A      0.602579
      45A      0.624761    46A      0.631758    47A      0.636159
      48A      0.636351    49A      0.663042    50A      0.663794
      51A      0.683680    52A      0.684027    53A      0.734995
      54A      0.825388    55A      0.825419    56A      0.853920
      57A      0.914807    58A      0.915239    59A      0.944011
      60A      0.944716    61A      0.961163    62A      0.961438
      63A      1.003463    64A      1.128067    65A      1.128152
      66A      1.142215    67A      1.163152    68A      1.163393
      69A      1.223326    70A      1.274339    71A      1.274617
      72A      1.279368    73A      1.324310    74A      1.324406
      75A      1.355944    76A      1.366020    77A      1.366075
      78A      1.392469    79A      1.403592    80A      1.404527
      81A      1.416595    82A      1.417639    83A      1.427908
      84A      1.491463    85A      1.499101    86A      1.542368
      87A      1.543306    88A      1.574283    89A      1.574602
      90A      1.669820    91A      1.739277    92A      1.739520
      93A      1.768353    94A      1.830595    95A      1.832198
      96A      1.971711    97A      2.018178    98A      2.018615
      99A      2.019603   100A      2.051699   101A      2.053604
     102A      2.738076   103A      2.738896   104A      2.790918
     105A      2.811425   106A      2.889914   107A      2.889968
     108A      2.894969   109A      2.929491   110A      2.929502
     111A      2.958996   112A      2.964056   113A      2.964694
     114A      3.034016   115A      3.071246   116A      3.071310
     117A      3.084364   118A      3.168550   119A      3.169010
     120A      3.180600   121A      3.284990   122A      3.285640
     123A      3.326947   124A      3.327371   125A      3.375628
     126A      3.490010   127A      3.490311   128A      3.513998
     129A      3.525332   130A      3.568292   131A      3.568492
     132A      3.575162   133A      3.665682   134A      3.667094
     135A      3.679649   136A      3.693995   137A      3.694261
     138A      3.776768   139A      3.776835   140A      3.789126
     141A      3.912122   142A      3.912328   143A      4.034441
     144A      4.110920   145A      4.111802   146A      4.147526
     147A      4.148674   148A      4.173229   149A      4.201721
     150A      4.203289   151A      4.203745   152A      4.210922
     153A      4.315145   154A      4.316842   155A      4.358978
     156A      4.424136   157A      4.424799   158A      4.443423
     159A      4.516142   160A      4.517549   161A      4.578138
     162A      4.578393   163A      4.617558   164A      4.709444
     165A      4.774136   166A      4.775045   167A      4.836897
     168A      4.962867   169A      5.002198   170A      5.003693
     171A      5.228009   172A      5.244722   173A      5.248884
     174A      5.354295   175A      5.356772   176A      5.479375

    Beta Occupied:

       1A    -10.167797     2A    -10.167784     3A    -10.167743
       4A    -10.166519     5A     -0.781091     6A     -0.683994
       7A     -0.683987     8A     -0.511749     9A     -0.431059
      10A     -0.431027    11A     -0.421819    12A     -0.376728
      13A     -0.376638    14A     -0.362595    15A     -0.333147
      16A     -0.333097

    Beta Virtual:

      17A     -0.025743    18A      0.077080    19A      0.134890
      20A      0.135201    21A      0.144462    22A      0.144532
      23A      0.163337    24A      0.182345    25A      0.182554
      26A      0.215031    27A      0.218931    28A      0.282256
      29A      0.282412    30A      0.400364    31A      0.400432
      32A      0.419791    33A      0.426824    34A      0.426994
      35A      0.468500    36A      0.497497    37A      0.497802
      38A      0.513895    39A      0.556326    40A      0.584211
      41A      0.584521    42A      0.597644    43A      0.597977
      44A      0.609999    45A      0.628137    46A      0.631923
      47A      0.639435    48A      0.639637    49A      0.666638
      50A      0.667327    51A      0.686333    52A      0.686644
      53A      0.757518    54A      0.830554    55A      0.830589
      56A      0.855274    57A      0.922792    58A      0.923197
      59A      0.945944    60A      0.953549    61A      0.966440
      62A      0.966772    63A      1.008704    64A      1.132120
      65A      1.132154    66A      1.155592    67A      1.168189
      68A      1.168506    69A      1.232298    70A      1.279925
      71A      1.280224    72A      1.285124    73A      1.329302
      74A      1.329393    75A      1.365349    76A      1.371272
      77A      1.371312    78A      1.393534    79A      1.407013
      80A      1.408039    81A      1.421629    82A      1.422708
      83A      1.428176    84A      1.492525    85A      1.509530
      86A      1.546790    87A      1.547697    88A      1.582172
      89A      1.582459    90A      1.674667    91A      1.745038
      92A      1.745289    93A      1.779126    94A      1.834444
      95A      1.836060    96A      1.972572    97A      2.024979
      98A      2.025911    99A      2.039675   100A      2.058457
     101A      2.060282   102A      2.746421   103A      2.747223
     104A      2.811790   105A      2.816101   106A      2.902573
     107A      2.902707   108A      2.924653   109A      2.931940
     110A      2.932012   111A      2.960059   112A      2.968588
     113A      2.969257   114A      3.041949   115A      3.081044
     116A      3.081313   117A      3.086202   118A      3.184183
     119A      3.184871   120A      3.188288   121A      3.289777
     122A      3.290448   123A      3.330730   124A      3.331200
     125A      3.383445   126A      3.492780   127A      3.493003
     128A      3.512369   129A      3.528373   130A      3.575001
     131A      3.581588   132A      3.581895   133A      3.670378
     134A      3.671894   135A      3.692944   136A      3.725611
     137A      3.725906   138A      3.781296   139A      3.781363
     140A      3.817667   141A      3.921916   142A      3.922167
     143A      4.045328   144A      4.117753   145A      4.118597
     146A      4.154794   147A      4.155830   148A      4.187280
     149A      4.208021   150A      4.209738   151A      4.210847
     152A      4.215398   153A      4.322585   154A      4.324280
     155A      4.362341   156A      4.432351   157A      4.433014
     158A      4.446303   159A      4.523931   160A      4.525342
     161A      4.588726   162A      4.589007   163A      4.624752
     164A      4.719789   165A      4.781089   166A      4.781999
     167A      4.839813   168A      4.967663   169A      5.006256
     170A      5.007714   171A      5.233724   172A      5.246518
     173A      5.250658   174A      5.360765   175A      5.363262
     176A      5.481696

    Final Occupation by Irrep:
              A
    DOCC [    16 ]
    SOCC [     1 ]

  @DF-UKS Final Energy:  -157.81306333821567

   => Energetics <=

    Nuclear Repulsion Energy =            125.3946131095438261
    One-Electron Energy =                -458.7488730172937039
    Two-Electron Energy =                 195.8483413691817816
    DFT Exchange-Correlation Energy =     -20.3071447996475314
    Empirical Dispersion Energy =           0.0000000000000000
    VV10 Nonlocal Energy =                  0.0000000000000000
    Total Energy =                       -157.8130633382156702

  UHF NO Occupations:
  HONO-2 :   15  A 1.9996009
  HONO-1 :   16  A 1.9989805
  HONO-0 :   17  A 1.0000000
  LUNO+0 :   18  A 0.0010195
  LUNO+1 :   19  A 0.0003991
  LUNO+2 :   20  A 0.0001975
  LUNO+3 :   21  A 0.0001975

Computation Completed

Properties will be evaluated at   0.000000,   0.000000,   0.000000 [a0]

Properties computed using the SCF density matrix

  Nuclear Dipole Moment: [e a0]
     X:     0.8272      Y:     0.0016      Z:    -0.0000

  Electronic Dipole Moment: [e a0]
     X:    -0.7493      Y:    -0.0023      Z:     0.0000

  Dipole Moment: [e a0]
     X:     0.0779      Y:    -0.0006      Z:     0.0000     Total:     0.0779

  Dipole Moment: [D]
     X:     0.1980      Y:    -0.0017      Z:     0.0000     Total:     0.1980

*** tstop() called on n073 at Fri Nov  5 14:20:05 2021
Module time:
	user time   =     532.10 seconds =       8.87 minutes
	system time =      12.38 seconds =       0.21 minutes
	total time  =        137 seconds =       2.28 minutes
Total time:
	user time   =     532.10 seconds =       8.87 minutes
	system time =      12.38 seconds =       0.21 minutes
	total time  =        137 seconds =       2.28 minutes
Grab this energy -157.81306333821567
    Psi4 stopped on: Friday, 05 November 2021 02:20PM
    Psi4 wall time for execution: 0:02:17.01

*** Psi4 exiting successfully. Buy a developer a beer!
