                               Psi4 1.4a2.dev629

  ==> Input File <==

--------------------------------------------------------------------------
import os
memory 14 GB

molecule {
 C   -0.3233340563   -0.0055053516   -0.0000000000
 C    0.0601508434   -1.3984952638   -2.4323662587
 C    0.0630008072    2.7937417618    0.0000000000
 C    0.0601508434   -1.3984952638    2.4323662587
 H    2.0886088057   -1.6380358437   -2.8559207829
 H   -0.7703154920   -0.3811021356   -4.0270532006
 H   -0.7636297274   -3.2884809999   -2.3627137721
 H    2.0834541147    3.2794269795    0.0000000000
 H   -0.7626788008    3.6722703914    1.6794320924
 H   -0.7626788008    3.6722703914   -1.6794320924
 H    2.0886088057   -1.6380358437    2.8559207829
 H   -0.7636297274   -3.2884809999    2.3627137721
 H   -0.7703154920   -0.3811021356    4.0270532006
units bohr
0 2
}

basis {

assign 6-31g_2dfp_

[ 6-31g_2dfp_ ]

spherical

!----------------------------------------------------------------------
! Basis Set Exchange
! Version v0.8.13
! https://www.basissetexchange.org
!----------------------------------------------------------------------
!   Basis set: 6-31G(2df,p)
! Description: 6-31G(2df,p)
!        Role: orbital
!     Version: 0  (Data from the original Basis Set Exchange)
!----------------------------------------------------------------------

****
H     0
S    3   1.00
     18.7311370              0.03349460
      2.8253937              0.23472695
      0.6401217              0.81375733
S    1   1.00
      0.1612778              1.00000000
P    1   1.00
      1.5000000              1.0000000
P    1   1.00
      0.3750000              1.0000000
****
B     0
S    6   1.00
   2068.8823000              0.0018663
    310.6495700              0.0142515
     70.6830330              0.0695516
     19.8610800              0.2325729
      6.2993048              0.4670787
      2.1270270              0.3634314
SP   3   1.00
      4.7279710             -0.1303938              0.0745976
      1.1903377             -0.1307889              0.3078467
      0.3594117              1.1309444              0.7434568
SP   1   1.00
      0.1267512              1.0000000              1.0000000
D    1   1.00
      0.8020000              1.0000000
D    1   1.00
      0.2005000              1.0000000
F    1   1.00
      0.5000000              1.0000000
****
C     0
S    6   1.00
   3047.5249000              0.0018347
    457.3695100              0.0140373
    103.9486900              0.0688426
     29.2101550              0.2321844
      9.2866630              0.4679413
      3.1639270              0.3623120
SP   3   1.00
      7.8682724             -0.1193324              0.0689991
      1.8812885             -0.1608542              0.3164240
      0.5442493              1.1434564              0.7443083
SP   1   1.00
      0.1687144              1.0000000              1.0000000
D    1   1.00
      1.2520000              1.0000000
D    1   1.00
      0.3130000              1.0000000
F    1   1.00
      0.8000000              1.0000000
****
N     0
S    6   1.00
   4173.5110000              0.0018348
    627.4579000              0.0139950
    142.9021000              0.0685870
     40.2343300              0.2322410
     12.8202100              0.4690700
      4.3904370              0.3604550
SP   3   1.00
     11.6263580             -0.1149610              0.0675800
      2.7162800             -0.1691180              0.3239070
      0.7722180              1.1458520              0.7408950
SP   1   1.00
      0.2120313              1.0000000              1.0000000
D    1   1.00
      1.8260000              1.0000000
D    1   1.00
      0.4565000              1.0000000
F    1   1.00
      1.0000000              1.0000000
****
O     0
S    6   1.00
   5484.6717000              0.0018311
    825.2349500              0.0139501
    188.0469600              0.0684451
     52.9645000              0.2327143
     16.8975700              0.4701930
      5.7996353              0.3585209
SP   3   1.00
     15.5396160             -0.1107775              0.0708743
      3.5999336             -0.1480263              0.3397528
      1.0137618              1.1307670              0.7271586
SP   1   1.00
      0.2700058              1.0000000              1.0000000
D    1   1.00
      2.5840000              1.0000000
D    1   1.00
      0.6460000              1.0000000
F    1   1.00
      1.4000000              1.0000000
****
F     0
S    6   1.00
   7001.7130900              0.0018196169
   1051.3660900              0.0139160796
    239.2856900              0.0684053245
     67.3974453              0.233185760
     21.5199573              0.471267439
      7.40310130             0.356618546
SP   3   1.00
     20.8479528             -0.108506975            0.0716287243
      4.80830834            -0.146451658            0.3459121030
      1.34406986             1.128688580            0.7224699570
SP   1   1.00
      0.358151393            1.0000000              1.0000000
D    1   1.00
      3.5000000              1.0000000
D    1   1.00
      0.8750000              1.0000000
F    1   1.00
      1.8500000              1.0000000
****
Al     0
S    6   1.00
  13983.1000000              0.00194267
   2098.7500000              0.0148599
    477.7050000              0.0728494
    134.3600000              0.2468300
     42.8709000              0.4872580
     14.5189000              0.3234960
SP   6   1.00
    239.6680000             -0.00292619             0.00460285
     57.4419000             -0.0374080              0.0331990
     18.2859000             -0.1144870              0.1362820
      6.5991400              0.1156350              0.3304760
      2.4904900              0.6125950              0.4491460
      0.9445400              0.3937990              0.2657040
SP   3   1.00
      1.2779000             -0.2276060             -0.0175130
      0.3975900              0.00144583             0.2445330
      0.1600950              1.0927900              0.8049340
SP   1   1.00
      0.0556577              1.0000000              1.0000000
D    1   1.00
      0.6500000              1.0000000
D    1   1.00
      0.1625000              1.0000000
F    1   1.00
      0.2500000              1.0000000
****
Si     0
S    6   1.00
  16115.9000000              0.00195948
   2425.5800000              0.01492880
    553.8670000              0.07284780
    156.3400000              0.24613000
     50.0683000              0.48591400
     17.0178000              0.32500200
SP   6   1.00
    292.7180000             -0.00278094             0.00443826
     69.8731000             -0.03571460             0.03266790
     22.3363000             -0.11498500             0.13472100
      8.1503900              0.09356340             0.32867800
      3.1345800              0.60301700             0.44964000
      1.2254300              0.41895900             0.26137200
SP   3   1.00
      1.7273800             -0.24463000            -0.01779510
      0.5729220              0.00431572             0.25353900
      0.2221920              1.09818000             0.80066900
SP   1   1.00
      0.0778369              1.00000000             1.00000000
D    1   1.00
      0.9000000              1.0000000
D    1   1.00
      0.2250000              1.0000000
F    1   1.00
      0.3200000              1.0000000
****
P     0
S    6   1.00
  19413.3000000              0.0018516
   2909.4200000              0.0142062
    661.3640000              0.0699995
    185.7590000              0.2400790
     59.1943000              0.4847620
     20.0310000              0.3352000
SP   6   1.00
    339.4780000             -0.00278217             0.00456462
     81.0101000             -0.0360499              0.03369360
     25.8780000             -0.1166310              0.13975500
      9.4522100              0.0968328              0.33936200
      3.6656600              0.6144180              0.45092100
      1.4674600              0.4037980              0.23858600
SP   3   1.00
      2.1562300             -0.2529230             -0.01776530
      0.7489970              0.0328517              0.27405800
      0.2831450              1.0812500              0.78542100
SP   1   1.00
      0.0998317              1.0000000              1.00000000
D    1   1.00
      1.1000000              1.0000000
D    1   1.00
      0.2750000              1.0000000
F    1   1.00
      0.4500000              1.0000000
****
S     0
S    6   1.00
  21917.1000000              0.0018690
   3301.4900000              0.0142300
    754.1460000              0.0696960
    212.7110000              0.2384870
     67.9896000              0.4833070
     23.0515000              0.3380740
SP   6   1.00
    423.7350000             -0.0023767              0.0040610
    100.7100000             -0.0316930              0.0306810
     32.1599000             -0.1133170              0.1304520
     11.8079000              0.0560900              0.3272050
      4.6311000              0.5922550              0.4528510
      1.8702500              0.4550060              0.2560420
SP   3   1.00
      2.6158400             -0.2503740             -0.0145110
      0.9221670              0.0669570              0.3102630
      0.3412870              1.0545100              0.7544830
SP   1   1.00
      0.1171670              1.0000000              1.0000000
D    1   1.00
      1.3000000              1.0000000
D    1   1.00
      0.3250000              1.0000000
F    1   1.00
      0.5500000              1.0000000
****
Cl     0
S    6   1.00
  25180.1000000              0.0018330
   3780.3500000              0.0140340
    860.4740000              0.0690970
    242.1450000              0.2374520
     77.3349000              0.4830340
     26.2470000              0.3398560
SP   6   1.00
    491.7650000             -0.0022974              0.0039894
    116.9840000             -0.0307140              0.0303180
     37.4153000             -0.1125280              0.1298800
     13.7834000              0.0450160              0.3279510
      5.4521500              0.5893530              0.4535270
      2.2258800              0.4652060              0.2521540
SP   3   1.00
      3.1864900             -0.2518300             -0.0142990
      1.1442700              0.0615890              0.3235720
      0.4203770              1.0601800              0.7435070
SP   1   1.00
      0.1426570              1.0000000              1.0000000
D    1   1.00
      1.5000000              1.0000000
D    1   1.00
      0.3750000              1.0000000
F    1   1.00
      0.7000000              1.0000000
****
}

set {
reference uhf
freeze_core true
e_convergence 10
d_convergence 10
dft_spherical_points 1202
dft_radial_points 99
}

e = energy('b3lyp')

print_out('Grab this energy {0}'.format(e))
--------------------------------------------------------------------------

    Molecular point group: cs

    Geometry (in Bohr), charge = 0, multiplicity = 2:

       Center              X                  Y                   Z               Mass
    ------------   -----------------  -----------------  -----------------  -----------------
         C           -0.323335678544    -0.003818816176     0.000000000000    12.000000000000
         C            0.060149221156    -1.396808728376    -2.432366258700    12.000000000000
         C            0.062999184956     2.795428297224     0.000000000000    12.000000000000
         C            0.060149221156    -1.396808728376     2.432366258700    12.000000000000
         H            2.088607183456    -1.636349308276    -2.855920782900     1.007825032230
         H           -0.770317114244    -0.379415600176    -4.027053200600     1.007825032230
         H           -0.763631349644    -3.286794464476    -2.362713772100     1.007825032230
         H            2.083452492456     3.281113514924     0.000000000000     1.007825032230
         H           -0.762680423044     3.673956926824     1.679432092400     1.007825032230
         H           -0.762680423044     3.673956926824    -1.679432092400     1.007825032230
         H            2.088607183456    -1.636349308276     2.855920782900     1.007825032230
         H           -0.763631349644    -3.286794464476     2.362713772100     1.007825032230
         H           -0.770317114244    -0.379415600176     4.027053200600     1.007825032230

  Charge       = 0
  Multiplicity = 2
  Basis Set: ANONYMOUSD2B78DC7
    Blend: 6-31G_2DFP_
  Basis Set: (ANONYMOUSD2B78DC7 AUX)
    Blend: DEF2-UNIVERSAL-JKFIT

    Orbital Energies [Eh]
    ---------------------

    Alpha Occupied:

       1Ap   -10.180342     1App  -10.167199     2Ap   -10.167170
       3Ap   -10.166676     4Ap    -0.797769     2App   -0.686405
       5Ap    -0.685968     6Ap    -0.530778     7Ap    -0.441131
       3App   -0.434915     8Ap    -0.434423     4App   -0.382718
       9Ap    -0.382476     5App   -0.363609     6App   -0.338300
      10Ap    -0.337696    11Ap    -0.168961

    Alpha Virtual:

      12Ap     0.076070     7App    0.133750    13Ap     0.134560
       8App    0.142429    14Ap     0.142825    15Ap     0.154878
       9App    0.178473    16Ap     0.179087    17Ap     0.203546
      10App    0.214805    11App    0.275892    18Ap     0.276080
      12App    0.399126    19Ap     0.399256    20Ap     0.403427
      13App    0.423881    21Ap     0.424319    22Ap     0.456593
      14App    0.495128    23Ap     0.495645    15App    0.512174
      24Ap     0.513982    16App    0.578381    25Ap     0.579216
      17App    0.591481    26Ap     0.591800    27Ap     0.602580
      28Ap     0.624767    18App    0.631772    29Ap     0.636138
      19App    0.636362    20App    0.662824    30Ap     0.664014
      21App    0.683790    31Ap     0.683921    32Ap     0.734994
      22App    0.824603    33Ap     0.826194    23App    0.853907
      24App    0.914583    34Ap     0.915475    25App    0.944072
      35Ap     0.944482    36Ap     0.961314    26App    0.961505
      37Ap     1.003467    27App    1.126918    38Ap     1.129306
      39Ap     1.142222    28App    1.162668    40Ap     1.163877
      41Ap     1.223335    29App    1.273823    42Ap     1.275094
      43Ap     1.279432    44Ap     1.324308    30App    1.324386
      45Ap     1.355940    31App    1.365249    46Ap     1.366809
      32App    1.392394    33App    1.402868    47Ap     1.405374
      48Ap     1.417110    34App    1.417146    35App    1.427939
      36App    1.491429    49Ap     1.499047    37App    1.542051
      50Ap     1.543656    38App    1.572810    51Ap     1.576179
      52Ap     1.669819    39App    1.738220    53Ap     1.740473
      54Ap     1.768464    55Ap     1.831102    40App    1.831690
      41App    1.971745    42App    2.017174    56Ap     2.018260
      57Ap     2.020907    43App    2.049198    58Ap     2.056191
      44App    2.737813    59Ap     2.739157    60Ap     2.790925
      45App    2.811438    61Ap     2.889835    46App    2.890067
      62Ap     2.894941    47App    2.929317    63Ap     2.929677
      48App    2.958989    49App    2.963181    64Ap     2.965602
      65Ap     3.033998    50App    3.070264    66Ap     3.072313
      51App    3.084368    52App    3.168267    67Ap     3.169306
      68Ap     3.180587    69Ap     3.284293    53App    3.286345
      54App    3.326426    70Ap     3.327881    71Ap     3.375698
      55App    3.489750    72Ap     3.490501    56App    3.514037
      73Ap     3.525259    57App    3.567128    74Ap     3.569487
      58App    3.575440    59App    3.665566    75Ap     3.667186
      76Ap     3.679670    77Ap     3.693515    60App    3.694718
      78Ap     3.775783    61App    3.777670    79Ap     3.789346
      62App    3.910916    80Ap     3.913539    81Ap     4.034457
      63App    4.109560    82Ap     4.113164    64App    4.146969
      83Ap     4.149166    84Ap     4.173237    85Ap     4.202161
      65App    4.202177    86Ap     4.204553    66App    4.210895
      67App    4.315129    87Ap     4.316807    68App    4.359008
      88Ap     4.424264    69App    4.424562    70App    4.443547
      71App    4.515347    89Ap     4.518331    72App    4.577332
      90Ap     4.579206    91Ap     4.617558    92Ap     4.709477
      73App    4.772824    93Ap     4.776368    74App    4.836921
      94Ap     4.962863    75App    5.001210    95Ap     5.004711
      96Ap     5.227971    76App    5.244900    97Ap     5.248731
      77App    5.353581    98Ap     5.357503    78App    5.479346

    Beta Occupied:

       1App  -10.167952     1Ap   -10.167934     2Ap   -10.167439
       3Ap   -10.166518     4Ap    -0.781094     2App   -0.684217
       5Ap    -0.683762     6Ap    -0.511749     3App   -0.431301
       7Ap    -0.430791     8Ap    -0.421818     4App   -0.376792
       9Ap    -0.376573     5App   -0.362593     6App   -0.333420
      10Ap    -0.332821

    Beta Virtual:

      11Ap    -0.025743    12Ap     0.077079     7App    0.134640
      13Ap     0.135452     8App    0.144331    14Ap     0.144664
      15Ap     0.163337     9App    0.182116    16Ap     0.182788
      10App    0.215035    17Ap     0.218928    11App    0.282231
      18Ap     0.282436    12App    0.400317    19Ap     0.400471
      20Ap     0.419805    13App    0.426677    21Ap     0.427145
      22Ap     0.468502    14App    0.497391    23Ap     0.497903
      15App    0.513910    24Ap     0.556327    16App    0.583976
      25Ap     0.584723    17App    0.597623    26Ap     0.598020
      27Ap     0.609989    28Ap     0.628153    18App    0.631931
      29Ap     0.639406    19App    0.639663    20App    0.666392
      30Ap     0.667571    21App    0.686357    31Ap     0.686627
      32Ap     0.757517    22App    0.829763    33Ap     0.831370
      23App    0.855261    24App    0.922557    34Ap     0.923441
      25App    0.945924    35Ap     0.953395    36Ap     0.966619
      26App    0.966816    37Ap     1.008705    27App    1.131013
      38Ap     1.133270    39Ap     1.155600    28App    1.167672
      40Ap     1.169018    41Ap     1.232306    29App    1.279404
      42Ap     1.280703    43Ap     1.285189    44Ap     1.329281
      30App    1.329394    45Ap     1.365348    31App    1.370432
      46Ap     1.372110    32App    1.393460    33App    1.406316
      47Ap     1.408857    48Ap     1.422143    34App    1.422212
      35App    1.428210    36App    1.492479    49Ap     1.509491
      37App    1.546378    50Ap     1.548146    38App    1.580804
      51Ap     1.583923    52Ap     1.674666    39App    1.743985
      53Ap     1.746252    54Ap     1.779224    55Ap     1.834969
      40App    1.835536    41App    1.972605    42App    2.023475
      56Ap     2.027364    57Ap     2.039676    43App    2.056045
      58Ap     2.062774    44App    2.746112    59Ap     2.747531
      45App    2.811850    60Ap     2.816060    61Ap     2.902513
      46App    2.902771    62Ap     2.924642    47App    2.931857
      63Ap     2.932098    48App    2.960058    49App    2.967736
      64Ap     2.970132    65Ap     3.041935    50App    3.079941
      66Ap     3.082427    51App    3.086222    52App    3.184236
      67Ap     3.184775    68Ap     3.188318    69Ap     3.289151
      53App    3.291086    54App    3.330247    70Ap     3.331675
      71Ap     3.383509    55App    3.492436    72Ap     3.493268
      56App    3.512423    73Ap     3.528311    57App    3.574621
      58App    3.581187    74Ap     3.582779    59App    3.670240
      75Ap     3.672017    76Ap     3.692953    77Ap     3.725175
      60App    3.726314    78Ap     3.780465    61App    3.782147
      79Ap     3.817782    62App    3.920756    80Ap     3.923332
      81Ap     4.045344    63App    4.116401    82Ap     4.119951
      64App    4.154182    83Ap     4.156382    84Ap     4.187291
      65App    4.208142    85Ap     4.209263    86Ap     4.211330
      66App    4.215372    67App    4.322587    87Ap     4.324228
      68App    4.362373    88Ap     4.432454    69App    4.432745
      70App    4.446489    71App    4.523228    89Ap     4.526022
      72App    4.587867    90Ap     4.589876    91Ap     4.624752
      92Ap     4.719823    73App    4.779739    93Ap     4.783358
      74App    4.839839    94Ap     4.967657    75App    5.005269
      95Ap     5.008732    96Ap     5.233686    76App    5.246700
      97Ap     5.250499    77App    5.360034    98Ap     5.364012
      78App    5.481667

    Final Occupation by Irrep:
             Ap   App
    DOCC [    10,    6 ]
    SOCC [     1,    0 ]

  @DF-UKS Final Energy:  -157.81305447597430

   => Energetics <=

    Nuclear Repulsion Energy =            125.3948842622095015
    One-Electron Energy =                -458.7493928209225942
    Two-Electron Energy =                 195.8486024840867685
    DFT Exchange-Correlation Energy =     -20.3071484013479981
    Empirical Dispersion Energy =           0.0000000000000000
    VV10 Nonlocal Energy =                  0.0000000000000000
    Total Energy =                       -157.8130544759742975

  UHF NO Occupations:
  HONO-2 :    9 Ap 1.9996009
  HONO-1 :   10 Ap 1.9989804
  HONO-0 :   11 Ap 1.0000000
  LUNO+0 :   12 Ap 0.0010196
  LUNO+1 :   13 Ap 0.0003991
  LUNO+2 :   14 Ap 0.0001979
  LUNO+3 :    7App 0.0001972

Computation Completed

Properties will be evaluated at   0.000000,   0.000000,   0.000000 [a0]

Properties computed using the SCF density matrix

  Nuclear Dipole Moment: [e a0]
     X:     0.8272      Y:     0.0119      Z:     0.0000

  Electronic Dipole Moment: [e a0]
     X:    -0.7493      Y:    -0.0133      Z:     0.0000

  Dipole Moment: [e a0]
     X:     0.0779      Y:    -0.0014      Z:     0.0000     Total:     0.0779

  Dipole Moment: [D]
     X:     0.1980      Y:    -0.0035      Z:     0.0000     Total:     0.1981

*** tstop() called on n023 at Fri Nov  5 14:22:30 2021
Module time:
	user time   =     634.03 seconds =      10.57 minutes
	system time =      12.01 seconds =       0.20 minutes
	total time  =        162 seconds =       2.70 minutes
Total time:
	user time   =     634.03 seconds =      10.57 minutes
	system time =      12.01 seconds =       0.20 minutes
	total time  =        162 seconds =       2.70 minutes
Grab this energy -157.8130544759743
    Psi4 stopped on: Friday, 05 November 2021 02:22PM
    Psi4 wall time for execution: 0:02:42.44

*** Psi4 exiting successfully. Buy a developer a beer!
