                               Psi4 1.4a2.dev629

  ==> Input File <==

--------------------------------------------------------------------------
import os
memory 14 GB

molecule {
 C   -0.3233631137   -0.0004950050   -0.0000000000
 C    0.0610950842   -1.4007921188   -2.4261640940
 C    0.0608301743    2.8002444552   -0.0000000000
 C    0.0610950842   -1.4007921188    2.4261640940
 H    2.0880003980   -1.6440203691   -2.8473567212
 H   -0.7657656131   -0.3874932518   -4.0263269001
 H   -0.7660864242   -3.2921739454   -2.3483226194
 H    2.0941347599    3.2872436239    0.0000000000
 H   -0.7693482934    3.6809709913    1.6833324770
 H   -0.7693482934    3.6809709913   -1.6833324770
 H    2.0880003980   -1.6440203691    2.8473567212
 H   -0.7660864242   -3.2921739454    2.3483226194
 H   -0.7657656131   -0.3874932518    4.0263269001
units bohr
0 2
}

basis {

assign 6-31g_2dfp_

[ 6-31g_2dfp_ ]

spherical

!----------------------------------------------------------------------
! Basis Set Exchange
! Version v0.8.13
! https://www.basissetexchange.org
!----------------------------------------------------------------------
!   Basis set: 6-31G(2df,p)
! Description: 6-31G(2df,p)
!        Role: orbital
!     Version: 0  (Data from the original Basis Set Exchange)
!----------------------------------------------------------------------

****
H     0
S    3   1.00
     18.7311370              0.03349460
      2.8253937              0.23472695
      0.6401217              0.81375733
S    1   1.00
      0.1612778              1.00000000
P    1   1.00
      1.5000000              1.0000000
P    1   1.00
      0.3750000              1.0000000
****
B     0
S    6   1.00
   2068.8823000              0.0018663
    310.6495700              0.0142515
     70.6830330              0.0695516
     19.8610800              0.2325729
      6.2993048              0.4670787
      2.1270270              0.3634314
SP   3   1.00
      4.7279710             -0.1303938              0.0745976
      1.1903377             -0.1307889              0.3078467
      0.3594117              1.1309444              0.7434568
SP   1   1.00
      0.1267512              1.0000000              1.0000000
D    1   1.00
      0.8020000              1.0000000
D    1   1.00
      0.2005000              1.0000000
F    1   1.00
      0.5000000              1.0000000
****
C     0
S    6   1.00
   3047.5249000              0.0018347
    457.3695100              0.0140373
    103.9486900              0.0688426
     29.2101550              0.2321844
      9.2866630              0.4679413
      3.1639270              0.3623120
SP   3   1.00
      7.8682724             -0.1193324              0.0689991
      1.8812885             -0.1608542              0.3164240
      0.5442493              1.1434564              0.7443083
SP   1   1.00
      0.1687144              1.0000000              1.0000000
D    1   1.00
      1.2520000              1.0000000
D    1   1.00
      0.3130000              1.0000000
F    1   1.00
      0.8000000              1.0000000
****
N     0
S    6   1.00
   4173.5110000              0.0018348
    627.4579000              0.0139950
    142.9021000              0.0685870
     40.2343300              0.2322410
     12.8202100              0.4690700
      4.3904370              0.3604550
SP   3   1.00
     11.6263580             -0.1149610              0.0675800
      2.7162800             -0.1691180              0.3239070
      0.7722180              1.1458520              0.7408950
SP   1   1.00
      0.2120313              1.0000000              1.0000000
D    1   1.00
      1.8260000              1.0000000
D    1   1.00
      0.4565000              1.0000000
F    1   1.00
      1.0000000              1.0000000
****
O     0
S    6   1.00
   5484.6717000              0.0018311
    825.2349500              0.0139501
    188.0469600              0.0684451
     52.9645000              0.2327143
     16.8975700              0.4701930
      5.7996353              0.3585209
SP   3   1.00
     15.5396160             -0.1107775              0.0708743
      3.5999336             -0.1480263              0.3397528
      1.0137618              1.1307670              0.7271586
SP   1   1.00
      0.2700058              1.0000000              1.0000000
D    1   1.00
      2.5840000              1.0000000
D    1   1.00
      0.6460000              1.0000000
F    1   1.00
      1.4000000              1.0000000
****
F     0
S    6   1.00
   7001.7130900              0.0018196169
   1051.3660900              0.0139160796
    239.2856900              0.0684053245
     67.3974453              0.233185760
     21.5199573              0.471267439
      7.40310130             0.356618546
SP   3   1.00
     20.8479528             -0.108506975            0.0716287243
      4.80830834            -0.146451658            0.3459121030
      1.34406986             1.128688580            0.7224699570
SP   1   1.00
      0.358151393            1.0000000              1.0000000
D    1   1.00
      3.5000000              1.0000000
D    1   1.00
      0.8750000              1.0000000
F    1   1.00
      1.8500000              1.0000000
****
Al     0
S    6   1.00
  13983.1000000              0.00194267
   2098.7500000              0.0148599
    477.7050000              0.0728494
    134.3600000              0.2468300
     42.8709000              0.4872580
     14.5189000              0.3234960
SP   6   1.00
    239.6680000             -0.00292619             0.00460285
     57.4419000             -0.0374080              0.0331990
     18.2859000             -0.1144870              0.1362820
      6.5991400              0.1156350              0.3304760
      2.4904900              0.6125950              0.4491460
      0.9445400              0.3937990              0.2657040
SP   3   1.00
      1.2779000             -0.2276060             -0.0175130
      0.3975900              0.00144583             0.2445330
      0.1600950              1.0927900              0.8049340
SP   1   1.00
      0.0556577              1.0000000              1.0000000
D    1   1.00
      0.6500000              1.0000000
D    1   1.00
      0.1625000              1.0000000
F    1   1.00
      0.2500000              1.0000000
****
Si     0
S    6   1.00
  16115.9000000              0.00195948
   2425.5800000              0.01492880
    553.8670000              0.07284780
    156.3400000              0.24613000
     50.0683000              0.48591400
     17.0178000              0.32500200
SP   6   1.00
    292.7180000             -0.00278094             0.00443826
     69.8731000             -0.03571460             0.03266790
     22.3363000             -0.11498500             0.13472100
      8.1503900              0.09356340             0.32867800
      3.1345800              0.60301700             0.44964000
      1.2254300              0.41895900             0.26137200
SP   3   1.00
      1.7273800             -0.24463000            -0.01779510
      0.5729220              0.00431572             0.25353900
      0.2221920              1.09818000             0.80066900
SP   1   1.00
      0.0778369              1.00000000             1.00000000
D    1   1.00
      0.9000000              1.0000000
D    1   1.00
      0.2250000              1.0000000
F    1   1.00
      0.3200000              1.0000000
****
P     0
S    6   1.00
  19413.3000000              0.0018516
   2909.4200000              0.0142062
    661.3640000              0.0699995
    185.7590000              0.2400790
     59.1943000              0.4847620
     20.0310000              0.3352000
SP   6   1.00
    339.4780000             -0.00278217             0.00456462
     81.0101000             -0.0360499              0.03369360
     25.8780000             -0.1166310              0.13975500
      9.4522100              0.0968328              0.33936200
      3.6656600              0.6144180              0.45092100
      1.4674600              0.4037980              0.23858600
SP   3   1.00
      2.1562300             -0.2529230             -0.01776530
      0.7489970              0.0328517              0.27405800
      0.2831450              1.0812500              0.78542100
SP   1   1.00
      0.0998317              1.0000000              1.00000000
D    1   1.00
      1.1000000              1.0000000
D    1   1.00
      0.2750000              1.0000000
F    1   1.00
      0.4500000              1.0000000
****
S     0
S    6   1.00
  21917.1000000              0.0018690
   3301.4900000              0.0142300
    754.1460000              0.0696960
    212.7110000              0.2384870
     67.9896000              0.4833070
     23.0515000              0.3380740
SP   6   1.00
    423.7350000             -0.0023767              0.0040610
    100.7100000             -0.0316930              0.0306810
     32.1599000             -0.1133170              0.1304520
     11.8079000              0.0560900              0.3272050
      4.6311000              0.5922550              0.4528510
      1.8702500              0.4550060              0.2560420
SP   3   1.00
      2.6158400             -0.2503740             -0.0145110
      0.9221670              0.0669570              0.3102630
      0.3412870              1.0545100              0.7544830
SP   1   1.00
      0.1171670              1.0000000              1.0000000
D    1   1.00
      1.3000000              1.0000000
D    1   1.00
      0.3250000              1.0000000
F    1   1.00
      0.5500000              1.0000000
****
Cl     0
S    6   1.00
  25180.1000000              0.0018330
   3780.3500000              0.0140340
    860.4740000              0.0690970
    242.1450000              0.2374520
     77.3349000              0.4830340
     26.2470000              0.3398560
SP   6   1.00
    491.7650000             -0.0022974              0.0039894
    116.9840000             -0.0307140              0.0303180
     37.4153000             -0.1125280              0.1298800
     13.7834000              0.0450160              0.3279510
      5.4521500              0.5893530              0.4535270
      2.2258800              0.4652060              0.2521540
SP   3   1.00
      3.1864900             -0.2518300             -0.0142990
      1.1442700              0.0615890              0.3235720
      0.4203770              1.0601800              0.7435070
SP   1   1.00
      0.1426570              1.0000000              1.0000000
D    1   1.00
      1.5000000              1.0000000
D    1   1.00
      0.3750000              1.0000000
F    1   1.00
      0.7000000              1.0000000
****
}

set {
reference uhf
freeze_core true
e_convergence 10
d_convergence 10
dft_spherical_points 1202
dft_radial_points 99
}

e = energy('b3lyp')

print_out('Grab this energy {0}'.format(e))
--------------------------------------------------------------------------

    Molecular point group: cs

    Geometry (in Bohr), charge = 0, multiplicity = 2:

       Center              X                  Y                   Z               Mass
    ------------   -----------------  -----------------  -----------------  -----------------
         C           -0.323304794909    -0.000141182372     0.000000000000    12.000000000000
         C            0.061153402991    -1.400438296172    -2.426164094000    12.000000000000
         C            0.060888493091     2.800598277828     0.000000000000    12.000000000000
         C            0.061153402991    -1.400438296172     2.426164094000    12.000000000000
         H            2.088058716791    -1.643666546472    -2.847356721200     1.007825032230
         H           -0.765707294309    -0.387139429172    -4.026326900100     1.007825032230
         H           -0.766028105409    -3.291820122772    -2.348322619400     1.007825032230
         H            2.094193078691     3.287597446528     0.000000000000     1.007825032230
         H           -0.769289974609     3.681324813928     1.683332477000     1.007825032230
         H           -0.769289974609     3.681324813928    -1.683332477000     1.007825032230
         H            2.088058716791    -1.643666546472     2.847356721200     1.007825032230
         H           -0.766028105409    -3.291820122772     2.348322619400     1.007825032230
         H           -0.765707294309    -0.387139429172     4.026326900100     1.007825032230

  Charge       = 0
  Multiplicity = 2
  Basis Set: ANONYMOUSF125682D
    Blend: 6-31G_2DFP_
  Basis Set: (ANONYMOUSF125682D AUX)
    Blend: DEF2-UNIVERSAL-JKFIT

    Orbital Energies [Eh]
    ---------------------

    Alpha Occupied:

       1Ap   -10.180410     2Ap   -10.168219     1App  -10.167231
       3Ap   -10.167200     4Ap    -0.797807     2App   -0.686149
       5Ap    -0.685509     6Ap    -0.530464     7Ap    -0.441025
       8Ap    -0.434618     3App   -0.434447     4App   -0.382563
       9Ap    -0.382118     5App   -0.363297    10Ap    -0.338026
       6App   -0.337960    11Ap    -0.169023

    Alpha Virtual:

      12Ap     0.075738     7App    0.133773    13Ap     0.133786
       8App    0.142127    14Ap     0.142322    15Ap     0.154576
      16Ap     0.177952     9App    0.178594    17Ap     0.203657
      10App    0.214350    11App    0.275916    18Ap     0.276009
      19Ap     0.399200    12App    0.399365    20Ap     0.403136
      13App    0.423728    21Ap     0.423918    22Ap     0.456458
      23Ap     0.495097    14App    0.495236    15App    0.511893
      24Ap     0.513845    25Ap     0.578349    16App    0.578608
      26Ap     0.590714    17App    0.591330    27Ap     0.601942
      28Ap     0.623794    18App    0.630992    19App    0.635391
      29Ap     0.636069    30Ap     0.662901    20App    0.663260
      31Ap     0.683009    21App    0.683618    32Ap     0.734684
      22App    0.824181    33Ap     0.824990    23App    0.853400
      24App    0.914301    34Ap     0.914329    25App    0.943506
      35Ap     0.943822    26App    0.960389    36Ap     0.960897
      37Ap     1.003355    38Ap     1.127353    27App    1.128026
      39Ap     1.141349    28App    1.162931    40Ap     1.163093
      41Ap     1.222880    42Ap     1.273774    29App    1.274134
      43Ap     1.279802    30App    1.323278    44Ap     1.324004
      45Ap     1.355127    46Ap     1.365290    31App    1.365813
      32App    1.391872    47Ap     1.402625    33App    1.403414
      48Ap     1.415856    34App    1.416480    35App    1.427160
      36App    1.490603    49Ap     1.497727    37App    1.542264
      50Ap     1.542368    38App    1.573991    51Ap     1.574577
      52Ap     1.667635    39App    1.737916    53Ap     1.738025
      54Ap     1.766815    55Ap     1.827402    40App    1.830511
      41App    1.970071    56Ap     2.016970    42App    2.017753
      57Ap     2.018171    43App    2.051516    58Ap     2.051655
      44App    2.737063    59Ap     2.737957    60Ap     2.790713
      45App    2.810918    61Ap     2.889069    46App    2.889666
      62Ap     2.894901    47App    2.929018    63Ap     2.929211
      48App    2.958388    64Ap     2.963205    49App    2.964271
      65Ap     3.033120    66Ap     3.070131    50App    3.070541
      51App    3.083459    52App    3.169327    67Ap     3.169569
      68Ap     3.180298    53App    3.285294    69Ap     3.285419
      54App    3.327620    70Ap     3.327728    71Ap     3.376306
      55App    3.490315    72Ap     3.491993    56App    3.514311
      73Ap     3.525970    74Ap     3.568175    57App    3.568195
      58App    3.576856    75Ap     3.664784    59App    3.666406
      76Ap     3.677836    77Ap     3.692899    60App    3.693754
      78Ap     3.775673    61App    3.776867    79Ap     3.788559
      80Ap     3.910819    62App    3.911730    81Ap     4.032086
      82Ap     4.108132    63App    4.109536    64App    4.142735
      83Ap     4.146808    84Ap     4.170364    85Ap     4.199164
      65App    4.202141    86Ap     4.203182    66App    4.207512
      87Ap     4.313054    67App    4.314392    68App    4.356537
      69App    4.421543    88Ap     4.422127    70App    4.441519
      89Ap     4.514162    71App    4.514634    72App    4.576378
      90Ap     4.577244    91Ap     4.616847    92Ap     4.707465
      93Ap     4.772702    73App    4.772945    74App    4.834520
      94Ap     4.962093    95Ap     5.001347    75App    5.002421
      96Ap     5.222550    76App    5.237776    97Ap     5.245229
      98Ap     5.348087    77App    5.353942    78App    5.476213

    Beta Occupied:

       1Ap   -10.168984     1App  -10.167985     2Ap   -10.167967
       3Ap   -10.166601     4Ap    -0.781105     2App   -0.683953
       5Ap    -0.683313     6Ap    -0.511493     7Ap    -0.430991
       3App   -0.430799     8Ap    -0.421687     4App   -0.376648
       9Ap    -0.376185     5App   -0.362277    10Ap    -0.333151
       6App   -0.333100

    Beta Virtual:

      11Ap    -0.025977    12Ap     0.076751     7App    0.134599
      13Ap     0.134726     8App    0.144073    14Ap     0.144172
      15Ap     0.163098    16Ap     0.181642     9App    0.182266
      10App    0.214582    17Ap     0.219020    11App    0.282252
      18Ap     0.282350    19Ap     0.400371    12App    0.400543
      20Ap     0.419568    13App    0.426534    21Ap     0.426730
      22Ap     0.468384    23Ap     0.497358    14App    0.497497
      15App    0.513634    24Ap     0.556132    25Ap     0.583875
      16App    0.584148    26Ap     0.596900    17App    0.597466
      27Ap     0.609374    28Ap     0.627182    18App    0.631194
      19App    0.638682    29Ap     0.639355    30Ap     0.666445
      20App    0.666833    31Ap     0.685714    21App    0.686254
      32Ap     0.757182    22App    0.829326    33Ap     0.830187
      23App    0.854778    24App    0.922288    34Ap     0.922313
      25App    0.945344    35Ap     0.952728    26App    0.965732
      36Ap     0.966183    37Ap     1.008583    38Ap     1.131381
      27App    1.132082    39Ap     1.154736    28App    1.167961
      40Ap     1.168152    41Ap     1.231871    42Ap     1.279381
      29App    1.279745    43Ap     1.285568    30App    1.328194
      44Ap     1.329014    45Ap     1.364513    46Ap     1.370555
      31App    1.371044    32App    1.392936    47Ap     1.406075
      33App    1.406900    48Ap     1.420861    34App    1.421576
      35App    1.427439    36App    1.491647    49Ap     1.508169
      37App    1.546758    50Ap     1.546951    38App    1.581762
      51Ap     1.582333    52Ap     1.672408    39App    1.743688
      53Ap     1.743769    54Ap     1.777647    55Ap     1.831317
      40App    1.834367    41App    1.970939    42App    2.024233
      56Ap     2.024274    57Ap     2.038612    43App    2.058171
      58Ap     2.058438    44App    2.745373    59Ap     2.746295
      45App    2.811326    60Ap     2.815823    61Ap     2.901821
      46App    2.902221    62Ap     2.924545    47App    2.931604
      63Ap     2.931691    48App    2.959446    64Ap     2.967672
      49App    2.968811    65Ap     3.041134    66Ap     3.079928
      50App    3.080413    51App    3.085308    52App    3.185087
      67Ap     3.185367    68Ap     3.187957    53App    3.290120
      69Ap     3.290300    54App    3.331437    70Ap     3.331504
      71Ap     3.384101    55App    3.493031    72Ap     3.494647
      56App    3.512669    73Ap     3.528999    57App    3.576612
      74Ap     3.581521    58App    3.581589    75Ap     3.669249
      59App    3.670943    76Ap     3.691084    77Ap     3.724631
      60App    3.725536    78Ap     3.780248    61App    3.781377
      79Ap     3.817077    80Ap     3.920665    62App    3.921547
      81Ap     4.042844    82Ap     4.115097    63App    4.116021
      64App    4.150226    83Ap     4.153850    84Ap     4.184559
      85Ap     4.205825    65App    4.208101    86Ap     4.210452
      66App    4.212045    87Ap     4.320697    67App    4.321785
      68App    4.359912    69App    4.429799    88Ap     4.430316
      70App    4.444464    89Ap     4.522026    71App    4.522375
      72App    4.587058    90Ap     4.587831    91Ap     4.624047
      92Ap     4.717813    93Ap     4.779628    73App    4.779933
      74App    4.837431    94Ap     4.966916    95Ap     5.005423
      75App    5.006463    96Ap     5.228287    76App    5.239569
      97Ap     5.247025    98Ap     5.354606    77App    5.360435
      78App    5.478546

    Final Occupation by Irrep:
             Ap   App
    DOCC [    10,    6 ]
    SOCC [     1,    0 ]

  @DF-UKS Final Energy:  -157.81307778984046

   => Energetics <=

    Nuclear Repulsion Energy =            125.3573282109604179
    One-Electron Energy =                -458.6781484965080153
    Two-Electron Energy =                 195.8108699298931015
    DFT Exchange-Correlation Energy =     -20.3031274341859564
    Empirical Dispersion Energy =           0.0000000000000000
    VV10 Nonlocal Energy =                  0.0000000000000000
    Total Energy =                       -157.8130777898404631

  UHF NO Occupations:
  HONO-2 :    9 Ap 1.9995983
  HONO-1 :   10 Ap 1.9989811
  HONO-0 :   11 Ap 1.0000000
  LUNO+0 :   12 Ap 0.0010189
  LUNO+1 :   13 Ap 0.0004017
  LUNO+2 :   14 Ap 0.0001972
  LUNO+3 :    7App 0.0001971

Computation Completed

Properties will be evaluated at   0.000000,   0.000000,   0.000000 [a0]

Properties computed using the SCF density matrix

  Nuclear Dipole Moment: [e a0]
     X:     0.8276      Y:     0.0025      Z:     0.0000

  Electronic Dipole Moment: [e a0]
     X:    -0.7503      Y:    -0.0049      Z:     0.0000

  Dipole Moment: [e a0]
     X:     0.0773      Y:    -0.0025      Z:     0.0000     Total:     0.0773

  Dipole Moment: [D]
     X:     0.1964      Y:    -0.0063      Z:     0.0000     Total:     0.1965

*** tstop() called on n089 at Fri Nov  5 14:56:12 2021
Module time:
	user time   =     510.26 seconds =       8.50 minutes
	system time =       4.74 seconds =       0.08 minutes
	total time  =        130 seconds =       2.17 minutes
Total time:
	user time   =     510.26 seconds =       8.50 minutes
	system time =       4.74 seconds =       0.08 minutes
	total time  =        130 seconds =       2.17 minutes
Grab this energy -157.81307778984046
    Psi4 stopped on: Friday, 05 November 2021 02:56PM
    Psi4 wall time for execution: 0:02:09.49

*** Psi4 exiting successfully. Buy a developer a beer!
