                               Psi4 1.4a2.dev629

  ==> Input File <==

--------------------------------------------------------------------------
import os
memory 14 GB

molecule {
 C   -0.3247834507    0.0000049762   -0.0049942609
 C    0.0614734040   -1.4069425482   -2.4306689133
 C    0.0618760885    2.8016494345    0.0062266826
 C    0.0625232831   -1.3946995688    2.4219169809
 H    2.0862113807   -1.6529061877   -2.8515516502
 H   -0.7651007893   -0.3975206074   -4.0323901960
 H   -0.7680360451   -3.2976974312   -2.3492243303
 H    2.0867452354    3.2881211969    0.0111472262
 H   -0.7685787197    3.6726451056    1.6858552305
 H   -0.7630451932    3.6878106863   -1.6669942189
 H    2.0875657339   -1.6353214922    2.8433887632
 H   -0.7634299068   -3.2861701809    2.3487977711
 H   -0.7660288974   -0.3789976969    4.0184909151
units bohr
0 2
}

basis {

assign 6-31g_2dfp_

[ 6-31g_2dfp_ ]

spherical

!----------------------------------------------------------------------
! Basis Set Exchange
! Version v0.8.13
! https://www.basissetexchange.org
!----------------------------------------------------------------------
!   Basis set: 6-31G(2df,p)
! Description: 6-31G(2df,p)
!        Role: orbital
!     Version: 0  (Data from the original Basis Set Exchange)
!----------------------------------------------------------------------

****
H     0
S    3   1.00
     18.7311370              0.03349460
      2.8253937              0.23472695
      0.6401217              0.81375733
S    1   1.00
      0.1612778              1.00000000
P    1   1.00
      1.5000000              1.0000000
P    1   1.00
      0.3750000              1.0000000
****
B     0
S    6   1.00
   2068.8823000              0.0018663
    310.6495700              0.0142515
     70.6830330              0.0695516
     19.8610800              0.2325729
      6.2993048              0.4670787
      2.1270270              0.3634314
SP   3   1.00
      4.7279710             -0.1303938              0.0745976
      1.1903377             -0.1307889              0.3078467
      0.3594117              1.1309444              0.7434568
SP   1   1.00
      0.1267512              1.0000000              1.0000000
D    1   1.00
      0.8020000              1.0000000
D    1   1.00
      0.2005000              1.0000000
F    1   1.00
      0.5000000              1.0000000
****
C     0
S    6   1.00
   3047.5249000              0.0018347
    457.3695100              0.0140373
    103.9486900              0.0688426
     29.2101550              0.2321844
      9.2866630              0.4679413
      3.1639270              0.3623120
SP   3   1.00
      7.8682724             -0.1193324              0.0689991
      1.8812885             -0.1608542              0.3164240
      0.5442493              1.1434564              0.7443083
SP   1   1.00
      0.1687144              1.0000000              1.0000000
D    1   1.00
      1.2520000              1.0000000
D    1   1.00
      0.3130000              1.0000000
F    1   1.00
      0.8000000              1.0000000
****
N     0
S    6   1.00
   4173.5110000              0.0018348
    627.4579000              0.0139950
    142.9021000              0.0685870
     40.2343300              0.2322410
     12.8202100              0.4690700
      4.3904370              0.3604550
SP   3   1.00
     11.6263580             -0.1149610              0.0675800
      2.7162800             -0.1691180              0.3239070
      0.7722180              1.1458520              0.7408950
SP   1   1.00
      0.2120313              1.0000000              1.0000000
D    1   1.00
      1.8260000              1.0000000
D    1   1.00
      0.4565000              1.0000000
F    1   1.00
      1.0000000              1.0000000
****
O     0
S    6   1.00
   5484.6717000              0.0018311
    825.2349500              0.0139501
    188.0469600              0.0684451
     52.9645000              0.2327143
     16.8975700              0.4701930
      5.7996353              0.3585209
SP   3   1.00
     15.5396160             -0.1107775              0.0708743
      3.5999336             -0.1480263              0.3397528
      1.0137618              1.1307670              0.7271586
SP   1   1.00
      0.2700058              1.0000000              1.0000000
D    1   1.00
      2.5840000              1.0000000
D    1   1.00
      0.6460000              1.0000000
F    1   1.00
      1.4000000              1.0000000
****
F     0
S    6   1.00
   7001.7130900              0.0018196169
   1051.3660900              0.0139160796
    239.2856900              0.0684053245
     67.3974453              0.233185760
     21.5199573              0.471267439
      7.40310130             0.356618546
SP   3   1.00
     20.8479528             -0.108506975            0.0716287243
      4.80830834            -0.146451658            0.3459121030
      1.34406986             1.128688580            0.7224699570
SP   1   1.00
      0.358151393            1.0000000              1.0000000
D    1   1.00
      3.5000000              1.0000000
D    1   1.00
      0.8750000              1.0000000
F    1   1.00
      1.8500000              1.0000000
****
Al     0
S    6   1.00
  13983.1000000              0.00194267
   2098.7500000              0.0148599
    477.7050000              0.0728494
    134.3600000              0.2468300
     42.8709000              0.4872580
     14.5189000              0.3234960
SP   6   1.00
    239.6680000             -0.00292619             0.00460285
     57.4419000             -0.0374080              0.0331990
     18.2859000             -0.1144870              0.1362820
      6.5991400              0.1156350              0.3304760
      2.4904900              0.6125950              0.4491460
      0.9445400              0.3937990              0.2657040
SP   3   1.00
      1.2779000             -0.2276060             -0.0175130
      0.3975900              0.00144583             0.2445330
      0.1600950              1.0927900              0.8049340
SP   1   1.00
      0.0556577              1.0000000              1.0000000
D    1   1.00
      0.6500000              1.0000000
D    1   1.00
      0.1625000              1.0000000
F    1   1.00
      0.2500000              1.0000000
****
Si     0
S    6   1.00
  16115.9000000              0.00195948
   2425.5800000              0.01492880
    553.8670000              0.07284780
    156.3400000              0.24613000
     50.0683000              0.48591400
     17.0178000              0.32500200
SP   6   1.00
    292.7180000             -0.00278094             0.00443826
     69.8731000             -0.03571460             0.03266790
     22.3363000             -0.11498500             0.13472100
      8.1503900              0.09356340             0.32867800
      3.1345800              0.60301700             0.44964000
      1.2254300              0.41895900             0.26137200
SP   3   1.00
      1.7273800             -0.24463000            -0.01779510
      0.5729220              0.00431572             0.25353900
      0.2221920              1.09818000             0.80066900
SP   1   1.00
      0.0778369              1.00000000             1.00000000
D    1   1.00
      0.9000000              1.0000000
D    1   1.00
      0.2250000              1.0000000
F    1   1.00
      0.3200000              1.0000000
****
P     0
S    6   1.00
  19413.3000000              0.0018516
   2909.4200000              0.0142062
    661.3640000              0.0699995
    185.7590000              0.2400790
     59.1943000              0.4847620
     20.0310000              0.3352000
SP   6   1.00
    339.4780000             -0.00278217             0.00456462
     81.0101000             -0.0360499              0.03369360
     25.8780000             -0.1166310              0.13975500
      9.4522100              0.0968328              0.33936200
      3.6656600              0.6144180              0.45092100
      1.4674600              0.4037980              0.23858600
SP   3   1.00
      2.1562300             -0.2529230             -0.01776530
      0.7489970              0.0328517              0.27405800
      0.2831450              1.0812500              0.78542100
SP   1   1.00
      0.0998317              1.0000000              1.00000000
D    1   1.00
      1.1000000              1.0000000
D    1   1.00
      0.2750000              1.0000000
F    1   1.00
      0.4500000              1.0000000
****
S     0
S    6   1.00
  21917.1000000              0.0018690
   3301.4900000              0.0142300
    754.1460000              0.0696960
    212.7110000              0.2384870
     67.9896000              0.4833070
     23.0515000              0.3380740
SP   6   1.00
    423.7350000             -0.0023767              0.0040610
    100.7100000             -0.0316930              0.0306810
     32.1599000             -0.1133170              0.1304520
     11.8079000              0.0560900              0.3272050
      4.6311000              0.5922550              0.4528510
      1.8702500              0.4550060              0.2560420
SP   3   1.00
      2.6158400             -0.2503740             -0.0145110
      0.9221670              0.0669570              0.3102630
      0.3412870              1.0545100              0.7544830
SP   1   1.00
      0.1171670              1.0000000              1.0000000
D    1   1.00
      1.3000000              1.0000000
D    1   1.00
      0.3250000              1.0000000
F    1   1.00
      0.5500000              1.0000000
****
Cl     0
S    6   1.00
  25180.1000000              0.0018330
   3780.3500000              0.0140340
    860.4740000              0.0690970
    242.1450000              0.2374520
     77.3349000              0.4830340
     26.2470000              0.3398560
SP   6   1.00
    491.7650000             -0.0022974              0.0039894
    116.9840000             -0.0307140              0.0303180
     37.4153000             -0.1125280              0.1298800
     13.7834000              0.0450160              0.3279510
      5.4521500              0.5893530              0.4535270
      2.2258800              0.4652060              0.2521540
SP   3   1.00
      3.1864900             -0.2518300             -0.0142990
      1.1442700              0.0615890              0.3235720
      0.4203770              1.0601800              0.7435070
SP   1   1.00
      0.1426570              1.0000000              1.0000000
D    1   1.00
      1.5000000              1.0000000
D    1   1.00
      0.3750000              1.0000000
F    1   1.00
      0.7000000              1.0000000
****
}

set {
reference uhf
freeze_core true
e_convergence 10
d_convergence 10
dft_spherical_points 1202
dft_radial_points 99
}

e = energy('b3lyp')

print_out('Grab this energy {0}'.format(e))
--------------------------------------------------------------------------

    Molecular point group: c1

    Geometry (in Bohr), charge = 0, multiplicity = 2:

       Center              X                  Y                   Z               Mass
    ------------   -----------------  -----------------  -----------------  -----------------
         C           -0.325000963893     0.000003037710    -0.003545948979    12.000000000000
         C            0.061255890807    -1.406944486690    -2.429220601379    12.000000000000
         C            0.061658575307     2.801647496010     0.007674994521    12.000000000000
         C            0.062305769907    -1.394701507290     2.423365292821    12.000000000000
         H            2.085993867507    -1.652908126190    -2.850103338279     1.007825032230
         H           -0.765318302493    -0.397522545890    -4.030941884079     1.007825032230
         H           -0.768253558293    -3.297699369690    -2.347776018379     1.007825032230
         H            2.086527722207     3.288119258410     0.012595538121     1.007825032230
         H           -0.768796232893     3.672643167110     1.687303542421     1.007825032230
         H           -0.763262706393     3.687808747810    -1.665545906979     1.007825032230
         H            2.087348220707    -1.635323430690     2.844837075121     1.007825032230
         H           -0.763647419993    -3.286172119390     2.350246083021     1.007825032230
         H           -0.766246410593    -0.378999635390     4.019939227021     1.007825032230

  Charge       = 0
  Multiplicity = 2
  Basis Set: ANONYMOUS18138609
    Blend: 6-31G_2DFP_
  Basis Set: (ANONYMOUS18138609 AUX)
    Blend: DEF2-UNIVERSAL-JKFIT

    Orbital Energies [Eh]
    ---------------------

    Alpha Occupied:

       1A    -10.180407     2A    -10.167278     3A    -10.167007
       4A    -10.166735     5A     -0.797754     6A     -0.686388
       7A     -0.685948     8A     -0.530782     9A     -0.441183
      10A     -0.434873    11A     -0.434343    12A     -0.382850
      13A     -0.382560    14A     -0.363485    15A     -0.338179
      16A     -0.337632    17A     -0.169145

    Alpha Virtual:

      18A      0.076075    19A      0.133912    20A      0.134392
      21A      0.142467    22A      0.142742    23A      0.154959
      24A      0.178624    25A      0.179071    26A      0.203570
      27A      0.214759    28A      0.275645    29A      0.275982
      30A      0.399035    31A      0.399317    32A      0.403335
      33A      0.423940    34A      0.424208    35A      0.456689
      36A      0.494959    37A      0.495760    38A      0.512218
      39A      0.513888    40A      0.578685    41A      0.579180
      42A      0.591638    43A      0.591692    44A      0.602792
      45A      0.624687    46A      0.631709    47A      0.635871
      48A      0.636311    49A      0.663355    50A      0.663789
      51A      0.683503    52A      0.683986    53A      0.734797
      54A      0.824525    55A      0.826166    56A      0.853917
      57A      0.914721    58A      0.915205    59A      0.944100
      60A      0.944565    61A      0.961153    62A      0.961672
      63A      1.003471    64A      1.127056    65A      1.129378
      66A      1.142230    67A      1.163207    68A      1.164187
      69A      1.223170    70A      1.273916    71A      1.274952
      72A      1.279593    73A      1.324017    74A      1.324193
      75A      1.356230    76A      1.364925    77A      1.366377
      78A      1.392442    79A      1.403332    80A      1.404930
      81A      1.416860    82A      1.417856    83A      1.427978
      84A      1.491253    85A      1.499457    86A      1.542528
      87A      1.543242    88A      1.572351    89A      1.576081
      90A      1.669551    91A      1.738100    92A      1.740215
      93A      1.768401    94A      1.830506    95A      1.831525
      96A      1.971461    97A      2.017253    98A      2.017925
      99A      2.020773   100A      2.050534   101A      2.055618
     102A      2.738024   103A      2.738554   104A      2.791118
     105A      2.811409   106A      2.889607   107A      2.889798
     108A      2.895261   109A      2.929337   110A      2.929688
     111A      2.958920   112A      2.963384   113A      2.965178
     114A      3.034359   115A      3.069436   116A      3.071420
     117A      3.084307   118A      3.168146   119A      3.169699
     120A      3.180528   121A      3.285399   122A      3.286802
     123A      3.326575   124A      3.328479   125A      3.375831
     126A      3.489419   127A      3.490375   128A      3.513856
     129A      3.525765   130A      3.566927   131A      3.569167
     132A      3.575958   133A      3.665690   134A      3.665939
     135A      3.679434   136A      3.693715   137A      3.694612
     138A      3.775661   139A      3.777303   140A      3.788028
     141A      3.910784   142A      3.913628   143A      4.034164
     144A      4.109788   145A      4.112512   146A      4.146427
     147A      4.149722   148A      4.173179   149A      4.201611
     150A      4.202341   151A      4.204983   152A      4.211018
     153A      4.316121   154A      4.316169   155A      4.359480
     156A      4.424101   157A      4.424373   158A      4.443282
     159A      4.516340   160A      4.517965   161A      4.577309
     162A      4.579476   163A      4.617036   164A      4.709764
     165A      4.773133   166A      4.775756   167A      4.835744
     168A      4.962958   169A      5.002119   170A      5.004088
     171A      5.227921   172A      5.246553   173A      5.246873
     174A      5.354525   175A      5.355926   176A      5.478964

    Beta Occupied:

       1A    -10.168032     2A    -10.167764     3A    -10.167497
       4A    -10.166579     5A     -0.781083     6A     -0.684192
       7A     -0.683744     8A     -0.511745     9A     -0.431242
      10A     -0.430696    11A     -0.421911    12A     -0.376956
      13A     -0.376646    14A     -0.362467    15A     -0.333310
      16A     -0.332755

    Beta Virtual:

      17A     -0.025844    18A      0.077080    19A      0.134781
      20A      0.135282    21A      0.144346    22A      0.144610
      23A      0.163408    24A      0.182286    25A      0.182753
      26A      0.214989    27A      0.218931    28A      0.281994
      29A      0.282354    30A      0.400258    31A      0.400489
      32A      0.419693    33A      0.426738    34A      0.427037
      35A      0.468613    36A      0.497222    37A      0.498031
      38A      0.513949    39A      0.556229    40A      0.584251
      41A      0.584689    42A      0.597810    43A      0.597888
      44A      0.610186    45A      0.628091    46A      0.631867
      47A      0.639145    48A      0.639618    49A      0.666895
      50A      0.667380    51A      0.686081    52A      0.686668
      53A      0.757340    54A      0.829687    55A      0.831348
      56A      0.855266    57A      0.922689    58A      0.923199
      59A      0.945956    60A      0.953473    61A      0.966375
      62A      0.966993    63A      1.008727    64A      1.131100
      65A      1.133408    66A      1.155572    67A      1.168247
      68A      1.169292    69A      1.232137    70A      1.279525
      71A      1.280569    72A      1.285354    73A      1.329000
      74A      1.329207    75A      1.365621    76A      1.370060
      77A      1.371712    78A      1.393497    79A      1.406830
      80A      1.408372    81A      1.421884    82A      1.422879
      83A      1.428256    84A      1.492302    85A      1.509907
      86A      1.546830    87A      1.547749    88A      1.580372
      89A      1.583807    90A      1.674413    91A      1.743865
      92A      1.745971    93A      1.779159    94A      1.834335
      95A      1.835389    96A      1.972322    97A      2.024245
      98A      2.027231    99A      2.038642   100A      2.057362
     101A      2.062265   102A      2.746314   103A      2.746935
     104A      2.811830   105A      2.816235   106A      2.902373
     107A      2.902496   108A      2.924951   109A      2.931897
     110A      2.932069   111A      2.959987   112A      2.967967
     113A      2.969699   114A      3.042254   115A      3.079235
     116A      3.081411   117A      3.086236   118A      3.183906
     119A      3.185228   120A      3.188259   121A      3.290229
     122A      3.291496   123A      3.330381   124A      3.332300
     125A      3.383657   126A      3.492170   127A      3.493113
     128A      3.512236   129A      3.528828   130A      3.575351
     131A      3.580549   132A      3.582776   133A      3.670396
     134A      3.670684   135A      3.692728   136A      3.725400
     137A      3.726194   138A      3.780248   139A      3.781937
     140A      3.816481   141A      3.920563   142A      3.923408
     143A      4.045080   144A      4.116594   145A      4.119305
     146A      4.153706   147A      4.156889   148A      4.187199
     149A      4.207542   150A      4.210270   151A      4.210949
     152A      4.215501   153A      4.323567   154A      4.323647
     155A      4.362842   156A      4.432265   157A      4.432512
     158A      4.446215   159A      4.524207   160A      4.525636
     161A      4.587865   162A      4.590191   163A      4.624221
     164A      4.720136   165A      4.780064   166A      4.782759
     167A      4.838675   168A      4.967748   169A      5.006146
     170A      5.008113   171A      5.233636   172A      5.248333
     173A      5.248663   174A      5.360996   175A      5.362432
     176A      5.481291

    Final Occupation by Irrep:
              A
    DOCC [    16 ]
    SOCC [     1 ]

  @DF-UKS Final Energy:  -157.81305596526983

   => Energetics <=

    Nuclear Repulsion Energy =            125.3924339209684859
    One-Electron Energy =                -458.7446881300332961
    Two-Electron Energy =                 195.8462746593363590
    DFT Exchange-Correlation Energy =     -20.3070764155413634
    Empirical Dispersion Energy =           0.0000000000000000
    VV10 Nonlocal Energy =                  0.0000000000000000
    Total Energy =                       -157.8130559652698253

  UHF NO Occupations:
  HONO-2 :   15  A 1.9996024
  HONO-1 :   16  A 1.9989819
  HONO-0 :   17  A 1.0000000
  LUNO+0 :   18  A 0.0010181
  LUNO+1 :   19  A 0.0003976
  LUNO+2 :   20  A 0.0001980
  LUNO+3 :   21  A 0.0001973

Computation Completed

Properties will be evaluated at   0.000000,   0.000000,   0.000000 [a0]

Properties computed using the SCF density matrix

  Nuclear Dipole Moment: [e a0]
     X:     0.8257      Y:    -0.0000      Z:     0.0102

  Electronic Dipole Moment: [e a0]
     X:    -0.7470      Y:     0.0000      Z:    -0.0109

  Dipole Moment: [e a0]
     X:     0.0787      Y:    -0.0000      Z:    -0.0007     Total:     0.0787

  Dipole Moment: [D]
     X:     0.2000      Y:    -0.0000      Z:    -0.0019     Total:     0.2000

*** tstop() called on n022 at Fri Nov  5 11:43:16 2021
Module time:
	user time   =     635.43 seconds =      10.59 minutes
	system time =      12.24 seconds =       0.20 minutes
	total time  =        163 seconds =       2.72 minutes
Total time:
	user time   =     635.43 seconds =      10.59 minutes
	system time =      12.24 seconds =       0.20 minutes
	total time  =        163 seconds =       2.72 minutes
Grab this energy -157.81305596526983
    Psi4 stopped on: Friday, 05 November 2021 11:43AM
    Psi4 wall time for execution: 0:02:42.85

*** Psi4 exiting successfully. Buy a developer a beer!
