                               Psi4 1.4a2.dev629

  ==> Input File <==

--------------------------------------------------------------------------
import os
memory 14 GB

molecule {
 C   -0.3233386598   -0.0004356928   -0.0000012933
 C    0.0612988282   -1.4027297258   -2.4252508122
 C    0.0607115824    2.8018652721   -0.0009674514
 C    0.0612950899   -1.4010566216    2.4262154792
 H    2.0864823519   -1.6489742275   -2.8446312266
 H   -0.7703717528   -0.3851098511   -4.0286740279
 H   -0.7602586633   -3.2883910325   -2.3494873862
 H    2.0877104995    3.2880927197   -0.0026023242
 H   -0.7683603889    3.6809084495    1.6773432425
 H   -0.7636324191    3.6798893327   -1.6738246638
 H    2.0864817814   -1.6444688347    2.8472331427
 H   -0.7649801855   -3.2919563984    2.3486097037
 H   -0.7656459405   -0.3876577034    4.0260376176
units bohr
0 2
}

basis {

assign 6-31g_2dfp_

[ 6-31g_2dfp_ ]

spherical

!----------------------------------------------------------------------
! Basis Set Exchange
! Version v0.8.13
! https://www.basissetexchange.org
!----------------------------------------------------------------------
!   Basis set: 6-31G(2df,p)
! Description: 6-31G(2df,p)
!        Role: orbital
!     Version: 0  (Data from the original Basis Set Exchange)
!----------------------------------------------------------------------

****
H     0
S    3   1.00
     18.7311370              0.03349460
      2.8253937              0.23472695
      0.6401217              0.81375733
S    1   1.00
      0.1612778              1.00000000
P    1   1.00
      1.5000000              1.0000000
P    1   1.00
      0.3750000              1.0000000
****
B     0
S    6   1.00
   2068.8823000              0.0018663
    310.6495700              0.0142515
     70.6830330              0.0695516
     19.8610800              0.2325729
      6.2993048              0.4670787
      2.1270270              0.3634314
SP   3   1.00
      4.7279710             -0.1303938              0.0745976
      1.1903377             -0.1307889              0.3078467
      0.3594117              1.1309444              0.7434568
SP   1   1.00
      0.1267512              1.0000000              1.0000000
D    1   1.00
      0.8020000              1.0000000
D    1   1.00
      0.2005000              1.0000000
F    1   1.00
      0.5000000              1.0000000
****
C     0
S    6   1.00
   3047.5249000              0.0018347
    457.3695100              0.0140373
    103.9486900              0.0688426
     29.2101550              0.2321844
      9.2866630              0.4679413
      3.1639270              0.3623120
SP   3   1.00
      7.8682724             -0.1193324              0.0689991
      1.8812885             -0.1608542              0.3164240
      0.5442493              1.1434564              0.7443083
SP   1   1.00
      0.1687144              1.0000000              1.0000000
D    1   1.00
      1.2520000              1.0000000
D    1   1.00
      0.3130000              1.0000000
F    1   1.00
      0.8000000              1.0000000
****
N     0
S    6   1.00
   4173.5110000              0.0018348
    627.4579000              0.0139950
    142.9021000              0.0685870
     40.2343300              0.2322410
     12.8202100              0.4690700
      4.3904370              0.3604550
SP   3   1.00
     11.6263580             -0.1149610              0.0675800
      2.7162800             -0.1691180              0.3239070
      0.7722180              1.1458520              0.7408950
SP   1   1.00
      0.2120313              1.0000000              1.0000000
D    1   1.00
      1.8260000              1.0000000
D    1   1.00
      0.4565000              1.0000000
F    1   1.00
      1.0000000              1.0000000
****
O     0
S    6   1.00
   5484.6717000              0.0018311
    825.2349500              0.0139501
    188.0469600              0.0684451
     52.9645000              0.2327143
     16.8975700              0.4701930
      5.7996353              0.3585209
SP   3   1.00
     15.5396160             -0.1107775              0.0708743
      3.5999336             -0.1480263              0.3397528
      1.0137618              1.1307670              0.7271586
SP   1   1.00
      0.2700058              1.0000000              1.0000000
D    1   1.00
      2.5840000              1.0000000
D    1   1.00
      0.6460000              1.0000000
F    1   1.00
      1.4000000              1.0000000
****
F     0
S    6   1.00
   7001.7130900              0.0018196169
   1051.3660900              0.0139160796
    239.2856900              0.0684053245
     67.3974453              0.233185760
     21.5199573              0.471267439
      7.40310130             0.356618546
SP   3   1.00
     20.8479528             -0.108506975            0.0716287243
      4.80830834            -0.146451658            0.3459121030
      1.34406986             1.128688580            0.7224699570
SP   1   1.00
      0.358151393            1.0000000              1.0000000
D    1   1.00
      3.5000000              1.0000000
D    1   1.00
      0.8750000              1.0000000
F    1   1.00
      1.8500000              1.0000000
****
Al     0
S    6   1.00
  13983.1000000              0.00194267
   2098.7500000              0.0148599
    477.7050000              0.0728494
    134.3600000              0.2468300
     42.8709000              0.4872580
     14.5189000              0.3234960
SP   6   1.00
    239.6680000             -0.00292619             0.00460285
     57.4419000             -0.0374080              0.0331990
     18.2859000             -0.1144870              0.1362820
      6.5991400              0.1156350              0.3304760
      2.4904900              0.6125950              0.4491460
      0.9445400              0.3937990              0.2657040
SP   3   1.00
      1.2779000             -0.2276060             -0.0175130
      0.3975900              0.00144583             0.2445330
      0.1600950              1.0927900              0.8049340
SP   1   1.00
      0.0556577              1.0000000              1.0000000
D    1   1.00
      0.6500000              1.0000000
D    1   1.00
      0.1625000              1.0000000
F    1   1.00
      0.2500000              1.0000000
****
Si     0
S    6   1.00
  16115.9000000              0.00195948
   2425.5800000              0.01492880
    553.8670000              0.07284780
    156.3400000              0.24613000
     50.0683000              0.48591400
     17.0178000              0.32500200
SP   6   1.00
    292.7180000             -0.00278094             0.00443826
     69.8731000             -0.03571460             0.03266790
     22.3363000             -0.11498500             0.13472100
      8.1503900              0.09356340             0.32867800
      3.1345800              0.60301700             0.44964000
      1.2254300              0.41895900             0.26137200
SP   3   1.00
      1.7273800             -0.24463000            -0.01779510
      0.5729220              0.00431572             0.25353900
      0.2221920              1.09818000             0.80066900
SP   1   1.00
      0.0778369              1.00000000             1.00000000
D    1   1.00
      0.9000000              1.0000000
D    1   1.00
      0.2250000              1.0000000
F    1   1.00
      0.3200000              1.0000000
****
P     0
S    6   1.00
  19413.3000000              0.0018516
   2909.4200000              0.0142062
    661.3640000              0.0699995
    185.7590000              0.2400790
     59.1943000              0.4847620
     20.0310000              0.3352000
SP   6   1.00
    339.4780000             -0.00278217             0.00456462
     81.0101000             -0.0360499              0.03369360
     25.8780000             -0.1166310              0.13975500
      9.4522100              0.0968328              0.33936200
      3.6656600              0.6144180              0.45092100
      1.4674600              0.4037980              0.23858600
SP   3   1.00
      2.1562300             -0.2529230             -0.01776530
      0.7489970              0.0328517              0.27405800
      0.2831450              1.0812500              0.78542100
SP   1   1.00
      0.0998317              1.0000000              1.00000000
D    1   1.00
      1.1000000              1.0000000
D    1   1.00
      0.2750000              1.0000000
F    1   1.00
      0.4500000              1.0000000
****
S     0
S    6   1.00
  21917.1000000              0.0018690
   3301.4900000              0.0142300
    754.1460000              0.0696960
    212.7110000              0.2384870
     67.9896000              0.4833070
     23.0515000              0.3380740
SP   6   1.00
    423.7350000             -0.0023767              0.0040610
    100.7100000             -0.0316930              0.0306810
     32.1599000             -0.1133170              0.1304520
     11.8079000              0.0560900              0.3272050
      4.6311000              0.5922550              0.4528510
      1.8702500              0.4550060              0.2560420
SP   3   1.00
      2.6158400             -0.2503740             -0.0145110
      0.9221670              0.0669570              0.3102630
      0.3412870              1.0545100              0.7544830
SP   1   1.00
      0.1171670              1.0000000              1.0000000
D    1   1.00
      1.3000000              1.0000000
D    1   1.00
      0.3250000              1.0000000
F    1   1.00
      0.5500000              1.0000000
****
Cl     0
S    6   1.00
  25180.1000000              0.0018330
   3780.3500000              0.0140340
    860.4740000              0.0690970
    242.1450000              0.2374520
     77.3349000              0.4830340
     26.2470000              0.3398560
SP   6   1.00
    491.7650000             -0.0022974              0.0039894
    116.9840000             -0.0307140              0.0303180
     37.4153000             -0.1125280              0.1298800
     13.7834000              0.0450160              0.3279510
      5.4521500              0.5893530              0.4535270
      2.2258800              0.4652060              0.2521540
SP   3   1.00
      3.1864900             -0.2518300             -0.0142990
      1.1442700              0.0615890              0.3235720
      0.4203770              1.0601800              0.7435070
SP   1   1.00
      0.1426570              1.0000000              1.0000000
D    1   1.00
      1.5000000              1.0000000
D    1   1.00
      0.3750000              1.0000000
F    1   1.00
      0.7000000              1.0000000
****
}

set {
reference uhf
freeze_core true
e_convergence 10
d_convergence 10
dft_spherical_points 1202
dft_radial_points 99
}

e = energy('b3lyp')

print_out('Grab this energy {0}'.format(e))
--------------------------------------------------------------------------

    Molecular point group: c1

    Geometry (in Bohr), charge = 0, multiplicity = 2:

       Center              X                  Y                   Z               Mass
    ------------   -----------------  -----------------  -----------------  -----------------
         C           -0.323339974451     0.000018667076    -0.000000507907    12.000000000000
         C            0.061297513549    -1.402275365924    -2.425250026807    12.000000000000
         C            0.060710267749     2.802319631976    -0.000966666007    12.000000000000
         C            0.061293775249    -1.400602261724     2.426216264593    12.000000000000
         H            2.086481037249    -1.648519867624    -2.844630441207     1.007825032230
         H           -0.770373067451    -0.384655491224    -4.028673242507     1.007825032230
         H           -0.760259977951    -3.287936672624    -2.349486600807     1.007825032230
         H            2.087709184849     3.288547079576    -0.002601538807     1.007825032230
         H           -0.768361703551     3.681362809376     1.677344027893     1.007825032230
         H           -0.763633733751     3.680343692576    -1.673823878407     1.007825032230
         H            2.086480466749    -1.644014474824     2.847233928093     1.007825032230
         H           -0.764981500151    -3.291502038524     2.348610489093     1.007825032230
         H           -0.765647255151    -0.387203343524     4.026038402993     1.007825032230

  Charge       = 0
  Multiplicity = 2
  Basis Set: ANONYMOUSE9E0C5E7
    Blend: 6-31G_2DFP_
  Basis Set: (ANONYMOUSE9E0C5E7 AUX)
    Blend: DEF2-UNIVERSAL-JKFIT

    Orbital Energies [Eh]
    ---------------------

    Alpha Occupied:

       1A    -10.180342     2A    -10.167033     3A    -10.167027
       4A    -10.166984     5A     -0.797767     6A     -0.686249
       7A     -0.686129     8A     -0.530780     9A     -0.441126
      10A     -0.434860    11A     -0.434481    12A     -0.382622
      13A     -0.382577    14A     -0.363611    15A     -0.338161
      16A     -0.337835    17A     -0.168961

    Alpha Virtual:

      18A      0.076069    19A      0.134029    20A      0.134257
      21A      0.142428    22A      0.142840    23A      0.154881
      24A      0.178688    25A      0.178873    26A      0.203546
      27A      0.214806    28A      0.275877    29A      0.276095
      30A      0.398984    31A      0.399470    32A      0.403345
      33A      0.423934    34A      0.424259    35A      0.456591
      36A      0.495340    37A      0.495441    38A      0.512160
      39A      0.513980    40A      0.578755    41A      0.578879
      42A      0.591489    43A      0.591775    44A      0.602569
      45A      0.624672    46A      0.631821    47A      0.636011
      48A      0.636523    49A      0.663202    50A      0.663623
      51A      0.683676    52A      0.684067    53A      0.734994
      54A      0.825157    55A      0.825656    56A      0.853915
      57A      0.914810    58A      0.915243    59A      0.944099
      60A      0.944634    61A      0.961197    62A      0.961385
      63A      1.003459    64A      1.127841    65A      1.128389
      66A      1.142218    67A      1.163214    68A      1.163322
      69A      1.223320    70A      1.274244    71A      1.274735
      72A      1.279353    73A      1.324127    74A      1.324548
      75A      1.355982    76A      1.365759    77A      1.366347
      78A      1.392460    79A      1.404004    80A      1.404094
      81A      1.416419    82A      1.417820    83A      1.427902
      84A      1.491461    85A      1.499095    86A      1.542811
      87A      1.542851    88A      1.574242    89A      1.574667
      90A      1.669841    91A      1.738690    92A      1.740119
      93A      1.768318    94A      1.830608    95A      1.832182
      96A      1.971726    97A      2.017531    98A      2.019258
      99A      2.019637   100A      2.052135   101A      2.053176
     102A      2.738301   103A      2.738663   104A      2.790922
     105A      2.811429   106A      2.889802   107A      2.890104
     108A      2.894937   109A      2.929468   110A      2.929524
     111A      2.958960   112A      2.964323   113A      2.964485
     114A      3.033996   115A      3.070671   116A      3.071851
     117A      3.084451   118A      3.168361   119A      3.169201
     120A      3.180595   121A      3.285142   122A      3.285462
     123A      3.326786   124A      3.327561   125A      3.375625
     126A      3.489882   127A      3.490458   128A      3.514006
     129A      3.525338   130A      3.567945   131A      3.568838
     132A      3.575114   133A      3.665892   134A      3.666905
     135A      3.679660   136A      3.693882   137A      3.694383
     138A      3.776665   139A      3.776925   140A      3.789126
     141A      3.911650   142A      3.912805   143A      4.034435
     144A      4.110746   145A      4.111795   146A      4.147894
     147A      4.148371   148A      4.173211   149A      4.202182
     150A      4.202631   151A      4.203928   152A      4.211122
     153A      4.315309   154A      4.316616   155A      4.358969
     156A      4.423924   157A      4.425004   158A      4.443461
     159A      4.515792   160A      4.517894   161A      4.578269
     162A      4.578272   163A      4.617548   164A      4.709433
     165A      4.773646   166A      4.775589   167A      4.836906
     168A      4.962878   169A      5.002594   170A      5.003336
     171A      5.227570   172A      5.246596   173A      5.247285
     174A      5.354356   175A      5.356854   176A      5.479445

    Beta Occupied:

       1A    -10.167786     2A    -10.167781     3A    -10.167757
       4A    -10.166520     5A     -0.781092     6A     -0.684053
       7A     -0.683930     8A     -0.511752     9A     -0.431231
      10A     -0.430854    11A     -0.421820    12A     -0.376703
      13A     -0.376666    14A     -0.362595    15A     -0.333280
      16A     -0.332962

    Beta Virtual:

      17A     -0.025743    18A      0.077078    19A      0.134894
      20A      0.135172    21A      0.144272    22A      0.144738
      23A      0.163339    24A      0.182359    25A      0.182543
      26A      0.215029    27A      0.218935    28A      0.282226
      29A      0.282442    30A      0.400149    31A      0.400646
      32A      0.419791    33A      0.426745    34A      0.427070
      35A      0.468499    36A      0.497595    37A      0.497707
      38A      0.513896    39A      0.556324    40A      0.584306
      41A      0.584426    42A      0.597643    43A      0.597978
      44A      0.609992    45A      0.628022    46A      0.632009
      47A      0.639316    48A      0.639787    49A      0.666781
      50A      0.667174    51A      0.686332    52A      0.686679
      53A      0.757518    54A      0.830336    55A      0.830813
      56A      0.855268    57A      0.922801    58A      0.923195
      59A      0.945958    60A      0.953538    61A      0.966486
      62A      0.966711    63A      1.008699    64A      1.131872
      65A      1.132414    66A      1.155596    67A      1.168292
      68A      1.168391    69A      1.232293    70A      1.279823
      71A      1.280350    72A      1.285107    73A      1.329117
      74A      1.329535    75A      1.365397    76A      1.371066
      77A      1.371527    78A      1.393521    79A      1.407451
      80A      1.407577    81A      1.421518    82A      1.422822
      83A      1.428171    84A      1.492524    85A      1.509525
      86A      1.547196    87A      1.547287    88A      1.582112
      89A      1.582534    90A      1.674687    91A      1.744440
      92A      1.745894    93A      1.779096    94A      1.834459
      95A      1.836043    96A      1.972600    97A      2.024849
      98A      2.026014    99A      2.039716   100A      2.058851
     101A      2.059903   102A      2.746626   103A      2.747011
     104A      2.811837   105A      2.816063   106A      2.902448
     107A      2.902833   108A      2.924646   109A      2.931958
     110A      2.931993   111A      2.960037   112A      2.968860
     113A      2.969023   114A      3.041927   115A      3.080474
     116A      3.081761   117A      3.086381   118A      3.184137
     119A      3.184920   120A      3.188280   121A      3.289930
     122A      3.290272   123A      3.330557   124A      3.331399
     125A      3.383443   126A      3.492626   127A      3.493176
     128A      3.512374   129A      3.528379   130A      3.574979
     131A      3.581205   132A      3.582255   133A      3.670768
     134A      3.671521   135A      3.692962   136A      3.725703
     137A      3.725819   138A      3.781166   139A      3.781481
     140A      3.817666   141A      3.921400   142A      3.922687
     143A      4.045323   144A      4.117351   145A      4.118815
     146A      4.154880   147A      4.155834   148A      4.187201
     149A      4.208140   150A      4.209831   151A      4.210579
     152A      4.215675   153A      4.322796   154A      4.324018
     155A      4.362331   156A      4.432160   157A      4.433193
     158A      4.446346   159A      4.523575   160A      4.525691
     161A      4.588838   162A      4.588906   163A      4.624740
     164A      4.719776   165A      4.780627   166A      4.782515
     167A      4.839823   168A      4.967673   169A      5.006636
     170A      5.007373   171A      5.233180   172A      5.248403
     173A      5.249166   174A      5.360841   175A      5.363315
     176A      5.481768

    Final Occupation by Irrep:
              A
    DOCC [    16 ]
    SOCC [     1 ]

  @DF-UKS Final Energy:  -157.81304871979097

   => Energetics <=

    Nuclear Repulsion Energy =            125.3946759716553458
    One-Electron Energy =                -458.7489536327917108
    Two-Electron Energy =                 195.8483785660416174
    DFT Exchange-Correlation Energy =     -20.3071496246961871
    Empirical Dispersion Energy =           0.0000000000000000
    VV10 Nonlocal Energy =                  0.0000000000000000
    Total Energy =                       -157.8130487197909702

  UHF NO Occupations:
  HONO-2 :   15  A 1.9996009
  HONO-1 :   16  A 1.9989805
  HONO-0 :   17  A 1.0000000
  LUNO+0 :   18  A 0.0010195
  LUNO+1 :   19  A 0.0003991
  LUNO+2 :   20  A 0.0001976
  LUNO+3 :   21  A 0.0001975

Computation Completed

Properties will be evaluated at   0.000000,   0.000000,   0.000000 [a0]

Properties computed using the SCF density matrix

  Nuclear Dipole Moment: [e a0]
     X:     0.8272      Y:     0.0032      Z:     0.0000

  Electronic Dipole Moment: [e a0]
     X:    -0.7493      Y:    -0.0049      Z:     0.0000

  Dipole Moment: [e a0]
     X:     0.0779      Y:    -0.0017      Z:     0.0000     Total:     0.0779

  Dipole Moment: [D]
     X:     0.1980      Y:    -0.0044      Z:     0.0000     Total:     0.1981

*** tstop() called on n061 at Fri Nov  5 14:23:34 2021
Module time:
	user time   =     589.14 seconds =       9.82 minutes
	system time =      14.73 seconds =       0.25 minutes
	total time  =        152 seconds =       2.53 minutes
Total time:
	user time   =     589.14 seconds =       9.82 minutes
	system time =      14.73 seconds =       0.25 minutes
	total time  =        152 seconds =       2.53 minutes
Grab this energy -157.81304871979097
    Psi4 stopped on: Friday, 05 November 2021 02:23PM
    Psi4 wall time for execution: 0:02:31.89

*** Psi4 exiting successfully. Buy a developer a beer!
