                               Psi4 1.4a2.dev629

  ==> Input File <==

--------------------------------------------------------------------------
import os
memory 14 GB

molecule {
 C   -0.3233391137   -0.0000020508   -0.0000000318
 C    0.0611412495   -1.4003282136   -2.4266979321
 C    0.0610215475    2.8017595780    0.0006343367
 C    0.0611414415   -1.4014270846    2.4260637188
 H    2.0869357528   -1.6468872605   -2.8458278220
 H   -0.7679647656   -0.3872435386   -4.0267067711
 H   -0.7630093839   -3.2904479524   -2.3492189627
 H    2.0867971705    3.2881006884   -0.0032224889
 H   -0.7682061054    3.6808260278    1.6779593646
 H   -0.7630871517    3.6796783922   -1.6750403873
 H    2.0869364287   -1.6413059154    2.8490501050
 H   -0.7681283956   -3.2935491182    2.3487537966
 H   -0.7628465514   -0.3891978661    4.0242530742
units bohr
0 2
}

basis {

assign 6-31g_2dfp_

[ 6-31g_2dfp_ ]

spherical

!----------------------------------------------------------------------
! Basis Set Exchange
! Version v0.8.13
! https://www.basissetexchange.org
!----------------------------------------------------------------------
!   Basis set: 6-31G(2df,p)
! Description: 6-31G(2df,p)
!        Role: orbital
!     Version: 0  (Data from the original Basis Set Exchange)
!----------------------------------------------------------------------

****
H     0
S    3   1.00
     18.7311370              0.03349460
      2.8253937              0.23472695
      0.6401217              0.81375733
S    1   1.00
      0.1612778              1.00000000
P    1   1.00
      1.5000000              1.0000000
P    1   1.00
      0.3750000              1.0000000
****
B     0
S    6   1.00
   2068.8823000              0.0018663
    310.6495700              0.0142515
     70.6830330              0.0695516
     19.8610800              0.2325729
      6.2993048              0.4670787
      2.1270270              0.3634314
SP   3   1.00
      4.7279710             -0.1303938              0.0745976
      1.1903377             -0.1307889              0.3078467
      0.3594117              1.1309444              0.7434568
SP   1   1.00
      0.1267512              1.0000000              1.0000000
D    1   1.00
      0.8020000              1.0000000
D    1   1.00
      0.2005000              1.0000000
F    1   1.00
      0.5000000              1.0000000
****
C     0
S    6   1.00
   3047.5249000              0.0018347
    457.3695100              0.0140373
    103.9486900              0.0688426
     29.2101550              0.2321844
      9.2866630              0.4679413
      3.1639270              0.3623120
SP   3   1.00
      7.8682724             -0.1193324              0.0689991
      1.8812885             -0.1608542              0.3164240
      0.5442493              1.1434564              0.7443083
SP   1   1.00
      0.1687144              1.0000000              1.0000000
D    1   1.00
      1.2520000              1.0000000
D    1   1.00
      0.3130000              1.0000000
F    1   1.00
      0.8000000              1.0000000
****
N     0
S    6   1.00
   4173.5110000              0.0018348
    627.4579000              0.0139950
    142.9021000              0.0685870
     40.2343300              0.2322410
     12.8202100              0.4690700
      4.3904370              0.3604550
SP   3   1.00
     11.6263580             -0.1149610              0.0675800
      2.7162800             -0.1691180              0.3239070
      0.7722180              1.1458520              0.7408950
SP   1   1.00
      0.2120313              1.0000000              1.0000000
D    1   1.00
      1.8260000              1.0000000
D    1   1.00
      0.4565000              1.0000000
F    1   1.00
      1.0000000              1.0000000
****
O     0
S    6   1.00
   5484.6717000              0.0018311
    825.2349500              0.0139501
    188.0469600              0.0684451
     52.9645000              0.2327143
     16.8975700              0.4701930
      5.7996353              0.3585209
SP   3   1.00
     15.5396160             -0.1107775              0.0708743
      3.5999336             -0.1480263              0.3397528
      1.0137618              1.1307670              0.7271586
SP   1   1.00
      0.2700058              1.0000000              1.0000000
D    1   1.00
      2.5840000              1.0000000
D    1   1.00
      0.6460000              1.0000000
F    1   1.00
      1.4000000              1.0000000
****
F     0
S    6   1.00
   7001.7130900              0.0018196169
   1051.3660900              0.0139160796
    239.2856900              0.0684053245
     67.3974453              0.233185760
     21.5199573              0.471267439
      7.40310130             0.356618546
SP   3   1.00
     20.8479528             -0.108506975            0.0716287243
      4.80830834            -0.146451658            0.3459121030
      1.34406986             1.128688580            0.7224699570
SP   1   1.00
      0.358151393            1.0000000              1.0000000
D    1   1.00
      3.5000000              1.0000000
D    1   1.00
      0.8750000              1.0000000
F    1   1.00
      1.8500000              1.0000000
****
Al     0
S    6   1.00
  13983.1000000              0.00194267
   2098.7500000              0.0148599
    477.7050000              0.0728494
    134.3600000              0.2468300
     42.8709000              0.4872580
     14.5189000              0.3234960
SP   6   1.00
    239.6680000             -0.00292619             0.00460285
     57.4419000             -0.0374080              0.0331990
     18.2859000             -0.1144870              0.1362820
      6.5991400              0.1156350              0.3304760
      2.4904900              0.6125950              0.4491460
      0.9445400              0.3937990              0.2657040
SP   3   1.00
      1.2779000             -0.2276060             -0.0175130
      0.3975900              0.00144583             0.2445330
      0.1600950              1.0927900              0.8049340
SP   1   1.00
      0.0556577              1.0000000              1.0000000
D    1   1.00
      0.6500000              1.0000000
D    1   1.00
      0.1625000              1.0000000
F    1   1.00
      0.2500000              1.0000000
****
Si     0
S    6   1.00
  16115.9000000              0.00195948
   2425.5800000              0.01492880
    553.8670000              0.07284780
    156.3400000              0.24613000
     50.0683000              0.48591400
     17.0178000              0.32500200
SP   6   1.00
    292.7180000             -0.00278094             0.00443826
     69.8731000             -0.03571460             0.03266790
     22.3363000             -0.11498500             0.13472100
      8.1503900              0.09356340             0.32867800
      3.1345800              0.60301700             0.44964000
      1.2254300              0.41895900             0.26137200
SP   3   1.00
      1.7273800             -0.24463000            -0.01779510
      0.5729220              0.00431572             0.25353900
      0.2221920              1.09818000             0.80066900
SP   1   1.00
      0.0778369              1.00000000             1.00000000
D    1   1.00
      0.9000000              1.0000000
D    1   1.00
      0.2250000              1.0000000
F    1   1.00
      0.3200000              1.0000000
****
P     0
S    6   1.00
  19413.3000000              0.0018516
   2909.4200000              0.0142062
    661.3640000              0.0699995
    185.7590000              0.2400790
     59.1943000              0.4847620
     20.0310000              0.3352000
SP   6   1.00
    339.4780000             -0.00278217             0.00456462
     81.0101000             -0.0360499              0.03369360
     25.8780000             -0.1166310              0.13975500
      9.4522100              0.0968328              0.33936200
      3.6656600              0.6144180              0.45092100
      1.4674600              0.4037980              0.23858600
SP   3   1.00
      2.1562300             -0.2529230             -0.01776530
      0.7489970              0.0328517              0.27405800
      0.2831450              1.0812500              0.78542100
SP   1   1.00
      0.0998317              1.0000000              1.00000000
D    1   1.00
      1.1000000              1.0000000
D    1   1.00
      0.2750000              1.0000000
F    1   1.00
      0.4500000              1.0000000
****
S     0
S    6   1.00
  21917.1000000              0.0018690
   3301.4900000              0.0142300
    754.1460000              0.0696960
    212.7110000              0.2384870
     67.9896000              0.4833070
     23.0515000              0.3380740
SP   6   1.00
    423.7350000             -0.0023767              0.0040610
    100.7100000             -0.0316930              0.0306810
     32.1599000             -0.1133170              0.1304520
     11.8079000              0.0560900              0.3272050
      4.6311000              0.5922550              0.4528510
      1.8702500              0.4550060              0.2560420
SP   3   1.00
      2.6158400             -0.2503740             -0.0145110
      0.9221670              0.0669570              0.3102630
      0.3412870              1.0545100              0.7544830
SP   1   1.00
      0.1171670              1.0000000              1.0000000
D    1   1.00
      1.3000000              1.0000000
D    1   1.00
      0.3250000              1.0000000
F    1   1.00
      0.5500000              1.0000000
****
Cl     0
S    6   1.00
  25180.1000000              0.0018330
   3780.3500000              0.0140340
    860.4740000              0.0690970
    242.1450000              0.2374520
     77.3349000              0.4830340
     26.2470000              0.3398560
SP   6   1.00
    491.7650000             -0.0022974              0.0039894
    116.9840000             -0.0307140              0.0303180
     37.4153000             -0.1125280              0.1298800
     13.7834000              0.0450160              0.3279510
      5.4521500              0.5893530              0.4535270
      2.2258800              0.4652060              0.2521540
SP   3   1.00
      3.1864900             -0.2518300             -0.0142990
      1.1442700              0.0615890              0.3235720
      0.4203770              1.0601800              0.7435070
SP   1   1.00
      0.1426570              1.0000000              1.0000000
D    1   1.00
      1.5000000              1.0000000
D    1   1.00
      0.3750000              1.0000000
F    1   1.00
      0.7000000              1.0000000
****
}

set {
reference uhf
freeze_core true
e_convergence 10
d_convergence 10
dft_spherical_points 1202
dft_radial_points 99
}

e = energy('b3lyp')

print_out('Grab this energy {0}'.format(e))
--------------------------------------------------------------------------

    Molecular point group: c1

    Geometry (in Bohr), charge = 0, multiplicity = 2:

       Center              X                  Y                   Z               Mass
    ------------   -----------------  -----------------  -----------------  -----------------
         C           -0.323340097853    -0.000002050756    -0.000000049443    12.000000000000
         C            0.061140265347    -1.400328213556    -2.426697949743    12.000000000000
         C            0.061020563347     2.801759578044     0.000634319057    12.000000000000
         C            0.061140457347    -1.401427084556     2.426063701157    12.000000000000
         H            2.086934768647    -1.646887260456    -2.845827839643     1.007825032230
         H           -0.767965749753    -0.387243538556    -4.026706788743     1.007825032230
         H           -0.763010368053    -3.290447952356    -2.349218980343     1.007825032230
         H            2.086796186347     3.288100688444    -0.003222506543     1.007825032230
         H           -0.768207089553     3.680826027844     1.677959346957     1.007825032230
         H           -0.763088135853     3.679678392244    -1.675040404943     1.007825032230
         H            2.086935444547    -1.641305915356     2.849050087357     1.007825032230
         H           -0.768129379753    -3.293549118156     2.348753778957     1.007825032230
         H           -0.762847535553    -0.389197866056     4.024253056557     1.007825032230

  Charge       = 0
  Multiplicity = 2
  Basis Set: ANONYMOUS77D04769
    Blend: 6-31G_2DFP_
  Basis Set: (ANONYMOUS77D04769 AUX)
    Blend: DEF2-UNIVERSAL-JKFIT

    Orbital Energies [Eh]
    ---------------------

    Alpha Occupied:

       1A    -10.180341     2A    -10.167030     3A    -10.167030
       4A    -10.166984     5A     -0.797766     6A     -0.686187
       7A     -0.686187     8A     -0.530776     9A     -0.441123
      10A     -0.434672    11A     -0.434671    12A     -0.382599
      13A     -0.382597    14A     -0.363611    15A     -0.337999
      16A     -0.337999    17A     -0.168960

    Alpha Virtual:

      18A      0.076072    19A      0.134150    20A      0.134151
      21A      0.142632    22A      0.142632    23A      0.154879
      24A      0.178779    25A      0.178779    26A      0.203547
      27A      0.214801    28A      0.275984    29A      0.275986
      30A      0.399228    31A      0.399232    32A      0.403344
      33A      0.424097    34A      0.424097    35A      0.456592
      36A      0.495389    37A      0.495390    38A      0.512143
      39A      0.513994    40A      0.578814    41A      0.578823
      42A      0.591633    43A      0.591635    44A      0.602571
      45A      0.624753    46A      0.631790    47A      0.636240
      48A      0.636244    49A      0.663412    50A      0.663412
      51A      0.683855    52A      0.683856    53A      0.734994
      54A      0.825405    55A      0.825408    56A      0.853914
      57A      0.915025    58A      0.915031    59A      0.944087
      60A      0.944653    61A      0.961280    62A      0.961297
      63A      1.003456    64A      1.128104    65A      1.128117
      66A      1.142214    67A      1.163263    68A      1.163276
      69A      1.223318    70A      1.274488    71A      1.274491
      72A      1.279352    73A      1.324334    74A      1.324336
      75A      1.355993    76A      1.366060    77A      1.366064
      78A      1.392468    79A      1.404053    80A      1.404055
      81A      1.417117    82A      1.417123    83A      1.427894
      84A      1.491361    85A      1.499202    86A      1.542828
      87A      1.542830    88A      1.574450    89A      1.574452
      90A      1.669841    91A      1.739406    92A      1.739418
      93A      1.768329    94A      1.831404    95A      1.831405
      96A      1.971710    97A      2.018322    98A      2.019039
      99A      2.019043   100A      2.052639   101A      2.052640
     102A      2.738482   103A      2.738483   104A      2.790919
     105A      2.811431   106A      2.889943   107A      2.889949
     108A      2.894935   109A      2.929493   110A      2.929502
     111A      2.958993   112A      2.964380   113A      2.964394
     114A      3.034003   115A      3.071278   116A      3.071292
     117A      3.084363   118A      3.168779   119A      3.168787
     120A      3.180583   121A      3.285297   122A      3.285297
     123A      3.327176   124A      3.327182   125A      3.375617
     126A      3.490157   127A      3.490178   128A      3.514002
     129A      3.525322   130A      3.568386   131A      3.568407
     132A      3.575155   133A      3.666366   134A      3.666374
     135A      3.679667   136A      3.694127   137A      3.694143
     138A      3.776793   139A      3.776819   140A      3.789116
     141A      3.912226   142A      3.912232   143A      4.034451
     144A      4.111314   145A      4.111318   146A      4.148146
     147A      4.148154   148A      4.173131   149A      4.202637
     150A      4.203099   151A      4.203103   152A      4.210974
     153A      4.315953   154A      4.315973   155A      4.358976
     156A      4.424436   157A      4.424438   158A      4.443421
     159A      4.516853   160A      4.516854   161A      4.578273
     162A      4.578285   163A      4.617534   164A      4.709456
     165A      4.774583   166A      4.774591   167A      4.836887
     168A      4.962879   169A      5.002951   170A      5.002963
     171A      5.228009   172A      5.246745   173A      5.246745
     174A      5.355547   175A      5.355560   176A      5.479371

    Beta Occupied:

       1A    -10.167783     2A    -10.167783     3A    -10.167758
       4A    -10.166519     5A     -0.781091     6A     -0.683990
       7A     -0.683989     8A     -0.511747     9A     -0.431042
      10A     -0.431042    11A     -0.421821    12A     -0.376684
      13A     -0.376682    14A     -0.362595    15A     -0.333122
      16A     -0.333122

    Beta Virtual:

      17A     -0.025742    18A      0.077081    19A      0.135040
      20A      0.135041    21A      0.144502    22A      0.144502
      23A      0.163338    24A      0.182450    25A      0.182450
      26A      0.215031    27A      0.218929    28A      0.282332
      29A      0.282334    30A      0.400397    31A      0.400401
      32A      0.419791    33A      0.426908    34A      0.426908
      35A      0.468500    36A      0.497649    37A      0.497650
      38A      0.513893    39A      0.556326    40A      0.584364
      41A      0.584373    42A      0.597813    43A      0.597814
      44A      0.609994    45A      0.628118    46A      0.631955
      47A      0.639526    48A      0.639530    49A      0.666976
      50A      0.666976    51A      0.686490    52A      0.686491
      53A      0.757518    54A      0.830574    55A      0.830576
      56A      0.855267    57A      0.922996    58A      0.923002
      59A      0.945958    60A      0.953548    61A      0.966586
      62A      0.966602    63A      1.008696    64A      1.132133
      65A      1.132144    66A      1.155594    67A      1.168336
      68A      1.168349    69A      1.232292    70A      1.280084
      71A      1.280088    72A      1.285105    73A      1.329322
      74A      1.329324    75A      1.365409    76A      1.371303
      77A      1.371308    78A      1.393524    79A      1.407520
      80A      1.407523    81A      1.422167    82A      1.422173
      83A      1.428163    84A      1.492472    85A      1.509582
      86A      1.547237    87A      1.547238    88A      1.582321
      89A      1.582322    90A      1.674686    91A      1.745167
      92A      1.745178    93A      1.779110    94A      1.835259
      95A      1.835260    96A      1.972577    97A      2.025443
      98A      2.025446    99A      2.039689   100A      2.059353
     101A      2.059354   102A      2.746818   103A      2.746819
     104A      2.811824   105A      2.816074   106A      2.902628
     107A      2.902634   108A      2.924644   109A      2.931975
     110A      2.931984   111A      2.960058   112A      2.968924
     113A      2.968938   114A      3.041936   115A      3.081190
     116A      3.081201   117A      3.086181   118A      3.184536
     119A      3.184540   120A      3.188257   121A      3.290095
     122A      3.290095   123A      3.330981   124A      3.330987
     125A      3.383436   126A      3.492888   127A      3.492908
     128A      3.512367   129A      3.528363   130A      3.575022
     131A      3.581724   132A      3.581746   133A      3.671116
     134A      3.671127   135A      3.692957   136A      3.725758
     137A      3.725774   138A      3.781317   139A      3.781343
     140A      3.817663   141A      3.922042   142A      3.922049
     143A      4.045339   144A      4.118125   145A      4.118127
     146A      4.155362   147A      4.155371   148A      4.187151
     149A      4.209035   150A      4.209039   151A      4.210592
     152A      4.215500   153A      4.323394   154A      4.323414
     155A      4.362338   156A      4.432653   157A      4.432655
     158A      4.446300   159A      4.524644   160A      4.524645
     161A      4.588875   162A      4.588887   163A      4.624726
     164A      4.719801   165A      4.781537   166A      4.781544
     167A      4.839803   168A      4.967674   169A      5.006990
     170A      5.007003   171A      5.233725   172A      5.248531
     173A      5.248532   174A      5.362025   175A      5.362038
     176A      5.481693

    Final Occupation by Irrep:
              A
    DOCC [    16 ]
    SOCC [     1 ]

  @DF-UKS Final Energy:  -157.81306772490180

   => Energetics <=

    Nuclear Repulsion Energy =            125.3945954822763298
    One-Electron Energy =                -458.7488573780055958
    Two-Electron Energy =                 195.8483361910938925
    DFT Exchange-Correlation Energy =     -20.3071420202664186
    Empirical Dispersion Energy =           0.0000000000000000
    VV10 Nonlocal Energy =                  0.0000000000000000
    Total Energy =                       -157.8130677249017992

  UHF NO Occupations:
  HONO-2 :   15  A 1.9996009
  HONO-1 :   16  A 1.9989805
  HONO-0 :   17  A 1.0000000
  LUNO+0 :   18  A 0.0010195
  LUNO+1 :   19  A 0.0003991
  LUNO+2 :   20  A 0.0001975
  LUNO+3 :   21  A 0.0001975

Computation Completed

Properties will be evaluated at   0.000000,   0.000000,   0.000000 [a0]

Properties computed using the SCF density matrix

  Nuclear Dipole Moment: [e a0]
     X:     0.8272      Y:    -0.0000      Z:    -0.0000

  Electronic Dipole Moment: [e a0]
     X:    -0.7493      Y:     0.0000      Z:    -0.0000

  Dipole Moment: [e a0]
     X:     0.0779      Y:     0.0000      Z:    -0.0000     Total:     0.0779

  Dipole Moment: [D]
     X:     0.1980      Y:     0.0000      Z:    -0.0000     Total:     0.1980

*** tstop() called on n067 at Fri Nov  5 12:46:28 2021
Module time:
	user time   =     509.87 seconds =       8.50 minutes
	system time =      11.22 seconds =       0.19 minutes
	total time  =        131 seconds =       2.18 minutes
Total time:
	user time   =     509.87 seconds =       8.50 minutes
	system time =      11.22 seconds =       0.19 minutes
	total time  =        131 seconds =       2.18 minutes
Grab this energy -157.8130677249018
    Psi4 stopped on: Friday, 05 November 2021 12:46PM
    Psi4 wall time for execution: 0:02:11.08

*** Psi4 exiting successfully. Buy a developer a beer!
