                               Psi4 1.4a2.dev629

  ==> Input File <==

--------------------------------------------------------------------------
import os
memory 14 GB

molecule {
 C   -0.3236633468   -0.0000020326    0.0000000000
 C    0.0611856381   -1.4032708257   -2.4305258719
 C    0.0610656463    2.8065460081    0.0000000000
 C    0.0611856381   -1.4032708257    2.4305258719
 H    2.0903831707   -1.6472154747   -2.8528405996
 H   -0.7670969975   -0.3885734779   -4.0324393910
 H   -0.7672605216   -3.2978491602   -2.3527716444
 H    2.0902437018    3.2943383488    0.0000000000
 H   -0.7673382287    3.6864556194    1.6796737960
 H   -0.7673382287    3.6864556194   -1.6796737960
 H    2.0903831707   -1.6472154747    2.8528405996
 H   -0.7672605216   -3.2978491602    2.3527716444
 H   -0.7670969975   -0.3885734779    4.0324393910
units bohr
0 2
}

basis {

assign 6-31g_2dfp_

[ 6-31g_2dfp_ ]

spherical

!----------------------------------------------------------------------
! Basis Set Exchange
! Version v0.8.13
! https://www.basissetexchange.org
!----------------------------------------------------------------------
!   Basis set: 6-31G(2df,p)
! Description: 6-31G(2df,p)
!        Role: orbital
!     Version: 0  (Data from the original Basis Set Exchange)
!----------------------------------------------------------------------

****
H     0
S    3   1.00
     18.7311370              0.03349460
      2.8253937              0.23472695
      0.6401217              0.81375733
S    1   1.00
      0.1612778              1.00000000
P    1   1.00
      1.5000000              1.0000000
P    1   1.00
      0.3750000              1.0000000
****
B     0
S    6   1.00
   2068.8823000              0.0018663
    310.6495700              0.0142515
     70.6830330              0.0695516
     19.8610800              0.2325729
      6.2993048              0.4670787
      2.1270270              0.3634314
SP   3   1.00
      4.7279710             -0.1303938              0.0745976
      1.1903377             -0.1307889              0.3078467
      0.3594117              1.1309444              0.7434568
SP   1   1.00
      0.1267512              1.0000000              1.0000000
D    1   1.00
      0.8020000              1.0000000
D    1   1.00
      0.2005000              1.0000000
F    1   1.00
      0.5000000              1.0000000
****
C     0
S    6   1.00
   3047.5249000              0.0018347
    457.3695100              0.0140373
    103.9486900              0.0688426
     29.2101550              0.2321844
      9.2866630              0.4679413
      3.1639270              0.3623120
SP   3   1.00
      7.8682724             -0.1193324              0.0689991
      1.8812885             -0.1608542              0.3164240
      0.5442493              1.1434564              0.7443083
SP   1   1.00
      0.1687144              1.0000000              1.0000000
D    1   1.00
      1.2520000              1.0000000
D    1   1.00
      0.3130000              1.0000000
F    1   1.00
      0.8000000              1.0000000
****
N     0
S    6   1.00
   4173.5110000              0.0018348
    627.4579000              0.0139950
    142.9021000              0.0685870
     40.2343300              0.2322410
     12.8202100              0.4690700
      4.3904370              0.3604550
SP   3   1.00
     11.6263580             -0.1149610              0.0675800
      2.7162800             -0.1691180              0.3239070
      0.7722180              1.1458520              0.7408950
SP   1   1.00
      0.2120313              1.0000000              1.0000000
D    1   1.00
      1.8260000              1.0000000
D    1   1.00
      0.4565000              1.0000000
F    1   1.00
      1.0000000              1.0000000
****
O     0
S    6   1.00
   5484.6717000              0.0018311
    825.2349500              0.0139501
    188.0469600              0.0684451
     52.9645000              0.2327143
     16.8975700              0.4701930
      5.7996353              0.3585209
SP   3   1.00
     15.5396160             -0.1107775              0.0708743
      3.5999336             -0.1480263              0.3397528
      1.0137618              1.1307670              0.7271586
SP   1   1.00
      0.2700058              1.0000000              1.0000000
D    1   1.00
      2.5840000              1.0000000
D    1   1.00
      0.6460000              1.0000000
F    1   1.00
      1.4000000              1.0000000
****
F     0
S    6   1.00
   7001.7130900              0.0018196169
   1051.3660900              0.0139160796
    239.2856900              0.0684053245
     67.3974453              0.233185760
     21.5199573              0.471267439
      7.40310130             0.356618546
SP   3   1.00
     20.8479528             -0.108506975            0.0716287243
      4.80830834            -0.146451658            0.3459121030
      1.34406986             1.128688580            0.7224699570
SP   1   1.00
      0.358151393            1.0000000              1.0000000
D    1   1.00
      3.5000000              1.0000000
D    1   1.00
      0.8750000              1.0000000
F    1   1.00
      1.8500000              1.0000000
****
Al     0
S    6   1.00
  13983.1000000              0.00194267
   2098.7500000              0.0148599
    477.7050000              0.0728494
    134.3600000              0.2468300
     42.8709000              0.4872580
     14.5189000              0.3234960
SP   6   1.00
    239.6680000             -0.00292619             0.00460285
     57.4419000             -0.0374080              0.0331990
     18.2859000             -0.1144870              0.1362820
      6.5991400              0.1156350              0.3304760
      2.4904900              0.6125950              0.4491460
      0.9445400              0.3937990              0.2657040
SP   3   1.00
      1.2779000             -0.2276060             -0.0175130
      0.3975900              0.00144583             0.2445330
      0.1600950              1.0927900              0.8049340
SP   1   1.00
      0.0556577              1.0000000              1.0000000
D    1   1.00
      0.6500000              1.0000000
D    1   1.00
      0.1625000              1.0000000
F    1   1.00
      0.2500000              1.0000000
****
Si     0
S    6   1.00
  16115.9000000              0.00195948
   2425.5800000              0.01492880
    553.8670000              0.07284780
    156.3400000              0.24613000
     50.0683000              0.48591400
     17.0178000              0.32500200
SP   6   1.00
    292.7180000             -0.00278094             0.00443826
     69.8731000             -0.03571460             0.03266790
     22.3363000             -0.11498500             0.13472100
      8.1503900              0.09356340             0.32867800
      3.1345800              0.60301700             0.44964000
      1.2254300              0.41895900             0.26137200
SP   3   1.00
      1.7273800             -0.24463000            -0.01779510
      0.5729220              0.00431572             0.25353900
      0.2221920              1.09818000             0.80066900
SP   1   1.00
      0.0778369              1.00000000             1.00000000
D    1   1.00
      0.9000000              1.0000000
D    1   1.00
      0.2250000              1.0000000
F    1   1.00
      0.3200000              1.0000000
****
P     0
S    6   1.00
  19413.3000000              0.0018516
   2909.4200000              0.0142062
    661.3640000              0.0699995
    185.7590000              0.2400790
     59.1943000              0.4847620
     20.0310000              0.3352000
SP   6   1.00
    339.4780000             -0.00278217             0.00456462
     81.0101000             -0.0360499              0.03369360
     25.8780000             -0.1166310              0.13975500
      9.4522100              0.0968328              0.33936200
      3.6656600              0.6144180              0.45092100
      1.4674600              0.4037980              0.23858600
SP   3   1.00
      2.1562300             -0.2529230             -0.01776530
      0.7489970              0.0328517              0.27405800
      0.2831450              1.0812500              0.78542100
SP   1   1.00
      0.0998317              1.0000000              1.00000000
D    1   1.00
      1.1000000              1.0000000
D    1   1.00
      0.2750000              1.0000000
F    1   1.00
      0.4500000              1.0000000
****
S     0
S    6   1.00
  21917.1000000              0.0018690
   3301.4900000              0.0142300
    754.1460000              0.0696960
    212.7110000              0.2384870
     67.9896000              0.4833070
     23.0515000              0.3380740
SP   6   1.00
    423.7350000             -0.0023767              0.0040610
    100.7100000             -0.0316930              0.0306810
     32.1599000             -0.1133170              0.1304520
     11.8079000              0.0560900              0.3272050
      4.6311000              0.5922550              0.4528510
      1.8702500              0.4550060              0.2560420
SP   3   1.00
      2.6158400             -0.2503740             -0.0145110
      0.9221670              0.0669570              0.3102630
      0.3412870              1.0545100              0.7544830
SP   1   1.00
      0.1171670              1.0000000              1.0000000
D    1   1.00
      1.3000000              1.0000000
D    1   1.00
      0.3250000              1.0000000
F    1   1.00
      0.5500000              1.0000000
****
Cl     0
S    6   1.00
  25180.1000000              0.0018330
   3780.3500000              0.0140340
    860.4740000              0.0690970
    242.1450000              0.2374520
     77.3349000              0.4830340
     26.2470000              0.3398560
SP   6   1.00
    491.7650000             -0.0022974              0.0039894
    116.9840000             -0.0307140              0.0303180
     37.4153000             -0.1125280              0.1298800
     13.7834000              0.0450160              0.3279510
      5.4521500              0.5893530              0.4535270
      2.2258800              0.4652060              0.2521540
SP   3   1.00
      3.1864900             -0.2518300             -0.0142990
      1.1442700              0.0615890              0.3235720
      0.4203770              1.0601800              0.7435070
SP   1   1.00
      0.1426570              1.0000000              1.0000000
D    1   1.00
      1.5000000              1.0000000
D    1   1.00
      0.3750000              1.0000000
F    1   1.00
      0.7000000              1.0000000
****
}

set {
reference uhf
freeze_core true
e_convergence 10
d_convergence 10
dft_spherical_points 1202
dft_radial_points 99
}

e = energy('b3lyp')

print_out('Grab this energy {0}'.format(e))
--------------------------------------------------------------------------

    Molecular point group: cs

    Geometry (in Bohr), charge = 0, multiplicity = 2:

       Center              X                  Y                   Z               Mass
    ------------   -----------------  -----------------  -----------------  -----------------
         C           -0.323627437218    -0.000002050871     0.000000000000    12.000000000000
         C            0.061221547682    -1.403270843971    -2.430525871900    12.000000000000
         C            0.061101555882     2.806545989829     0.000000000000    12.000000000000
         C            0.061221547682    -1.403270843971     2.430525871900    12.000000000000
         H            2.090419080282    -1.647215492971    -2.852840599600     1.007825032230
         H           -0.767061087918    -0.388573496171    -4.032439391000     1.007825032230
         H           -0.767224612018    -3.297849178471    -2.352771644400     1.007825032230
         H            2.090279611382     3.294338330529     0.000000000000     1.007825032230
         H           -0.767302319118     3.686455601129     1.679673796000     1.007825032230
         H           -0.767302319118     3.686455601129    -1.679673796000     1.007825032230
         H            2.090419080282    -1.647215492971     2.852840599600     1.007825032230
         H           -0.767224612018    -3.297849178471     2.352771644400     1.007825032230
         H           -0.767061087918    -0.388573496171     4.032439391000     1.007825032230

  Charge       = 0
  Multiplicity = 2
  Basis Set: ANONYMOUS07A4A505
    Blend: 6-31G_2DFP_
  Basis Set: (ANONYMOUS07A4A505 AUX)
    Blend: DEF2-UNIVERSAL-JKFIT

    Orbital Energies [Eh]
    ---------------------

    Alpha Occupied:

       1Ap   -10.181181     2Ap   -10.167926     1App  -10.167926
       3Ap   -10.167881     4Ap    -0.796759     5Ap    -0.685527
       2App   -0.685527     6Ap    -0.530467     7Ap    -0.440429
       3App   -0.434053     8Ap    -0.434053     9Ap    -0.382267
       4App   -0.382265     5App   -0.363414     6App   -0.337806
      10Ap    -0.337806    11Ap    -0.169347

    Alpha Virtual:

      12Ap     0.075769    13Ap     0.133749     7App    0.133750
      14Ap     0.142015     8App    0.142015    15Ap     0.154518
      16Ap     0.178096     9App    0.178096    17Ap     0.202548
      10App    0.214002    11App    0.275431    18Ap     0.275432
      19Ap     0.399302    12App    0.399306    20Ap     0.403340
      13App    0.424108    21Ap     0.424109    22Ap     0.455898
      23Ap     0.494942    14App    0.494942    15App    0.511558
      24Ap     0.513435    25Ap     0.577786    16App    0.577795
      17App    0.590492    26Ap     0.590494    27Ap     0.601472
      28Ap     0.623385    18App    0.630724    19App    0.634881
      29Ap     0.634885    30Ap     0.662600    20App    0.662600
      31Ap     0.682859    21App    0.682861    32Ap     0.734885
      22App    0.824744    33Ap     0.824746    23App    0.852398
      24App    0.913587    34Ap     0.913593    25App    0.942173
      35Ap     0.944397    26App    0.959673    36Ap     0.959690
      37Ap     1.002237    38Ap     1.126790    27App    1.126803
      39Ap     1.141008    40Ap     1.162230    28App    1.162242
      41Ap     1.221986    42Ap     1.273047    29App    1.273050
      43Ap     1.279285    30App    1.323309    44Ap     1.323311
      45Ap     1.354972    31App    1.363726    46Ap     1.363731
      32App    1.390366    47Ap     1.403293    33App    1.403295
      34App    1.415817    48Ap     1.415824    35App    1.425737
      36App    1.489388    49Ap     1.497157    37App    1.541565
      50Ap     1.541568    51Ap     1.573131    38App    1.573134
      52Ap     1.667738    53Ap     1.737350    39App    1.737362
      54Ap     1.765292    40App    1.827718    55Ap     1.827719
      41App    1.968729    56Ap     2.014929    57Ap     2.016724
      42App    2.016727    58Ap     2.047102    43App    2.047102
      44App    2.736906    59Ap     2.736907    60Ap     2.789547
      45App    2.808199    61Ap     2.888238    46App    2.888244
      62Ap     2.893341    63Ap     2.928923    47App    2.928931
      48App    2.958141    64Ap     2.964017    49App    2.964031
      65Ap     3.033137    50App    3.069395    66Ap     3.069409
      51App    3.081856    67Ap     3.168594    52App    3.168602
      68Ap     3.178433    53App    3.284829    69Ap     3.284830
      70Ap     3.327248    54App    3.327253    71Ap     3.377661
      55App    3.489364    72Ap     3.489383    56App    3.513526
      73Ap     3.523627    57App    3.568265    74Ap     3.568285
      58App    3.574699    75Ap     3.665691    59App    3.665699
      76Ap     3.675903    60App    3.691853    77Ap     3.691869
      78Ap     3.771804    61App    3.771829    79Ap     3.787862
      80Ap     3.909219    62App    3.909225    81Ap     4.030278
      82Ap     4.106043    63App    4.106048    83Ap     4.144097
      64App    4.144105    84Ap     4.169065    65App    4.199318
      85Ap     4.199322    86Ap     4.199847    66App    4.205561
      87Ap     4.312172    67App    4.312191    68App    4.354073
      88Ap     4.419832    69App    4.419834    70App    4.438989
      71App    4.511434    89Ap     4.511435    72App    4.573231
      90Ap     4.573243    91Ap     4.609573    92Ap     4.702656
      93Ap     4.766394    73App    4.766402    74App    4.830613
      94Ap     4.959050    75App    5.000246    95Ap     5.000258
      96Ap     5.221736    76App    5.240105    97Ap     5.240105
      98Ap     5.348303    77App    5.348316    78App    5.470404

    Beta Occupied:

       1Ap   -10.168681     1App  -10.168680     2Ap   -10.168653
       3Ap   -10.167346     4Ap    -0.780079     5Ap    -0.683352
       2App   -0.683351     6Ap    -0.511396     3App   -0.430434
       7Ap    -0.430434     8Ap    -0.421188     9Ap    -0.376380
       4App   -0.376379     5App   -0.362406     6App   -0.332934
      10Ap    -0.332934

    Beta Virtual:

      11Ap    -0.026006    12Ap     0.076771    13Ap     0.134637
       7App    0.134638    14Ap     0.143884     8App    0.143884
      15Ap     0.162996    16Ap     0.181750     9App    0.181751
      10App    0.214226    17Ap     0.218091    11App    0.281839
      18Ap     0.281841    19Ap     0.400444    12App    0.400448
      20Ap     0.419869    13App    0.426927    21Ap     0.426927
      22Ap     0.467470    23Ap     0.497189    14App    0.497190
      15App    0.513283    24Ap     0.555793    25Ap     0.583314
      16App    0.583322    17App    0.596711    26Ap     0.596711
      27Ap     0.608874    28Ap     0.626711    18App    0.630876
      19App    0.638116    29Ap     0.638120    30Ap     0.666200
      20App    0.666201    31Ap     0.685450    21App    0.685452
      32Ap     0.757561    22App    0.829897    33Ap     0.829900
      23App    0.853738    24App    0.921559    34Ap     0.921566
      25App    0.944008    35Ap     0.953395    26App    0.964963
      36Ap     0.964978    37Ap     1.007544    38Ap     1.130833
      27App    1.130844    39Ap     1.154384    40Ap     1.167271
      28App    1.167283    41Ap     1.230837    42Ap     1.278617
      29App    1.278620    43Ap     1.285116    30App    1.328275
      44Ap     1.328277    45Ap     1.364337    31App    1.368978
      46Ap     1.368983    32App    1.391419    47Ap     1.406796
      33App    1.406798    34App    1.420810    48Ap     1.420816
      35App    1.425983    36App    1.490432    49Ap     1.507536
      37App    1.546166    50Ap     1.546166    51Ap     1.580823
      38App    1.580824    52Ap     1.672503    53Ap     1.743102
      39App    1.743113    54Ap     1.776106    40App    1.831586
      55Ap     1.831587    41App    1.969588    56Ap     2.023135
      42App    2.023139    57Ap     2.036259    58Ap     2.053789
      43App    2.053789    44App    2.745324    59Ap     2.745325
      45App    2.808602    60Ap     2.814677    61Ap     2.901103
      46App    2.901109    62Ap     2.922951    63Ap     2.931290
      47App    2.931298    48App    2.959185    64Ap     2.968463
      49App    2.968477    65Ap     3.041064    50App    3.079164
      66Ap     3.079175    51App    3.083648    67Ap     3.184504
      52App    3.184508    68Ap     3.186106    53App    3.289506
      69Ap     3.289506    70Ap     3.331120    54App    3.331125
      71Ap     3.385473    55App    3.492063    72Ap     3.492083
      56App    3.511894    73Ap     3.526710    57App    3.574544
      58App    3.581568    74Ap     3.581589    75Ap     3.670260
      59App    3.670271    76Ap     3.689149    60App    3.723828
      77Ap     3.723843    78Ap     3.776307    61App    3.776333
      79Ap     3.816515    80Ap     3.919040    62App    3.919048
      81Ap     4.041111    82Ap     4.113058    63App    4.113061
      83Ap     4.151154    64App    4.151163    84Ap     4.183157
      65App    4.205262    85Ap     4.205266    86Ap     4.207826
      66App    4.209986    87Ap     4.319662    67App    4.319682
      68App    4.357465    88Ap     4.427972    69App    4.427974
      70App    4.441871    71App    4.519109    89Ap     4.519110
      72App    4.583847    90Ap     4.583858    91Ap     4.616789
      92Ap     4.712923    93Ap     4.773348    73App    4.773356
      74App    4.833526    94Ap     4.963849    75App    5.004266
      95Ap     5.004278    96Ap     5.227438    76App    5.241883
      97Ap     5.241883    98Ap     5.354757    77App    5.354770
      78App    5.472715

    Final Occupation by Irrep:
             Ap   App
    DOCC [    10,    6 ]
    SOCC [     1,    0 ]

  @DF-UKS Final Energy:  -157.81309036314252

   => Energetics <=

    Nuclear Repulsion Energy =            125.1763193659557771
    One-Electron Energy =                -458.3217861212355047
    Two-Electron Energy =                 195.6317069951586802
    DFT Exchange-Correlation Energy =     -20.2993306030214882
    Empirical Dispersion Energy =           0.0000000000000000
    VV10 Nonlocal Energy =                  0.0000000000000000
    Total Energy =                       -157.8130903631425213

  UHF NO Occupations:
  HONO-2 :    9 Ap 1.9996001
  HONO-1 :   10 Ap 1.9989741
  HONO-0 :   11 Ap 1.0000000
  LUNO+0 :   12 Ap 0.0010259
  LUNO+1 :   13 Ap 0.0003999
  LUNO+2 :    7App 0.0001994
  LUNO+3 :   14 Ap 0.0001994

Computation Completed

Properties will be evaluated at   0.000000,   0.000000,   0.000000 [a0]

Properties computed using the SCF density matrix

  Nuclear Dipole Moment: [e a0]
     X:     0.8274      Y:    -0.0000      Z:     0.0000

  Electronic Dipole Moment: [e a0]
     X:    -0.7493      Y:     0.0000      Z:     0.0000

  Dipole Moment: [e a0]
     X:     0.0781      Y:     0.0000      Z:     0.0000     Total:     0.0781

  Dipole Moment: [D]
     X:     0.1986      Y:     0.0000      Z:     0.0000     Total:     0.1986

*** tstop() called on n089 at Fri Nov  5 15:00:41 2021
Module time:
	user time   =     509.63 seconds =       8.49 minutes
	system time =       4.76 seconds =       0.08 minutes
	total time  =        129 seconds =       2.15 minutes
Total time:
	user time   =     509.63 seconds =       8.49 minutes
	system time =       4.76 seconds =       0.08 minutes
	total time  =        129 seconds =       2.15 minutes
Grab this energy -157.81309036314252
    Psi4 stopped on: Friday, 05 November 2021 03:00PM
    Psi4 wall time for execution: 0:02:09.34

*** Psi4 exiting successfully. Buy a developer a beer!
