                               Psi4 1.4a2.dev629

  ==> Input File <==

--------------------------------------------------------------------------
import os
memory 14 GB

molecule {
 C   -0.3236411513   -0.0000024954   -0.0004973694
 C    0.0600854275   -1.4034767243   -2.4312647685
 C    0.0611590628    2.8072041474   -0.0003834214
 C    0.0624710041   -1.4037246730    2.4309273748
 H    2.0908005711   -1.6471045998   -2.8528260667
 H   -0.7666245223   -0.3932701609   -4.0292779669
 H   -0.7679870415   -3.2932567371   -2.3555098462
 H    2.0870908266    3.2946961364   -0.0001803636
 H   -0.7670116689    3.6867205239    1.6771866572
 H   -0.7646125796    3.6857916090   -1.6765828419
 H    2.0836581475   -1.6476832500    2.8534689503
 H   -0.7634802526   -3.2974112540    2.3524751152
 H   -0.7645157001   -0.3885068357    4.0324645471
units bohr
0 2
}

basis {

assign 6-31g_2dfp_

[ 6-31g_2dfp_ ]

spherical

!----------------------------------------------------------------------
! Basis Set Exchange
! Version v0.8.13
! https://www.basissetexchange.org
!----------------------------------------------------------------------
!   Basis set: 6-31G(2df,p)
! Description: 6-31G(2df,p)
!        Role: orbital
!     Version: 0  (Data from the original Basis Set Exchange)
!----------------------------------------------------------------------

****
H     0
S    3   1.00
     18.7311370              0.03349460
      2.8253937              0.23472695
      0.6401217              0.81375733
S    1   1.00
      0.1612778              1.00000000
P    1   1.00
      1.5000000              1.0000000
P    1   1.00
      0.3750000              1.0000000
****
B     0
S    6   1.00
   2068.8823000              0.0018663
    310.6495700              0.0142515
     70.6830330              0.0695516
     19.8610800              0.2325729
      6.2993048              0.4670787
      2.1270270              0.3634314
SP   3   1.00
      4.7279710             -0.1303938              0.0745976
      1.1903377             -0.1307889              0.3078467
      0.3594117              1.1309444              0.7434568
SP   1   1.00
      0.1267512              1.0000000              1.0000000
D    1   1.00
      0.8020000              1.0000000
D    1   1.00
      0.2005000              1.0000000
F    1   1.00
      0.5000000              1.0000000
****
C     0
S    6   1.00
   3047.5249000              0.0018347
    457.3695100              0.0140373
    103.9486900              0.0688426
     29.2101550              0.2321844
      9.2866630              0.4679413
      3.1639270              0.3623120
SP   3   1.00
      7.8682724             -0.1193324              0.0689991
      1.8812885             -0.1608542              0.3164240
      0.5442493              1.1434564              0.7443083
SP   1   1.00
      0.1687144              1.0000000              1.0000000
D    1   1.00
      1.2520000              1.0000000
D    1   1.00
      0.3130000              1.0000000
F    1   1.00
      0.8000000              1.0000000
****
N     0
S    6   1.00
   4173.5110000              0.0018348
    627.4579000              0.0139950
    142.9021000              0.0685870
     40.2343300              0.2322410
     12.8202100              0.4690700
      4.3904370              0.3604550
SP   3   1.00
     11.6263580             -0.1149610              0.0675800
      2.7162800             -0.1691180              0.3239070
      0.7722180              1.1458520              0.7408950
SP   1   1.00
      0.2120313              1.0000000              1.0000000
D    1   1.00
      1.8260000              1.0000000
D    1   1.00
      0.4565000              1.0000000
F    1   1.00
      1.0000000              1.0000000
****
O     0
S    6   1.00
   5484.6717000              0.0018311
    825.2349500              0.0139501
    188.0469600              0.0684451
     52.9645000              0.2327143
     16.8975700              0.4701930
      5.7996353              0.3585209
SP   3   1.00
     15.5396160             -0.1107775              0.0708743
      3.5999336             -0.1480263              0.3397528
      1.0137618              1.1307670              0.7271586
SP   1   1.00
      0.2700058              1.0000000              1.0000000
D    1   1.00
      2.5840000              1.0000000
D    1   1.00
      0.6460000              1.0000000
F    1   1.00
      1.4000000              1.0000000
****
F     0
S    6   1.00
   7001.7130900              0.0018196169
   1051.3660900              0.0139160796
    239.2856900              0.0684053245
     67.3974453              0.233185760
     21.5199573              0.471267439
      7.40310130             0.356618546
SP   3   1.00
     20.8479528             -0.108506975            0.0716287243
      4.80830834            -0.146451658            0.3459121030
      1.34406986             1.128688580            0.7224699570
SP   1   1.00
      0.358151393            1.0000000              1.0000000
D    1   1.00
      3.5000000              1.0000000
D    1   1.00
      0.8750000              1.0000000
F    1   1.00
      1.8500000              1.0000000
****
Al     0
S    6   1.00
  13983.1000000              0.00194267
   2098.7500000              0.0148599
    477.7050000              0.0728494
    134.3600000              0.2468300
     42.8709000              0.4872580
     14.5189000              0.3234960
SP   6   1.00
    239.6680000             -0.00292619             0.00460285
     57.4419000             -0.0374080              0.0331990
     18.2859000             -0.1144870              0.1362820
      6.5991400              0.1156350              0.3304760
      2.4904900              0.6125950              0.4491460
      0.9445400              0.3937990              0.2657040
SP   3   1.00
      1.2779000             -0.2276060             -0.0175130
      0.3975900              0.00144583             0.2445330
      0.1600950              1.0927900              0.8049340
SP   1   1.00
      0.0556577              1.0000000              1.0000000
D    1   1.00
      0.6500000              1.0000000
D    1   1.00
      0.1625000              1.0000000
F    1   1.00
      0.2500000              1.0000000
****
Si     0
S    6   1.00
  16115.9000000              0.00195948
   2425.5800000              0.01492880
    553.8670000              0.07284780
    156.3400000              0.24613000
     50.0683000              0.48591400
     17.0178000              0.32500200
SP   6   1.00
    292.7180000             -0.00278094             0.00443826
     69.8731000             -0.03571460             0.03266790
     22.3363000             -0.11498500             0.13472100
      8.1503900              0.09356340             0.32867800
      3.1345800              0.60301700             0.44964000
      1.2254300              0.41895900             0.26137200
SP   3   1.00
      1.7273800             -0.24463000            -0.01779510
      0.5729220              0.00431572             0.25353900
      0.2221920              1.09818000             0.80066900
SP   1   1.00
      0.0778369              1.00000000             1.00000000
D    1   1.00
      0.9000000              1.0000000
D    1   1.00
      0.2250000              1.0000000
F    1   1.00
      0.3200000              1.0000000
****
P     0
S    6   1.00
  19413.3000000              0.0018516
   2909.4200000              0.0142062
    661.3640000              0.0699995
    185.7590000              0.2400790
     59.1943000              0.4847620
     20.0310000              0.3352000
SP   6   1.00
    339.4780000             -0.00278217             0.00456462
     81.0101000             -0.0360499              0.03369360
     25.8780000             -0.1166310              0.13975500
      9.4522100              0.0968328              0.33936200
      3.6656600              0.6144180              0.45092100
      1.4674600              0.4037980              0.23858600
SP   3   1.00
      2.1562300             -0.2529230             -0.01776530
      0.7489970              0.0328517              0.27405800
      0.2831450              1.0812500              0.78542100
SP   1   1.00
      0.0998317              1.0000000              1.00000000
D    1   1.00
      1.1000000              1.0000000
D    1   1.00
      0.2750000              1.0000000
F    1   1.00
      0.4500000              1.0000000
****
S     0
S    6   1.00
  21917.1000000              0.0018690
   3301.4900000              0.0142300
    754.1460000              0.0696960
    212.7110000              0.2384870
     67.9896000              0.4833070
     23.0515000              0.3380740
SP   6   1.00
    423.7350000             -0.0023767              0.0040610
    100.7100000             -0.0316930              0.0306810
     32.1599000             -0.1133170              0.1304520
     11.8079000              0.0560900              0.3272050
      4.6311000              0.5922550              0.4528510
      1.8702500              0.4550060              0.2560420
SP   3   1.00
      2.6158400             -0.2503740             -0.0145110
      0.9221670              0.0669570              0.3102630
      0.3412870              1.0545100              0.7544830
SP   1   1.00
      0.1171670              1.0000000              1.0000000
D    1   1.00
      1.3000000              1.0000000
D    1   1.00
      0.3250000              1.0000000
F    1   1.00
      0.5500000              1.0000000
****
Cl     0
S    6   1.00
  25180.1000000              0.0018330
   3780.3500000              0.0140340
    860.4740000              0.0690970
    242.1450000              0.2374520
     77.3349000              0.4830340
     26.2470000              0.3398560
SP   6   1.00
    491.7650000             -0.0022974              0.0039894
    116.9840000             -0.0307140              0.0303180
     37.4153000             -0.1125280              0.1298800
     13.7834000              0.0450160              0.3279510
      5.4521500              0.5893530              0.4535270
      2.2258800              0.4652060              0.2521540
SP   3   1.00
      3.1864900             -0.2518300             -0.0142990
      1.1442700              0.0615890              0.3235720
      0.4203770              1.0601800              0.7435070
SP   1   1.00
      0.1426570              1.0000000              1.0000000
D    1   1.00
      1.5000000              1.0000000
D    1   1.00
      0.3750000              1.0000000
F    1   1.00
      0.7000000              1.0000000
****
}

set {
reference uhf
freeze_core true
e_convergence 10
d_convergence 10
dft_spherical_points 1202
dft_radial_points 99
}

e = energy('b3lyp')

print_out('Grab this energy {0}'.format(e))
--------------------------------------------------------------------------

    Molecular point group: c1

    Geometry (in Bohr), charge = 0, multiplicity = 2:

       Center              X                  Y                   Z               Mass
    ------------   -----------------  -----------------  -----------------  -----------------
         C           -0.323663171686    -0.000002115097    -0.000262738291    12.000000000000
         C            0.060063407114    -1.403476343997    -2.431030137391    12.000000000000
         C            0.061137042414     2.807204527703    -0.000148790291    12.000000000000
         C            0.062448983714    -1.403724292697     2.431162005909    12.000000000000
         H            2.090778550714    -1.647104219497    -2.852591435591     1.007825032230
         H           -0.766646542686    -0.393269780597    -4.029043335791     1.007825032230
         H           -0.768009061886    -3.293256356797    -2.355275215091     1.007825032230
         H            2.087068806214     3.294696516703     0.000054267509     1.007825032230
         H           -0.767033689286     3.686720904203     1.677421288309     1.007825032230
         H           -0.764634599986     3.685791989303    -1.676348210791     1.007825032230
         H            2.083636127114    -1.647682869697     2.853703581409     1.007825032230
         H           -0.763502272986    -3.297410873697     2.352709746309     1.007825032230
         H           -0.764537720486    -0.388506455397     4.032699178209     1.007825032230

  Charge       = 0
  Multiplicity = 2
  Basis Set: ANONYMOUS0A689C30
    Blend: 6-31G_2DFP_
  Basis Set: (ANONYMOUS0A689C30 AUX)
    Blend: DEF2-UNIVERSAL-JKFIT

    Orbital Energies [Eh]
    ---------------------

    Alpha Occupied:

       1A    -10.181113     2A    -10.167407     3A    -10.167382
       4A    -10.167339     5A     -0.796721     6A     -0.685889
       7A     -0.685887     8A     -0.530780     9A     -0.440533
      10A     -0.434213    11A     -0.434169    12A     -0.382547
      13A     -0.382500    14A     -0.363729    15A     -0.337844
      16A     -0.337779    17A     -0.169286

    Alpha Virtual:

      18A      0.076101    19A      0.133948    20A      0.134279
      21A      0.142363    22A      0.142486    23A      0.154819
      24A      0.178518    25A      0.178690    26A      0.202438
      27A      0.214458    28A      0.275378    29A      0.275530
      30A      0.399215    31A      0.399281    32A      0.403547
      33A      0.424300    34A      0.424466    35A      0.456030
      36A      0.495019    37A      0.495306    38A      0.511827
      39A      0.513572    40A      0.577948    41A      0.578290
      42A      0.590936    43A      0.591236    44A      0.602133
      45A      0.624355    46A      0.631400    47A      0.635357
      48A      0.635565    49A      0.662563    50A      0.663313
      51A      0.683239    52A      0.683588    53A      0.735195
      54A      0.825540    55A      0.825574    56A      0.852916
      57A      0.914084    58A      0.914515    59A      0.942801
      60A      0.945180    61A      0.960213    62A      0.960465
      63A      1.002334    64A      1.127166    65A      1.127268
      66A      1.141872    67A      1.162368    68A      1.162619
      69A      1.222436    70A      1.273432    71A      1.273721
      72A      1.278850    73A      1.323973    74A      1.324067
      75A      1.355790    76A      1.364203    77A      1.364252
      78A      1.390938    79A      1.403846    80A      1.404809
      81A      1.416215    82A      1.417306    83A      1.426482
      84A      1.490294    85A      1.498506    86A      1.541641
      87A      1.542558    88A      1.573120    89A      1.573438
      90A      1.669892    91A      1.738617    92A      1.738909
      93A      1.766843    94A      1.829391    95A      1.831004
      96A      1.970344    97A      2.015924    98A      2.017549
      99A      2.018407   100A      2.047243   101A      2.049158
     102A      2.737472   103A      2.738292   104A      2.789762
     105A      2.808702   106A      2.888759   107A      2.888786
     108A      2.893446   109A      2.929321   110A      2.929335
     111A      2.958761   112A      2.964351   113A      2.965003
     114A      3.034046   115A      3.070313   116A      3.070368
     117A      3.082798   118A      3.167714   119A      3.168149
     120A      3.178748   121A      3.284465   122A      3.285112
     123A      3.326532   124A      3.326951   125A      3.376983
     126A      3.488174   127A      3.488535   128A      3.513232
     129A      3.522976   130A      3.568358   131A      3.568572
     132A      3.573046   133A      3.665729   134A      3.667132
     135A      3.677725   136A      3.692561   137A      3.692846
     138A      3.772323   139A      3.772352   140A      3.788421
     141A      3.910035   142A      3.910244   143A      4.032603
     144A      4.108022   145A      4.108908   146A      4.146825
     147A      4.147973   148A      4.172015   149A      4.199778
     150A      4.200941   151A      4.201969   152A      4.209299
     153A      4.313614   154A      4.315297   155A      4.356489
     156A      4.422085   157A      4.422742   158A      4.441013
     159A      4.513166   160A      4.514577   161A      4.574586
     162A      4.574839   163A      4.610269   164A      4.704687
     165A      4.767706   166A      4.768629   167A      4.832942
     168A      4.959852   169A      5.000599   170A      5.002068
     171A      5.226993   172A      5.243321   173A      5.247466
     174A      5.351718   175A      5.354161   176A      5.473678

    Beta Occupied:

       1A    -10.168162     2A    -10.168137     3A    -10.168109
       4A    -10.167260     5A     -0.780069     6A     -0.683715
       7A     -0.683707     8A     -0.511650     9A     -0.430599
      10A     -0.430568    11A     -0.421323    12A     -0.376691
      13A     -0.376601    14A     -0.362724    15A     -0.332955
      16A     -0.332905

    Beta Virtual:

      17A     -0.025775    18A      0.077098    19A      0.134855
      20A      0.135166    21A      0.144230    22A      0.144302
      23A      0.163232    24A      0.182144    25A      0.182354
      26A      0.214680    27A      0.218000    28A      0.281792
      29A      0.281950    30A      0.400354    31A      0.400417
      32A      0.420090    33A      0.427121    34A      0.427286
      35A      0.467583    36A      0.497259    37A      0.497561
      38A      0.513547    39A      0.555987    40A      0.583506
      41A      0.583820    42A      0.597153    43A      0.597498
      44A      0.609518    45A      0.627672    46A      0.631556
      47A      0.638565    48A      0.638772    49A      0.666198
      50A      0.666888    51A      0.685812    52A      0.686128
      53A      0.757896    54A      0.830689    55A      0.830727
      56A      0.854234    57A      0.922056    58A      0.922460
      59A      0.944635    60A      0.954199    61A      0.965465
      62A      0.965775    63A      1.007652    64A      1.131235
      65A      1.131256    66A      1.155236    67A      1.167405
      68A      1.167727    69A      1.231268    70A      1.278978
      71A      1.279291    72A      1.284671    73A      1.328968
      74A      1.329057    75A      1.365171    76A      1.369459
      77A      1.369499    78A      1.391987    79A      1.407307
      80A      1.408348    81A      1.421192    82A      1.422317
      83A      1.426718    84A      1.491343    85A      1.508886
      86A      1.546118    87A      1.547008    88A      1.580938
      89A      1.581229    90A      1.674730    91A      1.744379
      92A      1.744671    93A      1.777592    94A      1.833221
      95A      1.834850    96A      1.971201    97A      2.023850
      98A      2.024798    99A      2.037317   100A      2.053979
     101A      2.055801   102A      2.745911   103A      2.746715
     104A      2.809109   105A      2.814917   106A      2.901642
     107A      2.901738   108A      2.923064   109A      2.931614
     110A      2.931685   111A      2.959811   112A      2.968827
     113A      2.969506   114A      3.041891   115A      3.080031
     116A      3.080272   117A      3.084622   118A      3.183454
     119A      3.184103   120A      3.186505   121A      3.289080
     122A      3.289744   123A      3.330388   124A      3.330857
     125A      3.384817   126A      3.490963   127A      3.491241
     128A      3.511607   129A      3.526074   130A      3.572859
     131A      3.581642   132A      3.581955   133A      3.670526
     134A      3.672045   135A      3.691035   136A      3.724352
     137A      3.724671   138A      3.776770   139A      3.776880
     140A      3.817097   141A      3.919823   142A      3.920075
     143A      4.043559   144A      4.115123   145A      4.115982
     146A      4.153900   147A      4.154956   148A      4.185951
     149A      4.205786   150A      4.207335   151A      4.209362
     152A      4.213697   153A      4.321020   154A      4.322706
     155A      4.359871   156A      4.430195   157A      4.430853
     158A      4.443878   159A      4.520828   160A      4.522242
     161A      4.585155   162A      4.585431   163A      4.617479
     164A      4.714949   165A      4.774655   166A      4.775580
     167A      4.835860   168A      4.964624   169A      5.004618
     170A      5.006050   171A      5.232668   172A      5.245105
     173A      5.249227   174A      5.358134   175A      5.360597
     176A      5.475977

    Final Occupation by Irrep:
              A
    DOCC [    16 ]
    SOCC [     1 ]

  @DF-UKS Final Energy:  -157.81306326393275

   => Energetics <=

    Nuclear Repulsion Energy =            125.2136782846368277
    One-Electron Energy =                -458.3926047453090860
    Two-Electron Energy =                 195.6692166999083611
    DFT Exchange-Correlation Energy =     -20.3033535031688679
    Empirical Dispersion Energy =           0.0000000000000000
    VV10 Nonlocal Energy =                  0.0000000000000000
    Total Energy =                       -157.8130632639327473

  UHF NO Occupations:
  HONO-2 :   15  A 1.9996026
  HONO-1 :   16  A 1.9989734
  HONO-0 :   17  A 1.0000000
  LUNO+0 :   18  A 0.0010266
  LUNO+1 :   19  A 0.0003974
  LUNO+2 :   20  A 0.0001997
  LUNO+3 :   21  A 0.0001997

Computation Completed

Properties will be evaluated at   0.000000,   0.000000,   0.000000 [a0]

Properties computed using the SCF density matrix

  Nuclear Dipole Moment: [e a0]
     X:     0.8270      Y:    -0.0000      Z:     0.0017

  Electronic Dipole Moment: [e a0]
     X:    -0.7483      Y:     0.0000      Z:    -0.0023

  Dipole Moment: [e a0]
     X:     0.0788      Y:     0.0000      Z:    -0.0006     Total:     0.0788

  Dipole Moment: [D]
     X:     0.2002      Y:     0.0000      Z:    -0.0017     Total:     0.2002

*** tstop() called on n089 at Fri Nov  5 14:11:18 2021
Module time:
	user time   =     475.23 seconds =       7.92 minutes
	system time =       4.35 seconds =       0.07 minutes
	total time  =        121 seconds =       2.02 minutes
Total time:
	user time   =     475.23 seconds =       7.92 minutes
	system time =       4.35 seconds =       0.07 minutes
	total time  =        121 seconds =       2.02 minutes
Grab this energy -157.81306326393275
    Psi4 stopped on: Friday, 05 November 2021 02:11PM
    Psi4 wall time for execution: 0:02:00.63

*** Psi4 exiting successfully. Buy a developer a beer!
