                               Psi4 1.4a2.dev629

  ==> Input File <==

--------------------------------------------------------------------------
import os
memory 14 GB

molecule {
 C   -0.3233409325   -0.0000031664    0.0024282588
 C    0.0618293187   -1.4019628878   -2.4270083911
 C    0.0610196541    2.8017582973    0.0012515457
 C    0.0604502562   -1.3997933580    2.4257539159
 H    2.0891619104   -1.6422935388   -2.8476614106
 H   -0.7663535092   -0.3903715075   -4.0254524582
 H   -0.7621654273   -3.2952337430   -2.3516755121
 H    2.0867933014    3.2881011287   -0.0033533721
 H   -0.7612844351    3.6831487082    1.6798332591
 H   -0.7700022680    3.6773595079   -1.6731524293
 H    2.0847092230   -1.6458992029    2.8472202871
 H   -0.7689689056   -3.2887611865    2.3463043463
 H   -0.7644560628   -0.3860733648    4.0255119605
units bohr
0 2
}

basis {

assign 6-31g_2dfp_

[ 6-31g_2dfp_ ]

spherical

!----------------------------------------------------------------------
! Basis Set Exchange
! Version v0.8.13
! https://www.basissetexchange.org
!----------------------------------------------------------------------
!   Basis set: 6-31G(2df,p)
! Description: 6-31G(2df,p)
!        Role: orbital
!     Version: 0  (Data from the original Basis Set Exchange)
!----------------------------------------------------------------------

****
H     0
S    3   1.00
     18.7311370              0.03349460
      2.8253937              0.23472695
      0.6401217              0.81375733
S    1   1.00
      0.1612778              1.00000000
P    1   1.00
      1.5000000              1.0000000
P    1   1.00
      0.3750000              1.0000000
****
B     0
S    6   1.00
   2068.8823000              0.0018663
    310.6495700              0.0142515
     70.6830330              0.0695516
     19.8610800              0.2325729
      6.2993048              0.4670787
      2.1270270              0.3634314
SP   3   1.00
      4.7279710             -0.1303938              0.0745976
      1.1903377             -0.1307889              0.3078467
      0.3594117              1.1309444              0.7434568
SP   1   1.00
      0.1267512              1.0000000              1.0000000
D    1   1.00
      0.8020000              1.0000000
D    1   1.00
      0.2005000              1.0000000
F    1   1.00
      0.5000000              1.0000000
****
C     0
S    6   1.00
   3047.5249000              0.0018347
    457.3695100              0.0140373
    103.9486900              0.0688426
     29.2101550              0.2321844
      9.2866630              0.4679413
      3.1639270              0.3623120
SP   3   1.00
      7.8682724             -0.1193324              0.0689991
      1.8812885             -0.1608542              0.3164240
      0.5442493              1.1434564              0.7443083
SP   1   1.00
      0.1687144              1.0000000              1.0000000
D    1   1.00
      1.2520000              1.0000000
D    1   1.00
      0.3130000              1.0000000
F    1   1.00
      0.8000000              1.0000000
****
N     0
S    6   1.00
   4173.5110000              0.0018348
    627.4579000              0.0139950
    142.9021000              0.0685870
     40.2343300              0.2322410
     12.8202100              0.4690700
      4.3904370              0.3604550
SP   3   1.00
     11.6263580             -0.1149610              0.0675800
      2.7162800             -0.1691180              0.3239070
      0.7722180              1.1458520              0.7408950
SP   1   1.00
      0.2120313              1.0000000              1.0000000
D    1   1.00
      1.8260000              1.0000000
D    1   1.00
      0.4565000              1.0000000
F    1   1.00
      1.0000000              1.0000000
****
O     0
S    6   1.00
   5484.6717000              0.0018311
    825.2349500              0.0139501
    188.0469600              0.0684451
     52.9645000              0.2327143
     16.8975700              0.4701930
      5.7996353              0.3585209
SP   3   1.00
     15.5396160             -0.1107775              0.0708743
      3.5999336             -0.1480263              0.3397528
      1.0137618              1.1307670              0.7271586
SP   1   1.00
      0.2700058              1.0000000              1.0000000
D    1   1.00
      2.5840000              1.0000000
D    1   1.00
      0.6460000              1.0000000
F    1   1.00
      1.4000000              1.0000000
****
F     0
S    6   1.00
   7001.7130900              0.0018196169
   1051.3660900              0.0139160796
    239.2856900              0.0684053245
     67.3974453              0.233185760
     21.5199573              0.471267439
      7.40310130             0.356618546
SP   3   1.00
     20.8479528             -0.108506975            0.0716287243
      4.80830834            -0.146451658            0.3459121030
      1.34406986             1.128688580            0.7224699570
SP   1   1.00
      0.358151393            1.0000000              1.0000000
D    1   1.00
      3.5000000              1.0000000
D    1   1.00
      0.8750000              1.0000000
F    1   1.00
      1.8500000              1.0000000
****
Al     0
S    6   1.00
  13983.1000000              0.00194267
   2098.7500000              0.0148599
    477.7050000              0.0728494
    134.3600000              0.2468300
     42.8709000              0.4872580
     14.5189000              0.3234960
SP   6   1.00
    239.6680000             -0.00292619             0.00460285
     57.4419000             -0.0374080              0.0331990
     18.2859000             -0.1144870              0.1362820
      6.5991400              0.1156350              0.3304760
      2.4904900              0.6125950              0.4491460
      0.9445400              0.3937990              0.2657040
SP   3   1.00
      1.2779000             -0.2276060             -0.0175130
      0.3975900              0.00144583             0.2445330
      0.1600950              1.0927900              0.8049340
SP   1   1.00
      0.0556577              1.0000000              1.0000000
D    1   1.00
      0.6500000              1.0000000
D    1   1.00
      0.1625000              1.0000000
F    1   1.00
      0.2500000              1.0000000
****
Si     0
S    6   1.00
  16115.9000000              0.00195948
   2425.5800000              0.01492880
    553.8670000              0.07284780
    156.3400000              0.24613000
     50.0683000              0.48591400
     17.0178000              0.32500200
SP   6   1.00
    292.7180000             -0.00278094             0.00443826
     69.8731000             -0.03571460             0.03266790
     22.3363000             -0.11498500             0.13472100
      8.1503900              0.09356340             0.32867800
      3.1345800              0.60301700             0.44964000
      1.2254300              0.41895900             0.26137200
SP   3   1.00
      1.7273800             -0.24463000            -0.01779510
      0.5729220              0.00431572             0.25353900
      0.2221920              1.09818000             0.80066900
SP   1   1.00
      0.0778369              1.00000000             1.00000000
D    1   1.00
      0.9000000              1.0000000
D    1   1.00
      0.2250000              1.0000000
F    1   1.00
      0.3200000              1.0000000
****
P     0
S    6   1.00
  19413.3000000              0.0018516
   2909.4200000              0.0142062
    661.3640000              0.0699995
    185.7590000              0.2400790
     59.1943000              0.4847620
     20.0310000              0.3352000
SP   6   1.00
    339.4780000             -0.00278217             0.00456462
     81.0101000             -0.0360499              0.03369360
     25.8780000             -0.1166310              0.13975500
      9.4522100              0.0968328              0.33936200
      3.6656600              0.6144180              0.45092100
      1.4674600              0.4037980              0.23858600
SP   3   1.00
      2.1562300             -0.2529230             -0.01776530
      0.7489970              0.0328517              0.27405800
      0.2831450              1.0812500              0.78542100
SP   1   1.00
      0.0998317              1.0000000              1.00000000
D    1   1.00
      1.1000000              1.0000000
D    1   1.00
      0.2750000              1.0000000
F    1   1.00
      0.4500000              1.0000000
****
S     0
S    6   1.00
  21917.1000000              0.0018690
   3301.4900000              0.0142300
    754.1460000              0.0696960
    212.7110000              0.2384870
     67.9896000              0.4833070
     23.0515000              0.3380740
SP   6   1.00
    423.7350000             -0.0023767              0.0040610
    100.7100000             -0.0316930              0.0306810
     32.1599000             -0.1133170              0.1304520
     11.8079000              0.0560900              0.3272050
      4.6311000              0.5922550              0.4528510
      1.8702500              0.4550060              0.2560420
SP   3   1.00
      2.6158400             -0.2503740             -0.0145110
      0.9221670              0.0669570              0.3102630
      0.3412870              1.0545100              0.7544830
SP   1   1.00
      0.1171670              1.0000000              1.0000000
D    1   1.00
      1.3000000              1.0000000
D    1   1.00
      0.3250000              1.0000000
F    1   1.00
      0.5500000              1.0000000
****
Cl     0
S    6   1.00
  25180.1000000              0.0018330
   3780.3500000              0.0140340
    860.4740000              0.0690970
    242.1450000              0.2374520
     77.3349000              0.4830340
     26.2470000              0.3398560
SP   6   1.00
    491.7650000             -0.0022974              0.0039894
    116.9840000             -0.0307140              0.0303180
     37.4153000             -0.1125280              0.1298800
     13.7834000              0.0450160              0.3279510
      5.4521500              0.5893530              0.4535270
      2.2258800              0.4652060              0.2521540
SP   3   1.00
      3.1864900             -0.2518300             -0.0142990
      1.1442700              0.0615890              0.3235720
      0.4203770              1.0601800              0.7435070
SP   1   1.00
      0.1426570              1.0000000              1.0000000
D    1   1.00
      1.5000000              1.0000000
D    1   1.00
      0.3750000              1.0000000
F    1   1.00
      0.7000000              1.0000000
****
}

set {
reference uhf
freeze_core true
e_convergence 10
d_convergence 10
dft_spherical_points 1202
dft_radial_points 99
}

e = energy('b3lyp')

print_out('Grab this energy {0}'.format(e))
--------------------------------------------------------------------------

    Molecular point group: c1

    Geometry (in Bohr), charge = 0, multiplicity = 2:

       Center              X                  Y                   Z               Mass
    ------------   -----------------  -----------------  -----------------  -----------------
         C           -0.323340601475    -0.000002522301     0.001961122908    12.000000000000
         C            0.061829649725    -1.401962243701    -2.427475526992    12.000000000000
         C            0.061019985125     2.801758941399     0.000784409808    12.000000000000
         C            0.060450587225    -1.399792713901     2.425286780008    12.000000000000
         H            2.089162241425    -1.642292894701    -2.848128546492     1.007825032230
         H           -0.766353178175    -0.390370863401    -4.025919594092     1.007825032230
         H           -0.762165096275    -3.295233098901    -2.352142647992     1.007825032230
         H            2.086793632425     3.288101772799    -0.003820507992     1.007825032230
         H           -0.761284104075     3.683149352299     1.679366123208     1.007825032230
         H           -0.770001936975     3.677360151999    -1.673619565192     1.007825032230
         H            2.084709554025    -1.645898558801     2.846753151208     1.007825032230
         H           -0.768968574575    -3.288760542401     2.345837210408     1.007825032230
         H           -0.764455731775    -0.386072720701     4.025044824608     1.007825032230

  Charge       = 0
  Multiplicity = 2
  Basis Set: ANONYMOUS38062644
    Blend: 6-31G_2DFP_
  Basis Set: (ANONYMOUS38062644 AUX)
    Blend: DEF2-UNIVERSAL-JKFIT

    Orbital Energies [Eh]
    ---------------------

    Alpha Occupied:

       1A    -10.180341     2A    -10.167204     3A    -10.167015
       4A    -10.166825     5A     -0.797767     6A     -0.686329
       7A     -0.686043     8A     -0.530776     9A     -0.441125
      10A     -0.434743    11A     -0.434600    12A     -0.382644
      13A     -0.382554    14A     -0.363610    15A     -0.338147
      16A     -0.337850    17A     -0.168960

    Alpha Virtual:

      18A      0.076073    19A      0.134093    20A      0.134220
      21A      0.142615    22A      0.142640    23A      0.154879
      24A      0.178774    25A      0.178780    26A      0.203547
      27A      0.214802    28A      0.275650    29A      0.276321
      30A      0.399216    31A      0.399230    32A      0.403356
      33A      0.424064    34A      0.424132    35A      0.456594
      36A      0.495339    37A      0.495440    38A      0.512160
      39A      0.513978    40A      0.578627    41A      0.579002
      42A      0.591408    43A      0.591863    44A      0.602573
      45A      0.624762    46A      0.631771    47A      0.636160
      48A      0.636340    49A      0.663208    50A      0.663617
      51A      0.683832    52A      0.683872    53A      0.734995
      54A      0.825377    55A      0.825438    56A      0.853916
      57A      0.914894    58A      0.915160    59A      0.944123
      60A      0.944614    61A      0.961252    62A      0.961335
      63A      1.003454    64A      1.128057    65A      1.128143
      66A      1.142209    67A      1.163162    68A      1.163403
      69A      1.223326    70A      1.274307    71A      1.274672
      72A      1.279360    73A      1.324236    74A      1.324479
      75A      1.355997    76A      1.365755    77A      1.366347
      78A      1.392448    79A      1.403733    80A      1.404372
      81A      1.416843    82A      1.417374    83A      1.427917
      84A      1.491494    85A      1.499081    86A      1.542692
      87A      1.542966    88A      1.574222    89A      1.574667
      90A      1.669830    91A      1.739152    92A      1.739686
      93A      1.768312    94A      1.830979    95A      1.831806
      96A      1.971728    97A      2.018190    98A      2.019027
      99A      2.019158   100A      2.051676   101A      2.053615
     102A      2.738429   103A      2.738536   104A      2.790928
     105A      2.811421   106A      2.889510   107A      2.890344
     108A      2.894997   109A      2.929325   110A      2.929669
     111A      2.958993   112A      2.964112   113A      2.964639
     114A      3.034008   115A      3.070991   116A      3.071578
     117A      3.084347   118A      3.168717   119A      3.168822
     120A      3.180612   121A      3.285270   122A      3.285360
     123A      3.326716   124A      3.327602   125A      3.375619
     126A      3.489927   127A      3.490397   128A      3.514004
     129A      3.525316   130A      3.567564   131A      3.569231
     132A      3.575144   133A      3.666166   134A      3.666577
     135A      3.679673   136A      3.693779   137A      3.694465
     138A      3.775449   139A      3.778115   140A      3.789166
     141A      3.911737   142A      3.912718   143A      4.034452
     144A      4.110347   145A      4.112396   146A      4.147569
     147A      4.148676   148A      4.173245   149A      4.202342
     150A      4.202839   151A      4.203602   152A      4.210873
     153A      4.315445   154A      4.316476   155A      4.358979
     156A      4.423954   157A      4.424952   158A      4.443437
     159A      4.516076   160A      4.517594   161A      4.577595
     162A      4.578927   163A      4.617528   164A      4.709449
     165A      4.773998   166A      4.775225   167A      4.836910
     168A      4.962849   169A      5.002333   170A      5.003581
     171A      5.228027   172A      5.246690   173A      5.246933
     174A      5.354554   175A      5.356463   176A      5.479350

    Beta Occupied:

       1A    -10.167960     2A    -10.167775     3A    -10.167589
       4A    -10.166518     5A     -0.781092     6A     -0.684120
       7A     -0.683857     8A     -0.511747     9A     -0.431121
      10A     -0.430963    11A     -0.421822    12A     -0.376717
      13A     -0.376651    14A     -0.362595    15A     -0.333271
      16A     -0.332972

    Beta Virtual:

      17A     -0.025742    18A      0.077081    19A      0.134979
      20A      0.135113    21A      0.144475    22A      0.144520
      23A      0.163337    24A      0.182444    25A      0.182454
      26A      0.215031    27A      0.218929    28A      0.282008
      29A      0.282658    30A      0.400395    31A      0.400398
      32A      0.419793    33A      0.426862    34A      0.426956
      35A      0.468502    36A      0.497607    37A      0.497693
      38A      0.513895    39A      0.556323    40A      0.584166
      41A      0.584565    42A      0.597608    43A      0.598021
      44A      0.609996    45A      0.628138    46A      0.631929
      47A      0.639425    48A      0.639647    49A      0.666783
      50A      0.667169    51A      0.686479    52A      0.686496
      53A      0.757517    54A      0.830573    55A      0.830579
      56A      0.855269    57A      0.922862    58A      0.923135
      59A      0.945960    60A      0.953542    61A      0.966529
      62A      0.966670    63A      1.008694    64A      1.132034
      65A      1.132225    66A      1.155583    67A      1.168299
      68A      1.168414    69A      1.232299    70A      1.279897
      71A      1.280273    72A      1.285117    73A      1.329238
      74A      1.329456    75A      1.365414    76A      1.371036
      77A      1.371551    78A      1.393505    79A      1.407170
      80A      1.407864    81A      1.421900    82A      1.422416
      83A      1.428188    84A      1.492542    85A      1.509525
      86A      1.547129    87A      1.547342    88A      1.582138
      89A      1.582496    90A      1.674677    91A      1.744900
      92A      1.745461    93A      1.779092    94A      1.834828
      95A      1.835668    96A      1.972587    97A      2.025360
      98A      2.025516    99A      2.039675   100A      2.058427
     101A      2.060299   102A      2.746738   103A      2.746899
     104A      2.811834   105A      2.816062   106A      2.902278
     107A      2.903000   108A      2.924638   109A      2.931817
     110A      2.932157   111A      2.960055   112A      2.968673
     113A      2.969168   114A      3.041943   115A      3.080942
     116A      3.081447   117A      3.086164   118A      3.184365
     119A      3.184622   120A      3.188347   121A      3.290065
     122A      3.290161   123A      3.330527   124A      3.331399
     125A      3.383438   126A      3.492637   127A      3.493149
     128A      3.512372   129A      3.528364   130A      3.574990
     131A      3.580938   132A      3.582543   133A      3.671050
     134A      3.671205   135A      3.692950   136A      3.725568
     137A      3.725943   138A      3.780030   139A      3.782609
     140A      3.817687   141A      3.921598   142A      3.922492
     143A      4.045339   144A      4.117165   145A      4.119208
     146A      4.154844   147A      4.155818   148A      4.187305
     149A      4.208495   150A      4.209417   151A      4.210711
     152A      4.215349   153A      4.322853   154A      4.323948
     155A      4.362341   156A      4.432189   157A      4.433144
     158A      4.446325   159A      4.523877   160A      4.525372
     161A      4.588191   162A      4.589530   163A      4.624724
     164A      4.719794   165A      4.780992   166A      4.782138
     167A      4.839827   168A      4.967643   169A      5.006354
     170A      5.007639   171A      5.233742   172A      5.248463
     173A      5.248729   174A      5.361014   175A      5.362965
     176A      5.481672

    Final Occupation by Irrep:
              A
    DOCC [    16 ]
    SOCC [     1 ]

  @DF-UKS Final Energy:  -157.81306934766152

   => Energetics <=

    Nuclear Repulsion Energy =            125.3946127120637186
    One-Electron Energy =                -458.7488922748706273
    Two-Electron Energy =                 195.8483535097924744
    DFT Exchange-Correlation Energy =     -20.3071432946470551
    Empirical Dispersion Energy =           0.0000000000000000
    VV10 Nonlocal Energy =                  0.0000000000000000
    Total Energy =                       -157.8130693476615249

  UHF NO Occupations:
  HONO-2 :   15  A 1.9996009
  HONO-1 :   16  A 1.9989805
  HONO-0 :   17  A 1.0000000
  LUNO+0 :   18  A 0.0010195
  LUNO+1 :   19  A 0.0003991
  LUNO+2 :   20  A 0.0001981
  LUNO+3 :   21  A 0.0001970

Computation Completed

Properties will be evaluated at   0.000000,   0.000000,   0.000000 [a0]

Properties computed using the SCF density matrix

  Nuclear Dipole Moment: [e a0]
     X:     0.8272      Y:    -0.0000      Z:    -0.0033

  Electronic Dipole Moment: [e a0]
     X:    -0.7493      Y:     0.0000      Z:     0.0033

  Dipole Moment: [e a0]
     X:     0.0779      Y:     0.0000      Z:    -0.0000     Total:     0.0779

  Dipole Moment: [D]
     X:     0.1980      Y:     0.0000      Z:    -0.0001     Total:     0.1980

*** tstop() called on n065 at Fri Nov  5 15:47:51 2021
Module time:
	user time   =     541.99 seconds =       9.03 minutes
	system time =      12.01 seconds =       0.20 minutes
	total time  =        139 seconds =       2.32 minutes
Total time:
	user time   =     541.99 seconds =       9.03 minutes
	system time =      12.01 seconds =       0.20 minutes
	total time  =        139 seconds =       2.32 minutes
Grab this energy -157.81306934766152
    Psi4 stopped on: Friday, 05 November 2021 03:47PM
    Psi4 wall time for execution: 0:02:19.33

*** Psi4 exiting successfully. Buy a developer a beer!
