                               Psi4 1.4a2.dev629

  ==> Input File <==

--------------------------------------------------------------------------
import os
memory 14 GB

molecule {
 C   -0.3233174823   -0.0002589503   -0.0000000000
 C    0.0602093220   -1.4006326772   -2.4272873659
 C    0.0631635363    2.8024092555    0.0000000000
 C    0.0602093220   -1.4006326772    2.4272873659
 H    2.0838865989   -1.6444505004   -2.8476480346
 H   -0.7636784522   -0.3905917515   -4.0239323040
 H   -0.7636045556   -3.2896823935   -2.3500572158
 H    2.0834437033    3.2884666430   -0.0000000000
 H   -0.7647617300    3.6800366917    1.6735025702
 H   -0.7647617300    3.6800366917   -1.6735025702
 H    2.0838865989   -1.6444505004    2.8476480346
 H   -0.7636045556   -3.2896823935    2.3500572158
 H   -0.7636784522   -0.3905917515    4.0239323040
units bohr
0 2
}

basis {

assign 6-31g_2dfp_

[ 6-31g_2dfp_ ]

spherical

!----------------------------------------------------------------------
! Basis Set Exchange
! Version v0.8.13
! https://www.basissetexchange.org
!----------------------------------------------------------------------
!   Basis set: 6-31G(2df,p)
! Description: 6-31G(2df,p)
!        Role: orbital
!     Version: 0  (Data from the original Basis Set Exchange)
!----------------------------------------------------------------------

****
H     0
S    3   1.00
     18.7311370              0.03349460
      2.8253937              0.23472695
      0.6401217              0.81375733
S    1   1.00
      0.1612778              1.00000000
P    1   1.00
      1.5000000              1.0000000
P    1   1.00
      0.3750000              1.0000000
****
B     0
S    6   1.00
   2068.8823000              0.0018663
    310.6495700              0.0142515
     70.6830330              0.0695516
     19.8610800              0.2325729
      6.2993048              0.4670787
      2.1270270              0.3634314
SP   3   1.00
      4.7279710             -0.1303938              0.0745976
      1.1903377             -0.1307889              0.3078467
      0.3594117              1.1309444              0.7434568
SP   1   1.00
      0.1267512              1.0000000              1.0000000
D    1   1.00
      0.8020000              1.0000000
D    1   1.00
      0.2005000              1.0000000
F    1   1.00
      0.5000000              1.0000000
****
C     0
S    6   1.00
   3047.5249000              0.0018347
    457.3695100              0.0140373
    103.9486900              0.0688426
     29.2101550              0.2321844
      9.2866630              0.4679413
      3.1639270              0.3623120
SP   3   1.00
      7.8682724             -0.1193324              0.0689991
      1.8812885             -0.1608542              0.3164240
      0.5442493              1.1434564              0.7443083
SP   1   1.00
      0.1687144              1.0000000              1.0000000
D    1   1.00
      1.2520000              1.0000000
D    1   1.00
      0.3130000              1.0000000
F    1   1.00
      0.8000000              1.0000000
****
N     0
S    6   1.00
   4173.5110000              0.0018348
    627.4579000              0.0139950
    142.9021000              0.0685870
     40.2343300              0.2322410
     12.8202100              0.4690700
      4.3904370              0.3604550
SP   3   1.00
     11.6263580             -0.1149610              0.0675800
      2.7162800             -0.1691180              0.3239070
      0.7722180              1.1458520              0.7408950
SP   1   1.00
      0.2120313              1.0000000              1.0000000
D    1   1.00
      1.8260000              1.0000000
D    1   1.00
      0.4565000              1.0000000
F    1   1.00
      1.0000000              1.0000000
****
O     0
S    6   1.00
   5484.6717000              0.0018311
    825.2349500              0.0139501
    188.0469600              0.0684451
     52.9645000              0.2327143
     16.8975700              0.4701930
      5.7996353              0.3585209
SP   3   1.00
     15.5396160             -0.1107775              0.0708743
      3.5999336             -0.1480263              0.3397528
      1.0137618              1.1307670              0.7271586
SP   1   1.00
      0.2700058              1.0000000              1.0000000
D    1   1.00
      2.5840000              1.0000000
D    1   1.00
      0.6460000              1.0000000
F    1   1.00
      1.4000000              1.0000000
****
F     0
S    6   1.00
   7001.7130900              0.0018196169
   1051.3660900              0.0139160796
    239.2856900              0.0684053245
     67.3974453              0.233185760
     21.5199573              0.471267439
      7.40310130             0.356618546
SP   3   1.00
     20.8479528             -0.108506975            0.0716287243
      4.80830834            -0.146451658            0.3459121030
      1.34406986             1.128688580            0.7224699570
SP   1   1.00
      0.358151393            1.0000000              1.0000000
D    1   1.00
      3.5000000              1.0000000
D    1   1.00
      0.8750000              1.0000000
F    1   1.00
      1.8500000              1.0000000
****
Al     0
S    6   1.00
  13983.1000000              0.00194267
   2098.7500000              0.0148599
    477.7050000              0.0728494
    134.3600000              0.2468300
     42.8709000              0.4872580
     14.5189000              0.3234960
SP   6   1.00
    239.6680000             -0.00292619             0.00460285
     57.4419000             -0.0374080              0.0331990
     18.2859000             -0.1144870              0.1362820
      6.5991400              0.1156350              0.3304760
      2.4904900              0.6125950              0.4491460
      0.9445400              0.3937990              0.2657040
SP   3   1.00
      1.2779000             -0.2276060             -0.0175130
      0.3975900              0.00144583             0.2445330
      0.1600950              1.0927900              0.8049340
SP   1   1.00
      0.0556577              1.0000000              1.0000000
D    1   1.00
      0.6500000              1.0000000
D    1   1.00
      0.1625000              1.0000000
F    1   1.00
      0.2500000              1.0000000
****
Si     0
S    6   1.00
  16115.9000000              0.00195948
   2425.5800000              0.01492880
    553.8670000              0.07284780
    156.3400000              0.24613000
     50.0683000              0.48591400
     17.0178000              0.32500200
SP   6   1.00
    292.7180000             -0.00278094             0.00443826
     69.8731000             -0.03571460             0.03266790
     22.3363000             -0.11498500             0.13472100
      8.1503900              0.09356340             0.32867800
      3.1345800              0.60301700             0.44964000
      1.2254300              0.41895900             0.26137200
SP   3   1.00
      1.7273800             -0.24463000            -0.01779510
      0.5729220              0.00431572             0.25353900
      0.2221920              1.09818000             0.80066900
SP   1   1.00
      0.0778369              1.00000000             1.00000000
D    1   1.00
      0.9000000              1.0000000
D    1   1.00
      0.2250000              1.0000000
F    1   1.00
      0.3200000              1.0000000
****
P     0
S    6   1.00
  19413.3000000              0.0018516
   2909.4200000              0.0142062
    661.3640000              0.0699995
    185.7590000              0.2400790
     59.1943000              0.4847620
     20.0310000              0.3352000
SP   6   1.00
    339.4780000             -0.00278217             0.00456462
     81.0101000             -0.0360499              0.03369360
     25.8780000             -0.1166310              0.13975500
      9.4522100              0.0968328              0.33936200
      3.6656600              0.6144180              0.45092100
      1.4674600              0.4037980              0.23858600
SP   3   1.00
      2.1562300             -0.2529230             -0.01776530
      0.7489970              0.0328517              0.27405800
      0.2831450              1.0812500              0.78542100
SP   1   1.00
      0.0998317              1.0000000              1.00000000
D    1   1.00
      1.1000000              1.0000000
D    1   1.00
      0.2750000              1.0000000
F    1   1.00
      0.4500000              1.0000000
****
S     0
S    6   1.00
  21917.1000000              0.0018690
   3301.4900000              0.0142300
    754.1460000              0.0696960
    212.7110000              0.2384870
     67.9896000              0.4833070
     23.0515000              0.3380740
SP   6   1.00
    423.7350000             -0.0023767              0.0040610
    100.7100000             -0.0316930              0.0306810
     32.1599000             -0.1133170              0.1304520
     11.8079000              0.0560900              0.3272050
      4.6311000              0.5922550              0.4528510
      1.8702500              0.4550060              0.2560420
SP   3   1.00
      2.6158400             -0.2503740             -0.0145110
      0.9221670              0.0669570              0.3102630
      0.3412870              1.0545100              0.7544830
SP   1   1.00
      0.1171670              1.0000000              1.0000000
D    1   1.00
      1.3000000              1.0000000
D    1   1.00
      0.3250000              1.0000000
F    1   1.00
      0.5500000              1.0000000
****
Cl     0
S    6   1.00
  25180.1000000              0.0018330
   3780.3500000              0.0140340
    860.4740000              0.0690970
    242.1450000              0.2374520
     77.3349000              0.4830340
     26.2470000              0.3398560
SP   6   1.00
    491.7650000             -0.0022974              0.0039894
    116.9840000             -0.0307140              0.0303180
     37.4153000             -0.1125280              0.1298800
     13.7834000              0.0450160              0.3279510
      5.4521500              0.5893530              0.4535270
      2.2258800              0.4652060              0.2521540
SP   3   1.00
      3.1864900             -0.2518300             -0.0142990
      1.1442700              0.0615890              0.3235720
      0.4203770              1.0601800              0.7435070
SP   1   1.00
      0.1426570              1.0000000              1.0000000
D    1   1.00
      1.5000000              1.0000000
D    1   1.00
      0.3750000              1.0000000
F    1   1.00
      0.7000000              1.0000000
****
}

set {
reference uhf
freeze_core true
e_convergence 10
d_convergence 10
dft_spherical_points 1202
dft_radial_points 99
}

e = energy('b3lyp')

print_out('Grab this energy {0}'.format(e))
--------------------------------------------------------------------------

    Molecular point group: cs

    Geometry (in Bohr), charge = 0, multiplicity = 2:

       Center              X                  Y                   Z               Mass
    ------------   -----------------  -----------------  -----------------  -----------------
         C           -0.323376166414    -0.000428968836     0.000000000000    12.000000000000
         C            0.060150637886    -1.400802695736    -2.427287365900    12.000000000000
         C            0.063104852186     2.802239236964     0.000000000000    12.000000000000
         C            0.060150637886    -1.400802695736     2.427287365900    12.000000000000
         H            2.083827914786    -1.644620518936    -2.847648034600     1.007825032230
         H           -0.763737136314    -0.390761770036    -4.023932304000     1.007825032230
         H           -0.763663239714    -3.289852412036    -2.350057215800     1.007825032230
         H            2.083385019186     3.288296624464     0.000000000000     1.007825032230
         H           -0.764820414114     3.679866673164     1.673502570200     1.007825032230
         H           -0.764820414114     3.679866673164    -1.673502570200     1.007825032230
         H            2.083827914786    -1.644620518936     2.847648034600     1.007825032230
         H           -0.763663239714    -3.289852412036     2.350057215800     1.007825032230
         H           -0.763737136314    -0.390761770036     4.023932304000     1.007825032230

  Charge       = 0
  Multiplicity = 2
  Basis Set: ANONYMOUSD479D7B3
    Blend: 6-31G_2DFP_
  Basis Set: (ANONYMOUSD479D7B3 AUX)
    Blend: DEF2-UNIVERSAL-JKFIT

    Orbital Energies [Eh]
    ---------------------

    Alpha Occupied:

       1Ap   -10.180274     1App  -10.166510     2Ap   -10.166491
       3Ap   -10.166436     4Ap    -0.797727     2App   -0.686580
       5Ap    -0.686514     6Ap    -0.531087     7Ap    -0.441226
       8Ap    -0.434909     3App   -0.434709     9Ap    -0.383009
       4App   -0.382707     5App   -0.363927     6App   -0.338089
      10Ap    -0.337920    11Ap    -0.168899

    Alpha Virtual:

      12Ap     0.076404     7App    0.134489    13Ap     0.134553
       8App    0.142976    14Ap     0.143100    15Ap     0.155178
       9App    0.179171    16Ap     0.179399    17Ap     0.203437
      10App    0.215257    18Ap     0.275954    11App    0.276063
      19Ap     0.399011    12App    0.399333    20Ap     0.403554
      21Ap     0.424322    13App    0.424419    22Ap     0.456725
      23Ap     0.495585    14App    0.495643    15App    0.512432
      24Ap     0.514112    16App    0.579072    25Ap     0.579235
      17App    0.592114    26Ap     0.592353    27Ap     0.603225
      28Ap     0.625742    18App    0.632478    19App    0.636701
      29Ap     0.636921    20App    0.663577    30Ap     0.663923
      31Ap     0.684255    21App    0.684556    32Ap     0.735304
      33Ap     0.826213    22App    0.826237    23App    0.854431
      24App    0.915716    34Ap     0.915763    25App    0.944753
      35Ap     0.945405    26App    0.961861    36Ap     0.962032
      37Ap     1.003552    27App    1.128429    38Ap     1.128632
      39Ap     1.143091    28App    1.163439    40Ap     1.163611
      41Ap     1.223766    29App    1.274889    42Ap     1.275163
      43Ap     1.278902    30App    1.324808    44Ap     1.325321
      45Ap     1.356843    46Ap     1.366250    31App    1.366858
      32App    1.393033    33App    1.404965    47Ap     1.405196
      34App    1.417738    48Ap     1.418342    35App    1.428662
      36App    1.492389    49Ap     1.500432    37App    1.543287
      50Ap     1.543341    51Ap     1.574503    38App    1.574786
      52Ap     1.671985    39App    1.740448    53Ap     1.741249
      54Ap     1.769857    55Ap     1.833692    40App    1.834089
      41App    1.973357    56Ap     2.019347    42App    2.019628
      57Ap     2.020899    43App    2.053345    58Ap     2.054095
      44App    2.739423    59Ap     2.739504    60Ap     2.791138
      45App    2.811941    61Ap     2.890238    46App    2.890788
      62Ap     2.895018    63Ap     2.929850    47App    2.929924
      48App    2.959623    49App    2.964939    64Ap     2.965136
      65Ap     3.034922    66Ap     3.072126    50App    3.072345
      51App    3.085288    52App    3.168009    67Ap     3.168245
      68Ap     3.180885    53App    3.285245    69Ap     3.285315
      54App    3.326502    70Ap     3.326815    71Ap     3.374917
      72Ap     3.488864    55App    3.489469    56App    3.513729
      73Ap     3.524715    57App    3.568452    74Ap     3.568695
      58App    3.573477    59App    3.666779    75Ap     3.667396
      76Ap     3.681458    77Ap     3.694960    60App    3.694999
      61App    3.777316    78Ap     3.777377    79Ap     3.789677
      80Ap     3.913075    62App    3.913248    81Ap     4.036788
      82Ap     4.113739    63App    4.113943    83Ap     4.151398
      64App    4.151498    84Ap     4.176230    85Ap     4.203948
      65App    4.204334    86Ap     4.204828    66App    4.214553
      87Ap     4.317778    67App    4.318647    68App    4.361405
      88Ap     4.426906    69App    4.427156    70App    4.445433
      71App    4.518216    89Ap     4.520324    90Ap     4.579552
      72App    4.579958    91Ap     4.618204    92Ap     4.711482
      73App    4.775850    93Ap     4.776879    74App    4.839230
      94Ap     4.963676    75App    5.003604    95Ap     5.004503
      96Ap     5.233341    76App    5.252082    97Ap     5.252131
      98Ap     5.359840    77App    5.360369    78App    5.482594

    Beta Occupied:

       1App  -10.167261     1Ap   -10.167252     2Ap   -10.167204
       3Ap   -10.166431     4Ap    -0.781079     2App   -0.684381
       5Ap    -0.684315     6Ap    -0.512000     7Ap    -0.431297
       3App   -0.431084     8Ap    -0.421957     9Ap    -0.377111
       4App   -0.376792     5App   -0.362915     6App   -0.333204
      10Ap    -0.333032

    Beta Virtual:

      11Ap    -0.025510    12Ap     0.077409     7App    0.135395
      13Ap     0.135443     8App    0.144823    14Ap     0.144939
      15Ap     0.163574     9App    0.182831    16Ap     0.183062
      10App    0.215484    17Ap     0.218839    18Ap     0.282315
      11App    0.282417    19Ap     0.400177    12App    0.400499
      20Ap     0.420013    21Ap     0.427133    13App    0.427235
      22Ap     0.468614    23Ap     0.497848    14App    0.497899
      15App    0.514161    24Ap     0.556515    16App    0.584643
      25Ap     0.584798    17App    0.598310    26Ap     0.598558
      27Ap     0.610636    28Ap     0.629105    18App    0.632628
      19App    0.639964    29Ap     0.640187    20App    0.667161
      30Ap     0.667476    31Ap     0.686853    21App    0.687159
      32Ap     0.757853    33Ap     0.831382    22App    0.831401
      23App    0.855760    24App    0.923673    34Ap     0.923719
      25App    0.946589    35Ap     0.954356    26App    0.967153
      36Ap     0.967337    37Ap     1.008804    27App    1.132405
      38Ap     1.132684    39Ap     1.156461    28App    1.168589
      40Ap     1.168665    41Ap     1.232722    29App    1.280469
      42Ap     1.280754    43Ap     1.284642    30App    1.329813
      44Ap     1.330347    45Ap     1.366283    46Ap     1.371492
      31App    1.372099    32App    1.394085    33App    1.408414
      47Ap     1.408671    34App    1.422804    48Ap     1.423378
      35App    1.428920    36App    1.493443    49Ap     1.510876
      50Ap     1.547549    37App    1.547635    51Ap     1.582536
      38App    1.582711    52Ap     1.676908    39App    1.746222
      53Ap     1.747011    54Ap     1.780578    55Ap     1.837517
      40App    1.837914    41App    1.974212    42App    2.025994
      56Ap     2.027262    57Ap     2.040744    43App    2.060083
      58Ap     2.060780    44App    2.747776    59Ap     2.747848
      45App    2.812355    60Ap     2.816299    61Ap     2.902980
      46App    2.903512    62Ap     2.924766    63Ap     2.932282
      47App    2.932351    48App    2.960691    49App    2.969529
      64Ap     2.969717    65Ap     3.042778    66Ap     3.082102
      50App    3.082300    51App    3.087120    52App    3.183735
      67Ap     3.183924    68Ap     3.188622    53App    3.289999
      69Ap     3.290050    54App    3.330300    70Ap     3.330641
      71Ap     3.382758    72Ap     3.491641    55App    3.492243
      56App    3.512099    73Ap     3.527775    57App    3.573329
      58App    3.581876    74Ap     3.581989    59App    3.671881
      75Ap     3.672364    76Ap     3.694816    60App    3.726299
      77Ap     3.726589    61App    3.781837    78Ap     3.781875
      79Ap     3.818251    80Ap     3.922862    62App    3.923067
      81Ap     4.047800    82Ap     4.120684    63App    4.120780
      83Ap     4.158527    64App    4.158719    84Ap     4.190146
      65App    4.210265    85Ap     4.210581    86Ap     4.212028
      66App    4.218998    87Ap     4.325112    67App    4.326028
      68App    4.364760    88Ap     4.435106    69App    4.435330
      70App    4.448296    71App    4.525999    89Ap     4.528099
      90Ap     4.590136    72App    4.590512    91Ap     4.625388
      92Ap     4.721822    73App    4.782818    93Ap     4.783811
      74App    4.842152    94Ap     4.968444    75App    5.007641
      95Ap     5.008505    96Ap     5.239032    76App    5.253860
      97Ap     5.253909    98Ap     5.366294    77App    5.366821
      78App    5.484903

    Final Occupation by Irrep:
             Ap   App
    DOCC [    10,    6 ]
    SOCC [     1,    0 ]

  @DF-UKS Final Energy:  -157.81302099481005

   => Energetics <=

    Nuclear Repulsion Energy =            125.4320354676856510
    One-Electron Energy =                -458.8198003049462841
    Two-Electron Energy =                 195.8859163373982142
    DFT Exchange-Correlation Energy =     -20.3111724949476127
    Empirical Dispersion Energy =           0.0000000000000000
    VV10 Nonlocal Energy =                  0.0000000000000000
    Total Energy =                       -157.8130209948100457

  UHF NO Occupations:
  HONO-2 :    9 Ap 1.9996034
  HONO-1 :   10 Ap 1.9989798
  HONO-0 :   11 Ap 1.0000000
  LUNO+0 :   12 Ap 0.0010202
  LUNO+1 :   13 Ap 0.0003966
  LUNO+2 :   14 Ap 0.0001980
  LUNO+3 :    7App 0.0001978

Computation Completed

Properties will be evaluated at   0.000000,   0.000000,   0.000000 [a0]

Properties computed using the SCF density matrix

  Nuclear Dipole Moment: [e a0]
     X:     0.8268      Y:    -0.0012      Z:     0.0000

  Electronic Dipole Moment: [e a0]
     X:    -0.7482      Y:     0.0011      Z:     0.0000

  Dipole Moment: [e a0]
     X:     0.0785      Y:    -0.0001      Z:     0.0000     Total:     0.0785

  Dipole Moment: [D]
     X:     0.1996      Y:    -0.0003      Z:     0.0000     Total:     0.1996

*** tstop() called on n080 at Fri Nov  5 12:33:22 2021
Module time:
	user time   =     493.24 seconds =       8.22 minutes
	system time =       4.66 seconds =       0.08 minutes
	total time  =        125 seconds =       2.08 minutes
Total time:
	user time   =     493.24 seconds =       8.22 minutes
	system time =       4.66 seconds =       0.08 minutes
	total time  =        125 seconds =       2.08 minutes
Grab this energy -157.81302099481005
    Psi4 stopped on: Friday, 05 November 2021 12:33PM
    Psi4 wall time for execution: 0:02:05.22

*** Psi4 exiting successfully. Buy a developer a beer!
