                               Psi4 1.4a2.dev629

  ==> Input File <==

--------------------------------------------------------------------------
import os
memory 14 GB

molecule {
 C   -0.3233264618   -0.0053459608    0.0000000000
 C    0.0612487749   -1.4025422610   -2.4273443077
 C    0.0613509685    2.8033424194    0.0000000000
 C    0.0612487749   -1.4025422610    2.4273443077
 H    2.0871056169   -1.6429501426   -2.8471809710
 H   -0.7647738209   -0.3873350381   -4.0258098335
 H   -0.7663823990   -3.2908889310   -2.3477346080
 H    2.0866126307    3.2882088988   -0.0000000000
 H   -0.7658206789    3.6806015371    1.6762140892
 H   -0.7658206789    3.6806015371   -1.6762140892
 H    2.0871056169   -1.6429501426    2.8471809710
 H   -0.7663823990   -3.2908889310    2.3477346080
 H   -0.7647738209   -0.3873350381    4.0258098335
units bohr
0 2
}

basis {

assign 6-31g_2dfp_

[ 6-31g_2dfp_ ]

spherical

!----------------------------------------------------------------------
! Basis Set Exchange
! Version v0.8.13
! https://www.basissetexchange.org
!----------------------------------------------------------------------
!   Basis set: 6-31G(2df,p)
! Description: 6-31G(2df,p)
!        Role: orbital
!     Version: 0  (Data from the original Basis Set Exchange)
!----------------------------------------------------------------------

****
H     0
S    3   1.00
     18.7311370              0.03349460
      2.8253937              0.23472695
      0.6401217              0.81375733
S    1   1.00
      0.1612778              1.00000000
P    1   1.00
      1.5000000              1.0000000
P    1   1.00
      0.3750000              1.0000000
****
B     0
S    6   1.00
   2068.8823000              0.0018663
    310.6495700              0.0142515
     70.6830330              0.0695516
     19.8610800              0.2325729
      6.2993048              0.4670787
      2.1270270              0.3634314
SP   3   1.00
      4.7279710             -0.1303938              0.0745976
      1.1903377             -0.1307889              0.3078467
      0.3594117              1.1309444              0.7434568
SP   1   1.00
      0.1267512              1.0000000              1.0000000
D    1   1.00
      0.8020000              1.0000000
D    1   1.00
      0.2005000              1.0000000
F    1   1.00
      0.5000000              1.0000000
****
C     0
S    6   1.00
   3047.5249000              0.0018347
    457.3695100              0.0140373
    103.9486900              0.0688426
     29.2101550              0.2321844
      9.2866630              0.4679413
      3.1639270              0.3623120
SP   3   1.00
      7.8682724             -0.1193324              0.0689991
      1.8812885             -0.1608542              0.3164240
      0.5442493              1.1434564              0.7443083
SP   1   1.00
      0.1687144              1.0000000              1.0000000
D    1   1.00
      1.2520000              1.0000000
D    1   1.00
      0.3130000              1.0000000
F    1   1.00
      0.8000000              1.0000000
****
N     0
S    6   1.00
   4173.5110000              0.0018348
    627.4579000              0.0139950
    142.9021000              0.0685870
     40.2343300              0.2322410
     12.8202100              0.4690700
      4.3904370              0.3604550
SP   3   1.00
     11.6263580             -0.1149610              0.0675800
      2.7162800             -0.1691180              0.3239070
      0.7722180              1.1458520              0.7408950
SP   1   1.00
      0.2120313              1.0000000              1.0000000
D    1   1.00
      1.8260000              1.0000000
D    1   1.00
      0.4565000              1.0000000
F    1   1.00
      1.0000000              1.0000000
****
O     0
S    6   1.00
   5484.6717000              0.0018311
    825.2349500              0.0139501
    188.0469600              0.0684451
     52.9645000              0.2327143
     16.8975700              0.4701930
      5.7996353              0.3585209
SP   3   1.00
     15.5396160             -0.1107775              0.0708743
      3.5999336             -0.1480263              0.3397528
      1.0137618              1.1307670              0.7271586
SP   1   1.00
      0.2700058              1.0000000              1.0000000
D    1   1.00
      2.5840000              1.0000000
D    1   1.00
      0.6460000              1.0000000
F    1   1.00
      1.4000000              1.0000000
****
F     0
S    6   1.00
   7001.7130900              0.0018196169
   1051.3660900              0.0139160796
    239.2856900              0.0684053245
     67.3974453              0.233185760
     21.5199573              0.471267439
      7.40310130             0.356618546
SP   3   1.00
     20.8479528             -0.108506975            0.0716287243
      4.80830834            -0.146451658            0.3459121030
      1.34406986             1.128688580            0.7224699570
SP   1   1.00
      0.358151393            1.0000000              1.0000000
D    1   1.00
      3.5000000              1.0000000
D    1   1.00
      0.8750000              1.0000000
F    1   1.00
      1.8500000              1.0000000
****
Al     0
S    6   1.00
  13983.1000000              0.00194267
   2098.7500000              0.0148599
    477.7050000              0.0728494
    134.3600000              0.2468300
     42.8709000              0.4872580
     14.5189000              0.3234960
SP   6   1.00
    239.6680000             -0.00292619             0.00460285
     57.4419000             -0.0374080              0.0331990
     18.2859000             -0.1144870              0.1362820
      6.5991400              0.1156350              0.3304760
      2.4904900              0.6125950              0.4491460
      0.9445400              0.3937990              0.2657040
SP   3   1.00
      1.2779000             -0.2276060             -0.0175130
      0.3975900              0.00144583             0.2445330
      0.1600950              1.0927900              0.8049340
SP   1   1.00
      0.0556577              1.0000000              1.0000000
D    1   1.00
      0.6500000              1.0000000
D    1   1.00
      0.1625000              1.0000000
F    1   1.00
      0.2500000              1.0000000
****
Si     0
S    6   1.00
  16115.9000000              0.00195948
   2425.5800000              0.01492880
    553.8670000              0.07284780
    156.3400000              0.24613000
     50.0683000              0.48591400
     17.0178000              0.32500200
SP   6   1.00
    292.7180000             -0.00278094             0.00443826
     69.8731000             -0.03571460             0.03266790
     22.3363000             -0.11498500             0.13472100
      8.1503900              0.09356340             0.32867800
      3.1345800              0.60301700             0.44964000
      1.2254300              0.41895900             0.26137200
SP   3   1.00
      1.7273800             -0.24463000            -0.01779510
      0.5729220              0.00431572             0.25353900
      0.2221920              1.09818000             0.80066900
SP   1   1.00
      0.0778369              1.00000000             1.00000000
D    1   1.00
      0.9000000              1.0000000
D    1   1.00
      0.2250000              1.0000000
F    1   1.00
      0.3200000              1.0000000
****
P     0
S    6   1.00
  19413.3000000              0.0018516
   2909.4200000              0.0142062
    661.3640000              0.0699995
    185.7590000              0.2400790
     59.1943000              0.4847620
     20.0310000              0.3352000
SP   6   1.00
    339.4780000             -0.00278217             0.00456462
     81.0101000             -0.0360499              0.03369360
     25.8780000             -0.1166310              0.13975500
      9.4522100              0.0968328              0.33936200
      3.6656600              0.6144180              0.45092100
      1.4674600              0.4037980              0.23858600
SP   3   1.00
      2.1562300             -0.2529230             -0.01776530
      0.7489970              0.0328517              0.27405800
      0.2831450              1.0812500              0.78542100
SP   1   1.00
      0.0998317              1.0000000              1.00000000
D    1   1.00
      1.1000000              1.0000000
D    1   1.00
      0.2750000              1.0000000
F    1   1.00
      0.4500000              1.0000000
****
S     0
S    6   1.00
  21917.1000000              0.0018690
   3301.4900000              0.0142300
    754.1460000              0.0696960
    212.7110000              0.2384870
     67.9896000              0.4833070
     23.0515000              0.3380740
SP   6   1.00
    423.7350000             -0.0023767              0.0040610
    100.7100000             -0.0316930              0.0306810
     32.1599000             -0.1133170              0.1304520
     11.8079000              0.0560900              0.3272050
      4.6311000              0.5922550              0.4528510
      1.8702500              0.4550060              0.2560420
SP   3   1.00
      2.6158400             -0.2503740             -0.0145110
      0.9221670              0.0669570              0.3102630
      0.3412870              1.0545100              0.7544830
SP   1   1.00
      0.1171670              1.0000000              1.0000000
D    1   1.00
      1.3000000              1.0000000
D    1   1.00
      0.3250000              1.0000000
F    1   1.00
      0.5500000              1.0000000
****
Cl     0
S    6   1.00
  25180.1000000              0.0018330
   3780.3500000              0.0140340
    860.4740000              0.0690970
    242.1450000              0.2374520
     77.3349000              0.4830340
     26.2470000              0.3398560
SP   6   1.00
    491.7650000             -0.0022974              0.0039894
    116.9840000             -0.0307140              0.0303180
     37.4153000             -0.1125280              0.1298800
     13.7834000              0.0450160              0.3279510
      5.4521500              0.5893530              0.4535270
      2.2258800              0.4652060              0.2521540
SP   3   1.00
      3.1864900             -0.2518300             -0.0142990
      1.1442700              0.0615890              0.3235720
      0.4203770              1.0601800              0.7435070
SP   1   1.00
      0.1426570              1.0000000              1.0000000
D    1   1.00
      1.5000000              1.0000000
D    1   1.00
      0.3750000              1.0000000
F    1   1.00
      0.7000000              1.0000000
****
}

set {
reference uhf
freeze_core true
e_convergence 10
d_convergence 10
dft_spherical_points 1202
dft_radial_points 99
}

e = energy('b3lyp')

print_out('Grab this energy {0}'.format(e))
--------------------------------------------------------------------------

    Molecular point group: cs

    Geometry (in Bohr), charge = 0, multiplicity = 2:

       Center              X                  Y                   Z               Mass
    ------------   -----------------  -----------------  -----------------  -----------------
         C           -0.323434715013    -0.003980319371     0.000000000000    12.000000000000
         C            0.061140521687    -1.401176619571    -2.427344307700    12.000000000000
         C            0.061242715287     2.804708060829     0.000000000000    12.000000000000
         C            0.061140521687    -1.401176619571     2.427344307700    12.000000000000
         H            2.086997363687    -1.641584501171    -2.847180971000     1.007825032230
         H           -0.764882074113    -0.385969396671    -4.025809833500     1.007825032230
         H           -0.766490652213    -3.289523289571    -2.347734608000     1.007825032230
         H            2.086504377487     3.289574540229     0.000000000000     1.007825032230
         H           -0.765928932113     3.681967178529     1.676214089200     1.007825032230
         H           -0.765928932113     3.681967178529    -1.676214089200     1.007825032230
         H            2.086997363687    -1.641584501171     2.847180971000     1.007825032230
         H           -0.766490652213    -3.289523289571     2.347734608000     1.007825032230
         H           -0.764882074113    -0.385969396671     4.025809833500     1.007825032230

  Charge       = 0
  Multiplicity = 2
  Basis Set: ANONYMOUS18B5D3B6
    Blend: 6-31G_2DFP_
  Basis Set: (ANONYMOUS18B5D3B6 AUX)
    Blend: DEF2-UNIVERSAL-JKFIT

    Orbital Energies [Eh]
    ---------------------

    Alpha Occupied:

       1Ap   -10.180393     2Ap   -10.167002     1App  -10.166961
       3Ap   -10.166924     4Ap    -0.797512     2App   -0.686366
       5Ap    -0.685988     6Ap    -0.530609     7Ap    -0.441121
       8Ap    -0.434813     3App   -0.434390     4App   -0.382855
       9Ap    -0.382621     5App   -0.363810     6App   -0.338358
      10Ap    -0.337317    11Ap    -0.168940

    Alpha Virtual:

      12Ap     0.076080     7App    0.134200    13Ap     0.134227
      14Ap     0.142585     8App    0.142936    15Ap     0.154774
      16Ap     0.178937     9App    0.178951    17Ap     0.203252
      10App    0.214927    18Ap     0.275455    11App    0.276030
      19Ap     0.399110    12App    0.399361    20Ap     0.403435
      21Ap     0.424150    13App    0.424152    22Ap     0.456412
      23Ap     0.495350    14App    0.495448    15App    0.512215
      24Ap     0.514035    25Ap     0.578653    16App    0.579057
      17App    0.591734    26Ap     0.591752    27Ap     0.602617
      28Ap     0.624871    18App    0.632005    29Ap     0.636057
      19App    0.636341    20App    0.663230    30Ap     0.663365
      21App    0.683817    31Ap     0.683915    32Ap     0.735125
      33Ap     0.825280    22App    0.825494    23App    0.853780
      24App    0.914952    34Ap     0.915175    25App    0.944080
      35Ap     0.944307    36Ap     0.961192    26App    0.961524
      37Ap     1.003623    38Ap     1.127741    27App    1.128286
      39Ap     1.141847    40Ap     1.163480    28App    1.164272
      41Ap     1.222908    29App    1.273899    42Ap     1.274827
      43Ap     1.279187    44Ap     1.324061    30App    1.324251
      45Ap     1.355659    46Ap     1.365652    31App    1.366182
      32App    1.392929    47Ap     1.404729    33App    1.404813
      34App    1.416809    48Ap     1.417434    35App    1.428181
      36App    1.490968    49Ap     1.499660    50Ap     1.542667
      37App    1.542672    38App    1.574325    51Ap     1.574366
      52Ap     1.670611    53Ap     1.738710    39App    1.739115
      54Ap     1.768338    55Ap     1.831577    40App    1.832090
      41App    1.971138    42App    2.017729    56Ap     2.018500
      57Ap     2.018883    58Ap     2.051705    43App    2.052746
      59Ap     2.738074    44App    2.738551    60Ap     2.790699
      45App    2.811337    61Ap     2.889286    46App    2.890405
      62Ap     2.894530    63Ap     2.929259    47App    2.930043
      48App    2.959040    49App    2.964267    64Ap     2.964548
      65Ap     3.033829    66Ap     3.070850    50App    3.071833
      51App    3.083947    52App    3.168622    67Ap     3.168681
      68Ap     3.180062    69Ap     3.285348    53App    3.285938
      54App    3.326531    70Ap     3.327288    71Ap     3.375693
      72Ap     3.489548    55App    3.490566    56App    3.513871
      73Ap     3.524985    57App    3.567910    74Ap     3.568383
      58App    3.575284    59App    3.666846    75Ap     3.667464
      76Ap     3.680235    60App    3.694233    77Ap     3.694241
      78Ap     3.775973    61App    3.777501    79Ap     3.789457
      80Ap     3.910661    62App    3.911588    81Ap     4.033884
      82Ap     4.111327    63App    4.111955    83Ap     4.147155
      64App    4.149105    84Ap     4.172583    85Ap     4.201296
      86Ap     4.202482    65App    4.202798    66App    4.210521
      87Ap     4.315500    67App    4.316646    68App    4.359614
      88Ap     4.425577    69App    4.425691    70App    4.445404
      89Ap     4.516381    71App    4.516638    90Ap     4.577396
      72App    4.577411    91Ap     4.617444    92Ap     4.708182
      93Ap     4.773252    73App    4.774346    74App    4.835556
      94Ap     4.964141    75App    5.003599    95Ap     5.004128
      96Ap     5.228568    97Ap     5.247075    76App    5.247124
      98Ap     5.354784    77App    5.355904    78App    5.478133

    Beta Occupied:

       1Ap   -10.167752     1App  -10.167713     2Ap   -10.167695
       3Ap   -10.166559     4Ap    -0.780852     2App   -0.684163
       5Ap    -0.683808     6Ap    -0.511534     7Ap    -0.431209
       3App   -0.430783     8Ap    -0.421851     4App   -0.376916
       9Ap    -0.376763     5App   -0.362797     6App   -0.333477
      10Ap    -0.332416

    Beta Virtual:

      11Ap    -0.025573    12Ap     0.077086    13Ap     0.135092
       7App    0.135098    14Ap     0.144464     8App    0.144794
      15Ap     0.163191    16Ap     0.182581     9App    0.182619
      10App    0.215154    17Ap     0.218684    18Ap     0.281857
      11App    0.282363    19Ap     0.400275    12App    0.400520
      20Ap     0.419875    21Ap     0.426949    13App    0.426972
      22Ap     0.468244    23Ap     0.497601    14App    0.497703
      15App    0.513941    24Ap     0.556409    25Ap     0.584185
      16App    0.584632    26Ap     0.597929    17App    0.597932
      27Ap     0.610047    28Ap     0.628208    18App    0.632156
      29Ap     0.639315    19App    0.639624    20App    0.666798
      30Ap     0.666921    21App    0.686440    31Ap     0.686541
      32Ap     0.757725    33Ap     0.830437    22App    0.830643
      23App    0.855121    24App    0.922900    34Ap     0.923176
      25App    0.945909    35Ap     0.953223    36Ap     0.966482
      26App    0.966829    37Ap     1.008872    38Ap     1.131820
      27App    1.132295    39Ap     1.155170    40Ap     1.168569
      28App    1.169348    41Ap     1.231938    29App    1.279517
      42Ap     1.280340    43Ap     1.284963    44Ap     1.329040
      30App    1.329207    45Ap     1.365064    46Ap     1.371005
      31App    1.371439    32App    1.393978    47Ap     1.408110
      33App    1.408298    34App    1.421862    48Ap     1.422476
      35App    1.428465    36App    1.492004    49Ap     1.510082
      50Ap     1.547046    37App    1.547065    51Ap     1.582231
      38App    1.582239    52Ap     1.675464    53Ap     1.744470
      39App    1.744882    54Ap     1.779077    55Ap     1.835393
      40App    1.835935    41App    1.971990    42App    2.024086
      56Ap     2.025188    57Ap     2.039887    58Ap     2.058478
      43App    2.059485    59Ap     2.746411    44App    2.746948
      45App    2.811750    60Ap     2.815869    61Ap     2.902100
      46App    2.903044    62Ap     2.924201    63Ap     2.931658
      47App    2.932548    48App    2.960107    49App    2.968780
      64Ap     2.969060    65Ap     3.041721    66Ap     3.080792
      50App    3.081623    51App    3.085754    67Ap     3.184295
      52App    3.184559    68Ap     3.187907    69Ap     3.290138
      53App    3.290647    54App    3.330338    70Ap     3.331101
      71Ap     3.383480    72Ap     3.492261    55App    3.493292
      56App    3.512242    73Ap     3.528067    57App    3.575131
      58App    3.581373    74Ap     3.581749    59App    3.671869
      75Ap     3.672316    76Ap     3.693532    60App    3.725611
      77Ap     3.725885    78Ap     3.780466    61App    3.781955
      79Ap     3.818028    80Ap     3.920523    62App    3.921441
      81Ap     4.044850    82Ap     4.118093    63App    4.118631
      83Ap     4.154440    64App    4.156338    84Ap     4.186590
      85Ap     4.207764    65App    4.208717    86Ap     4.209896
      66App    4.214981    87Ap     4.322967    67App    4.324243
      68App    4.362955    88Ap     4.433737    69App    4.433828
      70App    4.448290    89Ap     4.524060    71App    4.524413
      90Ap     4.587951    72App    4.587998    91Ap     4.624638
      92Ap     4.718527    93Ap     4.780172    73App    4.781336
      74App    4.838476    94Ap     4.968911    75App    5.007631
      95Ap     5.008133    96Ap     5.234267    97Ap     5.248855
      76App    5.248892    98Ap     5.361210    77App    5.362382
      78App    5.480447

    Final Occupation by Irrep:
             Ap   App
    DOCC [    10,    6 ]
    SOCC [     1,    0 ]

  @DF-UKS Final Energy:  -157.81304064989294

   => Energetics <=

    Nuclear Repulsion Energy =            125.3667333858272315
    One-Electron Energy =                -458.6940134207308688
    Two-Electron Energy =                 195.8215013508324205
    DFT Exchange-Correlation Energy =     -20.3072619658217164
    Empirical Dispersion Energy =           0.0000000000000000
    VV10 Nonlocal Energy =                  0.0000000000000000
    Total Energy =                       -157.8130406498929403

  UHF NO Occupations:
  HONO-2 :    9 Ap 1.9996025
  HONO-1 :   10 Ap 1.9989782
  HONO-0 :   11 Ap 1.0000000
  LUNO+0 :   12 Ap 0.0010218
  LUNO+1 :   13 Ap 0.0003975
  LUNO+2 :   14 Ap 0.0001994
  LUNO+3 :    7App 0.0001973

Computation Completed

Properties will be evaluated at   0.000000,   0.000000,   0.000000 [a0]

Properties computed using the SCF density matrix

  Nuclear Dipole Moment: [e a0]
     X:     0.8264      Y:     0.0096      Z:     0.0000

  Electronic Dipole Moment: [e a0]
     X:    -0.7484      Y:    -0.0108      Z:     0.0000

  Dipole Moment: [e a0]
     X:     0.0780      Y:    -0.0012      Z:     0.0000     Total:     0.0781

  Dipole Moment: [D]
     X:     0.1984      Y:    -0.0031      Z:     0.0000     Total:     0.1984

*** tstop() called on n089 at Fri Nov  5 13:19:46 2021
Module time:
	user time   =     586.40 seconds =       9.77 minutes
	system time =       5.46 seconds =       0.09 minutes
	total time  =        149 seconds =       2.48 minutes
Total time:
	user time   =     586.40 seconds =       9.77 minutes
	system time =       5.46 seconds =       0.09 minutes
	total time  =        149 seconds =       2.48 minutes
Grab this energy -157.81304064989294
    Psi4 stopped on: Friday, 05 November 2021 01:19PM
    Psi4 wall time for execution: 0:02:28.76

*** Psi4 exiting successfully. Buy a developer a beer!
