                               Psi4 1.4a2.dev629

  ==> Input File <==

--------------------------------------------------------------------------
import os
memory 14 GB

molecule {
 C   -0.3233326931    0.0024343150    0.0049959570
 C    0.0620633430   -1.3941227177   -2.4230854268
 C    0.0602234215    2.8004930143   -0.0062229981
 C    0.0610156695   -1.4063637564    2.4318352738
 H    2.0888962049   -1.6376194855   -2.8415507169
 H   -0.7613812209   -0.3785173474   -4.0233263234
 H   -0.7663382230   -3.2830780041   -2.3493534769
 H    2.0842228590    3.2888995146   -0.0111411588
 H   -0.7643100144    3.6849453339    1.6672900494
 H   -0.7698216406    3.6697537620   -1.6861523232
 H    2.0875406908   -1.6551815218    2.8497012328
 H   -0.7709286562   -3.2946007919    2.3497904013
 H   -0.7604576173   -0.3970666284    4.0372195098
units bohr
0 2
}

basis {

assign 6-31g_2dfp_

[ 6-31g_2dfp_ ]

spherical

!----------------------------------------------------------------------
! Basis Set Exchange
! Version v0.8.13
! https://www.basissetexchange.org
!----------------------------------------------------------------------
!   Basis set: 6-31G(2df,p)
! Description: 6-31G(2df,p)
!        Role: orbital
!     Version: 0  (Data from the original Basis Set Exchange)
!----------------------------------------------------------------------

****
H     0
S    3   1.00
     18.7311370              0.03349460
      2.8253937              0.23472695
      0.6401217              0.81375733
S    1   1.00
      0.1612778              1.00000000
P    1   1.00
      1.5000000              1.0000000
P    1   1.00
      0.3750000              1.0000000
****
B     0
S    6   1.00
   2068.8823000              0.0018663
    310.6495700              0.0142515
     70.6830330              0.0695516
     19.8610800              0.2325729
      6.2993048              0.4670787
      2.1270270              0.3634314
SP   3   1.00
      4.7279710             -0.1303938              0.0745976
      1.1903377             -0.1307889              0.3078467
      0.3594117              1.1309444              0.7434568
SP   1   1.00
      0.1267512              1.0000000              1.0000000
D    1   1.00
      0.8020000              1.0000000
D    1   1.00
      0.2005000              1.0000000
F    1   1.00
      0.5000000              1.0000000
****
C     0
S    6   1.00
   3047.5249000              0.0018347
    457.3695100              0.0140373
    103.9486900              0.0688426
     29.2101550              0.2321844
      9.2866630              0.4679413
      3.1639270              0.3623120
SP   3   1.00
      7.8682724             -0.1193324              0.0689991
      1.8812885             -0.1608542              0.3164240
      0.5442493              1.1434564              0.7443083
SP   1   1.00
      0.1687144              1.0000000              1.0000000
D    1   1.00
      1.2520000              1.0000000
D    1   1.00
      0.3130000              1.0000000
F    1   1.00
      0.8000000              1.0000000
****
N     0
S    6   1.00
   4173.5110000              0.0018348
    627.4579000              0.0139950
    142.9021000              0.0685870
     40.2343300              0.2322410
     12.8202100              0.4690700
      4.3904370              0.3604550
SP   3   1.00
     11.6263580             -0.1149610              0.0675800
      2.7162800             -0.1691180              0.3239070
      0.7722180              1.1458520              0.7408950
SP   1   1.00
      0.2120313              1.0000000              1.0000000
D    1   1.00
      1.8260000              1.0000000
D    1   1.00
      0.4565000              1.0000000
F    1   1.00
      1.0000000              1.0000000
****
O     0
S    6   1.00
   5484.6717000              0.0018311
    825.2349500              0.0139501
    188.0469600              0.0684451
     52.9645000              0.2327143
     16.8975700              0.4701930
      5.7996353              0.3585209
SP   3   1.00
     15.5396160             -0.1107775              0.0708743
      3.5999336             -0.1480263              0.3397528
      1.0137618              1.1307670              0.7271586
SP   1   1.00
      0.2700058              1.0000000              1.0000000
D    1   1.00
      2.5840000              1.0000000
D    1   1.00
      0.6460000              1.0000000
F    1   1.00
      1.4000000              1.0000000
****
F     0
S    6   1.00
   7001.7130900              0.0018196169
   1051.3660900              0.0139160796
    239.2856900              0.0684053245
     67.3974453              0.233185760
     21.5199573              0.471267439
      7.40310130             0.356618546
SP   3   1.00
     20.8479528             -0.108506975            0.0716287243
      4.80830834            -0.146451658            0.3459121030
      1.34406986             1.128688580            0.7224699570
SP   1   1.00
      0.358151393            1.0000000              1.0000000
D    1   1.00
      3.5000000              1.0000000
D    1   1.00
      0.8750000              1.0000000
F    1   1.00
      1.8500000              1.0000000
****
Al     0
S    6   1.00
  13983.1000000              0.00194267
   2098.7500000              0.0148599
    477.7050000              0.0728494
    134.3600000              0.2468300
     42.8709000              0.4872580
     14.5189000              0.3234960
SP   6   1.00
    239.6680000             -0.00292619             0.00460285
     57.4419000             -0.0374080              0.0331990
     18.2859000             -0.1144870              0.1362820
      6.5991400              0.1156350              0.3304760
      2.4904900              0.6125950              0.4491460
      0.9445400              0.3937990              0.2657040
SP   3   1.00
      1.2779000             -0.2276060             -0.0175130
      0.3975900              0.00144583             0.2445330
      0.1600950              1.0927900              0.8049340
SP   1   1.00
      0.0556577              1.0000000              1.0000000
D    1   1.00
      0.6500000              1.0000000
D    1   1.00
      0.1625000              1.0000000
F    1   1.00
      0.2500000              1.0000000
****
Si     0
S    6   1.00
  16115.9000000              0.00195948
   2425.5800000              0.01492880
    553.8670000              0.07284780
    156.3400000              0.24613000
     50.0683000              0.48591400
     17.0178000              0.32500200
SP   6   1.00
    292.7180000             -0.00278094             0.00443826
     69.8731000             -0.03571460             0.03266790
     22.3363000             -0.11498500             0.13472100
      8.1503900              0.09356340             0.32867800
      3.1345800              0.60301700             0.44964000
      1.2254300              0.41895900             0.26137200
SP   3   1.00
      1.7273800             -0.24463000            -0.01779510
      0.5729220              0.00431572             0.25353900
      0.2221920              1.09818000             0.80066900
SP   1   1.00
      0.0778369              1.00000000             1.00000000
D    1   1.00
      0.9000000              1.0000000
D    1   1.00
      0.2250000              1.0000000
F    1   1.00
      0.3200000              1.0000000
****
P     0
S    6   1.00
  19413.3000000              0.0018516
   2909.4200000              0.0142062
    661.3640000              0.0699995
    185.7590000              0.2400790
     59.1943000              0.4847620
     20.0310000              0.3352000
SP   6   1.00
    339.4780000             -0.00278217             0.00456462
     81.0101000             -0.0360499              0.03369360
     25.8780000             -0.1166310              0.13975500
      9.4522100              0.0968328              0.33936200
      3.6656600              0.6144180              0.45092100
      1.4674600              0.4037980              0.23858600
SP   3   1.00
      2.1562300             -0.2529230             -0.01776530
      0.7489970              0.0328517              0.27405800
      0.2831450              1.0812500              0.78542100
SP   1   1.00
      0.0998317              1.0000000              1.00000000
D    1   1.00
      1.1000000              1.0000000
D    1   1.00
      0.2750000              1.0000000
F    1   1.00
      0.4500000              1.0000000
****
S     0
S    6   1.00
  21917.1000000              0.0018690
   3301.4900000              0.0142300
    754.1460000              0.0696960
    212.7110000              0.2384870
     67.9896000              0.4833070
     23.0515000              0.3380740
SP   6   1.00
    423.7350000             -0.0023767              0.0040610
    100.7100000             -0.0316930              0.0306810
     32.1599000             -0.1133170              0.1304520
     11.8079000              0.0560900              0.3272050
      4.6311000              0.5922550              0.4528510
      1.8702500              0.4550060              0.2560420
SP   3   1.00
      2.6158400             -0.2503740             -0.0145110
      0.9221670              0.0669570              0.3102630
      0.3412870              1.0545100              0.7544830
SP   1   1.00
      0.1171670              1.0000000              1.0000000
D    1   1.00
      1.3000000              1.0000000
D    1   1.00
      0.3250000              1.0000000
F    1   1.00
      0.5500000              1.0000000
****
Cl     0
S    6   1.00
  25180.1000000              0.0018330
   3780.3500000              0.0140340
    860.4740000              0.0690970
    242.1450000              0.2374520
     77.3349000              0.4830340
     26.2470000              0.3398560
SP   6   1.00
    491.7650000             -0.0022974              0.0039894
    116.9840000             -0.0307140              0.0303180
     37.4153000             -0.1125280              0.1298800
     13.7834000              0.0450160              0.3279510
      5.4521500              0.5893530              0.4535270
      2.2258800              0.4652060              0.2521540
SP   3   1.00
      3.1864900             -0.2518300             -0.0142990
      1.1442700              0.0615890              0.3235720
      0.4203770              1.0601800              0.7435070
SP   1   1.00
      0.1426570              1.0000000              1.0000000
D    1   1.00
      1.5000000              1.0000000
D    1   1.00
      0.3750000              1.0000000
F    1   1.00
      0.7000000              1.0000000
****
}

set {
reference uhf
freeze_core true
e_convergence 10
d_convergence 10
dft_spherical_points 1202
dft_radial_points 99
}

e = energy('b3lyp')

print_out('Grab this energy {0}'.format(e))
--------------------------------------------------------------------------

    Molecular point group: c1

    Geometry (in Bohr), charge = 0, multiplicity = 2:

       Center              X                  Y                   Z               Mass
    ------------   -----------------  -----------------  -----------------  -----------------
         C           -0.323334566347     0.001964618066     0.003547010400    12.000000000000
         C            0.062061469753    -1.394592414634    -2.424534373400    12.000000000000
         C            0.060221548253     2.800023317366    -0.007671944700    12.000000000000
         C            0.061013796253    -1.406833453334     2.430386327200    12.000000000000
         H            2.088894331653    -1.638089182434    -2.842999663500     1.007825032230
         H           -0.761383094147    -0.378987044334    -4.024775270000     1.007825032230
         H           -0.766340096247    -3.283547701034    -2.350802423500     1.007825032230
         H            2.084220985753     3.288429817666    -0.012590105400     1.007825032230
         H           -0.764311887647     3.684475636966     1.665841102800     1.007825032230
         H           -0.769823513847     3.669284065066    -1.687601269800     1.007825032230
         H            2.087538817553    -1.655651218734     2.848252286200     1.007825032230
         H           -0.770930529447    -3.295070488834     2.348341454700     1.007825032230
         H           -0.760459490547    -0.397536325334     4.035770563200     1.007825032230

  Charge       = 0
  Multiplicity = 2
  Basis Set: ANONYMOUS8FFABD94
    Blend: 6-31G_2DFP_
  Basis Set: (ANONYMOUS8FFABD94 AUX)
    Blend: DEF2-UNIVERSAL-JKFIT

    Orbital Energies [Eh]
    ---------------------

    Alpha Occupied:

       1A    -10.180341     2A    -10.167394     3A    -10.166857
       4A    -10.166794     5A     -0.797771     6A     -0.686447
       7A     -0.685924     8A     -0.530776     9A     -0.441127
      10A     -0.434947    11A     -0.434397    12A     -0.382749
      13A     -0.382448    14A     -0.363610    15A     -0.338309
      16A     -0.337685    17A     -0.168961

    Alpha Virtual:

      18A      0.076072    19A      0.133908    20A      0.134403
      21A      0.142486    22A      0.142767    23A      0.154880
      24A      0.178553    25A      0.179002    26A      0.203544
      27A      0.214807    28A      0.275609    29A      0.276363
      30A      0.399021    31A      0.399361    32A      0.403424
      33A      0.423963    34A      0.424243    35A      0.456597
      36A      0.494978    37A      0.495792    38A      0.512172
      39A      0.513986    40A      0.578487    41A      0.579115
      42A      0.591409    43A      0.591871    44A      0.602577
      45A      0.624767    46A      0.631763    47A      0.636019
      48A      0.636490    49A      0.663114    50A      0.663714
      51A      0.683610    52A      0.684100    53A      0.734994
      54A      0.824584    55A      0.826217    56A      0.853915
      57A      0.914744    58A      0.915313    59A      0.944050
      60A      0.944516    61A      0.961133    62A      0.961661
      63A      1.003471    64A      1.126952    65A      1.129263
      66A      1.142205    67A      1.162765    68A      1.163796
      69A      1.223334    70A      1.273935    71A      1.275058
      72A      1.279357    73A      1.324208    74A      1.324499
      75A      1.355996    76A      1.365267    77A      1.366775
      78A      1.392428    79A      1.403207    80A      1.404964
      81A      1.416558    82A      1.417686    83A      1.427936
      84A      1.491434    85A      1.499067    86A      1.542455
      87A      1.543217    88A      1.572622    89A      1.576377
      90A      1.669826    91A      1.738299    92A      1.740503
      93A      1.768345    94A      1.830742    95A      1.832057
      96A      1.971725    97A      2.017583    98A      2.018253
      99A      2.020509   100A      2.049978   101A      2.055419
     102A      2.738210   103A      2.738754   104A      2.790926
     105A      2.811434   106A      2.889526   107A      2.890309
     108A      2.895008   109A      2.929250   110A      2.929741
     111A      2.958984   112A      2.963463   113A      2.965324
     114A      3.034011   115A      3.070232   116A      3.072310
     117A      3.084380   118A      3.168012   119A      3.169569
     120A      3.180588   121A      3.284591   122A      3.286023
     123A      3.326108   124A      3.328224   125A      3.375665
     126A      3.489584   127A      3.490660   128A      3.514024
     129A      3.525288   130A      3.567014   131A      3.569611
     132A      3.575406   133A      3.666114   134A      3.666629
     135A      3.679679   136A      3.693546   137A      3.694664
     138A      3.775174   139A      3.778302   140A      3.789339
     141A      3.910731   142A      3.913736   143A      4.034470
     144A      4.109673   145A      4.113087   146A      4.146361
     147A      4.149843   148A      4.173233   149A      4.201167
     150A      4.202768   151A      4.204818   152A      4.210975
     153A      4.315441   154A      4.316455   155A      4.359002
     156A      4.423844   157A      4.424942   158A      4.443550
     159A      4.515686   160A      4.518014   161A      4.577001
     162A      4.579510   163A      4.617533   164A      4.709439
     165A      4.773192   166A      4.776052   167A      4.836954
     168A      4.962846   169A      5.001804   170A      5.004132
     171A      5.228013   172A      5.246618   173A      5.247033
     174A      5.354331   175A      5.356684   176A      5.479332

    Beta Occupied:

       1A    -10.168150     2A    -10.167615     3A    -10.167560
       4A    -10.166518     5A     -0.781096     6A     -0.684247
       7A     -0.683729     8A     -0.511748     9A     -0.431327
      10A     -0.430758    11A     -0.421824    12A     -0.376841
      13A     -0.376526    14A     -0.362594    15A     -0.333436
      16A     -0.332804

    Beta Virtual:

      17A     -0.025743    18A      0.077081    19A      0.134787
      20A      0.135304    21A      0.144363    22A      0.144633
      23A      0.163339    24A      0.182216    25A      0.182684
      26A      0.215036    27A      0.218926    28A      0.281961
      29A      0.282707    30A      0.400270    31A      0.400515
      32A      0.419801    33A      0.426756    34A      0.427073
      35A      0.468507    36A      0.497238    37A      0.498057
      38A      0.513907    39A      0.556327    40A      0.584053
      41A      0.584652    42A      0.597605    43A      0.598030
      44A      0.609996    45A      0.628149    46A      0.631924
      47A      0.639277    48A      0.639800    49A      0.666664
      50A      0.667289    51A      0.686195    52A      0.686787
      53A      0.757516    54A      0.829743    55A      0.831394
      56A      0.855268    57A      0.922699    58A      0.923298
      59A      0.945909    60A      0.953429    61A      0.966395
      62A      0.967011    63A      1.008708    64A      1.130983
      65A      1.133295    66A      1.155571    67A      1.167815
      68A      1.168898    69A      1.232304    70A      1.279523
      71A      1.280661    72A      1.285114    73A      1.329198
      74A      1.329490    75A      1.365412    76A      1.370423
      77A      1.372097    78A      1.393490    79A      1.406693
      80A      1.408416    81A      1.421609    82A      1.422724
      83A      1.428212    84A      1.492486    85A      1.509511
      86A      1.546775    87A      1.547708    88A      1.580643
      89A      1.584101    90A      1.674672    91A      1.744062
      92A      1.746264    93A      1.779123    94A      1.834580
      95A      1.835930    96A      1.972588    97A      2.023937
      98A      2.026930    99A      2.039637   100A      2.056805
     101A      2.062037   102A      2.746497   103A      2.747140
     104A      2.811847   105A      2.816059   106A      2.902276
     107A      2.902989   108A      2.924634   109A      2.931813
     110A      2.932169   111A      2.960053   112A      2.968036
     113A      2.969833   114A      3.041946   115A      3.080001
     116A      3.082227   117A      3.086340   118A      3.183816
     119A      3.185192   120A      3.188328   121A      3.289459
     122A      3.290757   123A      3.329909   124A      3.332033
     125A      3.383482   126A      3.492310   127A      3.493387
     128A      3.512404   129A      3.528345   130A      3.574798
     131A      3.580400   132A      3.583357   133A      3.670952
     134A      3.671302   135A      3.692958   136A      3.725301
     137A      3.726166   138A      3.779772   139A      3.782857
     140A      3.817782   141A      3.920562   142A      3.923541
     143A      4.045357   144A      4.116494   145A      4.119895
     146A      4.153646   147A      4.156980   148A      4.187292
     149A      4.207124   150A      4.210559   151A      4.210888
     152A      4.215475   153A      4.322848   154A      4.323929
     155A      4.362365   156A      4.432044   157A      4.433122
     158A      4.446488   159A      4.523553   160A      4.525719
     161A      4.587531   162A      4.590180   163A      4.624730
     164A      4.719784   165A      4.780130   166A      4.783019
     167A      4.839874   168A      4.967639   169A      5.005835
     170A      5.008180   171A      5.233725   172A      5.248393
     173A      5.248830   174A      5.360784   175A      5.363193
     176A      5.481653

    Final Occupation by Irrep:
              A
    DOCC [    16 ]
    SOCC [     1 ]

  @DF-UKS Final Energy:  -157.81306009236050

   => Energetics <=

    Nuclear Repulsion Energy =            125.3948796183454704
    One-Electron Energy =                -458.7494016977163938
    Two-Electron Energy =                 195.8486091968511289
    DFT Exchange-Correlation Energy =     -20.3071472098407426
    Empirical Dispersion Energy =           0.0000000000000000
    VV10 Nonlocal Energy =                  0.0000000000000000
    Total Energy =                       -157.8130600923605016

  UHF NO Occupations:
  HONO-2 :   15  A 1.9996009
  HONO-1 :   16  A 1.9989804
  HONO-0 :   17  A 1.0000000
  LUNO+0 :   18  A 0.0010196
  LUNO+1 :   19  A 0.0003991
  LUNO+2 :   20  A 0.0001982
  LUNO+3 :   21  A 0.0001969

Computation Completed

Properties will be evaluated at   0.000000,   0.000000,   0.000000 [a0]

Properties computed using the SCF density matrix

  Nuclear Dipole Moment: [e a0]
     X:     0.8272      Y:    -0.0033      Z:    -0.0102

  Electronic Dipole Moment: [e a0]
     X:    -0.7493      Y:     0.0033      Z:     0.0110

  Dipole Moment: [e a0]
     X:     0.0779      Y:    -0.0000      Z:     0.0007     Total:     0.0779

  Dipole Moment: [D]
     X:     0.1980      Y:    -0.0001      Z:     0.0019     Total:     0.1980

*** tstop() called on n079 at Fri Nov  5 15:45:32 2021
Module time:
	user time   =     533.54 seconds =       8.89 minutes
	system time =       4.94 seconds =       0.08 minutes
	total time  =        135 seconds =       2.25 minutes
Total time:
	user time   =     533.54 seconds =       8.89 minutes
	system time =       4.94 seconds =       0.08 minutes
	total time  =        135 seconds =       2.25 minutes
Grab this energy -157.8130600923605
    Psi4 stopped on: Friday, 05 November 2021 03:45PM
    Psi4 wall time for execution: 0:02:15.35

*** Psi4 exiting successfully. Buy a developer a beer!
