                               Psi4 1.4a2.dev629

  ==> Input File <==

--------------------------------------------------------------------------
import os
memory 14 GB

molecule {
 C   -0.3233320026    0.0000050361   -0.0049993109
 C    0.0606196655   -1.4069930713   -2.4307544799
 C    0.0610197186    2.8017454652    0.0062285923
 C    0.0616642830   -1.3947451352    2.4219977814
 H    2.0862643030   -1.6528828874   -2.8515178368
 H   -0.7649401220   -0.3974828191   -4.0324259361
 H   -0.7678652625   -3.2977538085   -2.3491968659
 H    2.0867946883    3.2880797823    0.0111407230
 H   -0.7684070343    3.6726406743    1.6859237060
 H   -0.7628937564    3.6878215536   -1.6670388011
 H    2.0876116772   -1.6353033262    2.8433508360
 H   -0.7632775883   -3.2862149802    2.3487742798
 H   -0.7658664462   -0.3789407971    4.0185173124
units bohr
0 2
}

basis {

assign 6-31g_2dfp_

[ 6-31g_2dfp_ ]

spherical

!----------------------------------------------------------------------
! Basis Set Exchange
! Version v0.8.13
! https://www.basissetexchange.org
!----------------------------------------------------------------------
!   Basis set: 6-31G(2df,p)
! Description: 6-31G(2df,p)
!        Role: orbital
!     Version: 0  (Data from the original Basis Set Exchange)
!----------------------------------------------------------------------

****
H     0
S    3   1.00
     18.7311370              0.03349460
      2.8253937              0.23472695
      0.6401217              0.81375733
S    1   1.00
      0.1612778              1.00000000
P    1   1.00
      1.5000000              1.0000000
P    1   1.00
      0.3750000              1.0000000
****
B     0
S    6   1.00
   2068.8823000              0.0018663
    310.6495700              0.0142515
     70.6830330              0.0695516
     19.8610800              0.2325729
      6.2993048              0.4670787
      2.1270270              0.3634314
SP   3   1.00
      4.7279710             -0.1303938              0.0745976
      1.1903377             -0.1307889              0.3078467
      0.3594117              1.1309444              0.7434568
SP   1   1.00
      0.1267512              1.0000000              1.0000000
D    1   1.00
      0.8020000              1.0000000
D    1   1.00
      0.2005000              1.0000000
F    1   1.00
      0.5000000              1.0000000
****
C     0
S    6   1.00
   3047.5249000              0.0018347
    457.3695100              0.0140373
    103.9486900              0.0688426
     29.2101550              0.2321844
      9.2866630              0.4679413
      3.1639270              0.3623120
SP   3   1.00
      7.8682724             -0.1193324              0.0689991
      1.8812885             -0.1608542              0.3164240
      0.5442493              1.1434564              0.7443083
SP   1   1.00
      0.1687144              1.0000000              1.0000000
D    1   1.00
      1.2520000              1.0000000
D    1   1.00
      0.3130000              1.0000000
F    1   1.00
      0.8000000              1.0000000
****
N     0
S    6   1.00
   4173.5110000              0.0018348
    627.4579000              0.0139950
    142.9021000              0.0685870
     40.2343300              0.2322410
     12.8202100              0.4690700
      4.3904370              0.3604550
SP   3   1.00
     11.6263580             -0.1149610              0.0675800
      2.7162800             -0.1691180              0.3239070
      0.7722180              1.1458520              0.7408950
SP   1   1.00
      0.2120313              1.0000000              1.0000000
D    1   1.00
      1.8260000              1.0000000
D    1   1.00
      0.4565000              1.0000000
F    1   1.00
      1.0000000              1.0000000
****
O     0
S    6   1.00
   5484.6717000              0.0018311
    825.2349500              0.0139501
    188.0469600              0.0684451
     52.9645000              0.2327143
     16.8975700              0.4701930
      5.7996353              0.3585209
SP   3   1.00
     15.5396160             -0.1107775              0.0708743
      3.5999336             -0.1480263              0.3397528
      1.0137618              1.1307670              0.7271586
SP   1   1.00
      0.2700058              1.0000000              1.0000000
D    1   1.00
      2.5840000              1.0000000
D    1   1.00
      0.6460000              1.0000000
F    1   1.00
      1.4000000              1.0000000
****
F     0
S    6   1.00
   7001.7130900              0.0018196169
   1051.3660900              0.0139160796
    239.2856900              0.0684053245
     67.3974453              0.233185760
     21.5199573              0.471267439
      7.40310130             0.356618546
SP   3   1.00
     20.8479528             -0.108506975            0.0716287243
      4.80830834            -0.146451658            0.3459121030
      1.34406986             1.128688580            0.7224699570
SP   1   1.00
      0.358151393            1.0000000              1.0000000
D    1   1.00
      3.5000000              1.0000000
D    1   1.00
      0.8750000              1.0000000
F    1   1.00
      1.8500000              1.0000000
****
Al     0
S    6   1.00
  13983.1000000              0.00194267
   2098.7500000              0.0148599
    477.7050000              0.0728494
    134.3600000              0.2468300
     42.8709000              0.4872580
     14.5189000              0.3234960
SP   6   1.00
    239.6680000             -0.00292619             0.00460285
     57.4419000             -0.0374080              0.0331990
     18.2859000             -0.1144870              0.1362820
      6.5991400              0.1156350              0.3304760
      2.4904900              0.6125950              0.4491460
      0.9445400              0.3937990              0.2657040
SP   3   1.00
      1.2779000             -0.2276060             -0.0175130
      0.3975900              0.00144583             0.2445330
      0.1600950              1.0927900              0.8049340
SP   1   1.00
      0.0556577              1.0000000              1.0000000
D    1   1.00
      0.6500000              1.0000000
D    1   1.00
      0.1625000              1.0000000
F    1   1.00
      0.2500000              1.0000000
****
Si     0
S    6   1.00
  16115.9000000              0.00195948
   2425.5800000              0.01492880
    553.8670000              0.07284780
    156.3400000              0.24613000
     50.0683000              0.48591400
     17.0178000              0.32500200
SP   6   1.00
    292.7180000             -0.00278094             0.00443826
     69.8731000             -0.03571460             0.03266790
     22.3363000             -0.11498500             0.13472100
      8.1503900              0.09356340             0.32867800
      3.1345800              0.60301700             0.44964000
      1.2254300              0.41895900             0.26137200
SP   3   1.00
      1.7273800             -0.24463000            -0.01779510
      0.5729220              0.00431572             0.25353900
      0.2221920              1.09818000             0.80066900
SP   1   1.00
      0.0778369              1.00000000             1.00000000
D    1   1.00
      0.9000000              1.0000000
D    1   1.00
      0.2250000              1.0000000
F    1   1.00
      0.3200000              1.0000000
****
P     0
S    6   1.00
  19413.3000000              0.0018516
   2909.4200000              0.0142062
    661.3640000              0.0699995
    185.7590000              0.2400790
     59.1943000              0.4847620
     20.0310000              0.3352000
SP   6   1.00
    339.4780000             -0.00278217             0.00456462
     81.0101000             -0.0360499              0.03369360
     25.8780000             -0.1166310              0.13975500
      9.4522100              0.0968328              0.33936200
      3.6656600              0.6144180              0.45092100
      1.4674600              0.4037980              0.23858600
SP   3   1.00
      2.1562300             -0.2529230             -0.01776530
      0.7489970              0.0328517              0.27405800
      0.2831450              1.0812500              0.78542100
SP   1   1.00
      0.0998317              1.0000000              1.00000000
D    1   1.00
      1.1000000              1.0000000
D    1   1.00
      0.2750000              1.0000000
F    1   1.00
      0.4500000              1.0000000
****
S     0
S    6   1.00
  21917.1000000              0.0018690
   3301.4900000              0.0142300
    754.1460000              0.0696960
    212.7110000              0.2384870
     67.9896000              0.4833070
     23.0515000              0.3380740
SP   6   1.00
    423.7350000             -0.0023767              0.0040610
    100.7100000             -0.0316930              0.0306810
     32.1599000             -0.1133170              0.1304520
     11.8079000              0.0560900              0.3272050
      4.6311000              0.5922550              0.4528510
      1.8702500              0.4550060              0.2560420
SP   3   1.00
      2.6158400             -0.2503740             -0.0145110
      0.9221670              0.0669570              0.3102630
      0.3412870              1.0545100              0.7544830
SP   1   1.00
      0.1171670              1.0000000              1.0000000
D    1   1.00
      1.3000000              1.0000000
D    1   1.00
      0.3250000              1.0000000
F    1   1.00
      0.5500000              1.0000000
****
Cl     0
S    6   1.00
  25180.1000000              0.0018330
   3780.3500000              0.0140340
    860.4740000              0.0690970
    242.1450000              0.2374520
     77.3349000              0.4830340
     26.2470000              0.3398560
SP   6   1.00
    491.7650000             -0.0022974              0.0039894
    116.9840000             -0.0307140              0.0303180
     37.4153000             -0.1125280              0.1298800
     13.7834000              0.0450160              0.3279510
      5.4521500              0.5893530              0.4535270
      2.2258800              0.4652060              0.2521540
SP   3   1.00
      3.1864900             -0.2518300             -0.0142990
      1.1442700              0.0615890              0.3235720
      0.4203770              1.0601800              0.7435070
SP   1   1.00
      0.1426570              1.0000000              1.0000000
D    1   1.00
      1.5000000              1.0000000
D    1   1.00
      0.3750000              1.0000000
F    1   1.00
      0.7000000              1.0000000
****
}

set {
reference uhf
freeze_core true
e_convergence 10
d_convergence 10
dft_spherical_points 1202
dft_radial_points 99
}

e = energy('b3lyp')

print_out('Grab this energy {0}'.format(e))
--------------------------------------------------------------------------

    Molecular point group: c1

    Geometry (in Bohr), charge = 0, multiplicity = 2:

       Center              X                  Y                   Z               Mass
    ------------   -----------------  -----------------  -----------------  -----------------
         C           -0.323334246348     0.000003097393    -0.003549476153    12.000000000000
         C            0.060617421752    -1.406995010007    -2.429304645153    12.000000000000
         C            0.061017474852     2.801743526493     0.007678427047    12.000000000000
         C            0.061662039252    -1.394747073907     2.423447616147    12.000000000000
         H            2.086262059252    -1.652884826107    -2.850068002053     1.007825032230
         H           -0.764942365748    -0.397484757807    -4.030976101353     1.007825032230
         H           -0.767867506248    -3.297755747207    -2.347747031153     1.007825032230
         H            2.086792444552     3.288077843593     0.012590557747     1.007825032230
         H           -0.768409278048     3.672638735593     1.687373540747     1.007825032230
         H           -0.762896000148     3.687819614893    -1.665588966353     1.007825032230
         H            2.087609433452    -1.635305264907     2.844800670747     1.007825032230
         H           -0.763279832048    -3.286216918907     2.350224114547     1.007825032230
         H           -0.765868689948    -0.378942735807     4.019967147147     1.007825032230

  Charge       = 0
  Multiplicity = 2
  Basis Set: ANONYMOUS0BE45F54
    Blend: 6-31G_2DFP_
  Basis Set: (ANONYMOUS0BE45F54 AUX)
    Blend: DEF2-UNIVERSAL-JKFIT

    Orbital Energies [Eh]
    ---------------------

    Alpha Occupied:

       1A    -10.180341     2A    -10.167287     3A    -10.167015
       4A    -10.166743     5A     -0.797769     6A     -0.686406
       7A     -0.685965     8A     -0.530776     9A     -0.441126
      10A     -0.434936    11A     -0.434406    12A     -0.382743
      13A     -0.382453    14A     -0.363611    15A     -0.338272
      16A     -0.337724    17A     -0.168961

    Alpha Virtual:

      18A      0.076072    19A      0.133916    20A      0.134396
      21A      0.142490    22A      0.142766    23A      0.154880
      24A      0.178555    25A      0.179003    26A      0.203544
      27A      0.214807    28A      0.275817    29A      0.276155
      30A      0.399055    31A      0.399338    32A      0.403414
      33A      0.423967    34A      0.424237    35A      0.456595
      36A      0.494985    37A      0.495786    38A      0.512172
      39A      0.513986    40A      0.578555    41A      0.579054
      42A      0.591615    43A      0.591660    44A      0.602573
      45A      0.624768    46A      0.631769    47A      0.636029
      48A      0.636469    49A      0.663196    50A      0.663631
      51A      0.683612    52A      0.684097    53A      0.734993
      54A      0.824580    55A      0.826222    56A      0.853915
      57A      0.914785    58A      0.915270    59A      0.944052
      60A      0.944517    61A      0.961135    62A      0.961655
      63A      1.003470    64A      1.126958    65A      1.129284
      66A      1.142213    67A      1.162779    68A      1.163753
      69A      1.223332    70A      1.273977    71A      1.275018
      72A      1.279353    73A      1.324270    74A      1.324440
      75A      1.355993    76A      1.365302    77A      1.366752
      78A      1.392435    79A      1.403284    80A      1.404892
      81A      1.416622    82A      1.417611    83A      1.427927
      84A      1.491435    85A      1.499063    86A      1.542476
      87A      1.543191    88A      1.572630    89A      1.576370
      90A      1.669820    91A      1.738343    92A      1.740457
      93A      1.768347    94A      1.830890    95A      1.831912
      96A      1.971723    97A      2.017602    98A      2.018284
      99A      2.020471   100A      2.050135   101A      2.055236
     102A      2.738220   103A      2.738750   104A      2.790920
     105A      2.811439   106A      2.889851   107A      2.890048
     108A      2.894944   109A      2.929316   110A      2.929668
     111A      2.958988   112A      2.963492   113A      2.965289
     114A      3.034011   115A      3.070277   116A      3.072264
     117A      3.084381   118A      3.168029   119A      3.169577
     120A      3.180558   121A      3.284599   122A      3.286015
     123A      3.326216   124A      3.328116   125A      3.375665
     126A      3.489643   127A      3.490609   128A      3.514036
     129A      3.525305   130A      3.567199   131A      3.569447
     132A      3.575366   133A      3.666278   134A      3.666509
     135A      3.679655   136A      3.693654   137A      3.694553
     138A      3.775938   139A      3.777575   140A      3.789288
     141A      3.910805   142A      3.913649   143A      4.034476
     144A      4.110017   145A      4.112752   146A      4.146453
     147A      4.149757   148A      4.173230   149A      4.201362
     150A      4.202675   151A      4.204712   152A      4.210960
     153A      4.315925   154A      4.315973   155A      4.358999
     156A      4.424257   157A      4.424536   158A      4.443541
     159A      4.516019   160A      4.517686   161A      4.577197
     162A      4.579341   163A      4.617534   164A      4.709440
     165A      4.773290   166A      4.775903   167A      4.836939
     168A      4.962860   169A      5.001972   170A      5.003945
     171A      5.228025   172A      5.246661   173A      5.246979
     174A      5.354797   175A      5.356203   176A      5.479330

    Beta Occupied:

       1A    -10.168043     2A    -10.167775     3A    -10.167507
       4A    -10.166518     5A     -0.781094     6A     -0.684212
       7A     -0.683764     8A     -0.511747     9A     -0.431316
      10A     -0.430769    11A     -0.421823    12A     -0.376838
      13A     -0.376528    14A     -0.362595    15A     -0.333398
      16A     -0.332843

    Beta Virtual:

      17A     -0.025743    18A      0.077081    19A      0.134795
      20A      0.135296    21A      0.144366    22A      0.144630
      23A      0.163339    24A      0.182217    25A      0.182683
      26A      0.215037    27A      0.218926    28A      0.282153
      29A      0.282515    30A      0.400278    31A      0.400510
      32A      0.419799    33A      0.426763    34A      0.427063
      35A      0.468505    36A      0.497243    37A      0.498052
      38A      0.513908    39A      0.556328    40A      0.584135
      41A      0.584577    42A      0.597780    43A      0.597851
      44A      0.609994    45A      0.628149    46A      0.631926
      47A      0.639297    48A      0.639771    49A      0.666733
      50A      0.667219    51A      0.686196    52A      0.686785
      53A      0.757516    54A      0.829738    55A      0.831400
      56A      0.855268    57A      0.922742    58A      0.923254
      59A      0.945911    60A      0.953432    61A      0.966389
      62A      0.967010    63A      1.008707    64A      1.130995
      65A      1.133306    66A      1.155586    67A      1.167821
      68A      1.168862    69A      1.232302    70A      1.279571
      71A      1.280619    72A      1.285106    73A      1.329243
      74A      1.329446    75A      1.365410    76A      1.370440
      77A      1.372093    78A      1.393497    79A      1.406784
      80A      1.408331    81A      1.421667    82A      1.422658
      83A      1.428200    84A      1.492487    85A      1.509506
      86A      1.546780    87A      1.547699    88A      1.580649
      89A      1.584096    90A      1.674666    91A      1.744109
      92A      1.746216    93A      1.779125    94A      1.834728
      95A      1.835785    96A      1.972585    97A      2.023953
      98A      2.026934    99A      2.039639   100A      2.056944
     101A      2.061863   102A      2.746510   103A      2.747131
     104A      2.811852   105A      2.816056   106A      2.902575
     107A      2.902702   108A      2.924650   109A      2.931890
     110A      2.932060   111A      2.960055   112A      2.968064
     113A      2.969799   114A      3.041946   115A      3.080030
     116A      3.082204   117A      3.086336   118A      3.183888
     119A      3.185204   120A      3.188240   121A      3.289467
     122A      3.290749   123A      3.330014   124A      3.331930
     125A      3.383481   126A      3.492376   127A      3.493328
     128A      3.512411   129A      3.528359   130A      3.574764
     131A      3.580768   132A      3.583014   133A      3.670998
     134A      3.671276   135A      3.692952   136A      3.725332
     137A      3.726138   138A      3.780482   139A      3.782159
     140A      3.817756   141A      3.920622   142A      3.923466
     143A      4.045363   144A      4.116838   145A      4.119559
     146A      4.153718   147A      4.156911   148A      4.187292
     149A      4.207278   150A      4.210500   151A      4.210786
     152A      4.215462   153A      4.323349   154A      4.323429
     155A      4.362361   156A      4.432462   157A      4.432717
     158A      4.446472   159A      4.523905   160A      4.525374
     161A      4.587719   162A      4.590022   163A      4.624726
     164A      4.719786   165A      4.780206   166A      4.782892
     167A      4.839858   168A      4.967654   169A      5.006012
     170A      5.007984   171A      5.233738   172A      5.248442
     173A      5.248770   174A      5.361260   175A      5.362702
     176A      5.481651

    Final Occupation by Irrep:
              A
    DOCC [    16 ]
    SOCC [     1 ]

  @DF-UKS Final Energy:  -157.81306525988543

   => Energetics <=

    Nuclear Repulsion Energy =            125.3948305966945185
    One-Electron Energy =                -458.7493174136811831
    Two-Electron Energy =                 195.8485663483933479
    DFT Exchange-Correlation Energy =     -20.3071447912921386
    Empirical Dispersion Energy =           0.0000000000000000
    VV10 Nonlocal Energy =                  0.0000000000000000
    Total Energy =                       -157.8130652598854340

  UHF NO Occupations:
  HONO-2 :   15  A 1.9996009
  HONO-1 :   16  A 1.9989804
  HONO-0 :   17  A 1.0000000
  LUNO+0 :   18  A 0.0010196
  LUNO+1 :   19  A 0.0003991
  LUNO+2 :   20  A 0.0001979
  LUNO+3 :   21  A 0.0001972

Computation Completed

Properties will be evaluated at   0.000000,   0.000000,   0.000000 [a0]

Properties computed using the SCF density matrix

  Nuclear Dipole Moment: [e a0]
     X:     0.8272      Y:    -0.0000      Z:     0.0102

  Electronic Dipole Moment: [e a0]
     X:    -0.7493      Y:     0.0000      Z:    -0.0110

  Dipole Moment: [e a0]
     X:     0.0779      Y:    -0.0000      Z:    -0.0007     Total:     0.0779

  Dipole Moment: [D]
     X:     0.1980      Y:    -0.0000      Z:    -0.0019     Total:     0.1980

*** tstop() called on n051 at Fri Nov  5 15:51:07 2021
Module time:
	user time   =     541.53 seconds =       9.03 minutes
	system time =      11.97 seconds =       0.20 minutes
	total time  =        140 seconds =       2.33 minutes
Total time:
	user time   =     541.53 seconds =       9.03 minutes
	system time =      11.97 seconds =       0.20 minutes
	total time  =        140 seconds =       2.33 minutes
Grab this energy -157.81306525988543
    Psi4 stopped on: Friday, 05 November 2021 03:51PM
    Psi4 wall time for execution: 0:02:19.52

*** Psi4 exiting successfully. Buy a developer a beer!
