                               Psi4 1.4a2.dev629

  ==> Input File <==

--------------------------------------------------------------------------
import os
memory 14 GB

molecule {
 C   -0.3233522231   -0.0000021279   -0.0000017741
 C    0.0609565987   -1.4000978055   -2.4249359726
 C    0.0608374677    2.8001205740   -0.0000482399
 C    0.0609575870   -1.4000174183    2.4249842068
 H    2.0868771862   -1.6483803056   -2.8455472304
 H   -0.7612716722   -0.3867175244   -4.0266461105
 H   -0.7694587513   -3.2905313492   -2.3506548245
 H    2.0867401429    3.2886033503   -0.0046521751
 H   -0.7615166741    3.6805089230    1.6783812918
 H   -0.7695311035    3.6809679560   -1.6743988383
 H    2.0868808513   -1.6403158202    2.8502021635
 H   -0.7614333740   -3.2937619175    2.3482707802
 H   -0.7692939123   -0.3904008483    4.0250467230
units bohr
0 2
}

basis {

assign 6-31g_2dfp_

[ 6-31g_2dfp_ ]

spherical

!----------------------------------------------------------------------
! Basis Set Exchange
! Version v0.8.13
! https://www.basissetexchange.org
!----------------------------------------------------------------------
!   Basis set: 6-31G(2df,p)
! Description: 6-31G(2df,p)
!        Role: orbital
!     Version: 0  (Data from the original Basis Set Exchange)
!----------------------------------------------------------------------

****
H     0
S    3   1.00
     18.7311370              0.03349460
      2.8253937              0.23472695
      0.6401217              0.81375733
S    1   1.00
      0.1612778              1.00000000
P    1   1.00
      1.5000000              1.0000000
P    1   1.00
      0.3750000              1.0000000
****
B     0
S    6   1.00
   2068.8823000              0.0018663
    310.6495700              0.0142515
     70.6830330              0.0695516
     19.8610800              0.2325729
      6.2993048              0.4670787
      2.1270270              0.3634314
SP   3   1.00
      4.7279710             -0.1303938              0.0745976
      1.1903377             -0.1307889              0.3078467
      0.3594117              1.1309444              0.7434568
SP   1   1.00
      0.1267512              1.0000000              1.0000000
D    1   1.00
      0.8020000              1.0000000
D    1   1.00
      0.2005000              1.0000000
F    1   1.00
      0.5000000              1.0000000
****
C     0
S    6   1.00
   3047.5249000              0.0018347
    457.3695100              0.0140373
    103.9486900              0.0688426
     29.2101550              0.2321844
      9.2866630              0.4679413
      3.1639270              0.3623120
SP   3   1.00
      7.8682724             -0.1193324              0.0689991
      1.8812885             -0.1608542              0.3164240
      0.5442493              1.1434564              0.7443083
SP   1   1.00
      0.1687144              1.0000000              1.0000000
D    1   1.00
      1.2520000              1.0000000
D    1   1.00
      0.3130000              1.0000000
F    1   1.00
      0.8000000              1.0000000
****
N     0
S    6   1.00
   4173.5110000              0.0018348
    627.4579000              0.0139950
    142.9021000              0.0685870
     40.2343300              0.2322410
     12.8202100              0.4690700
      4.3904370              0.3604550
SP   3   1.00
     11.6263580             -0.1149610              0.0675800
      2.7162800             -0.1691180              0.3239070
      0.7722180              1.1458520              0.7408950
SP   1   1.00
      0.2120313              1.0000000              1.0000000
D    1   1.00
      1.8260000              1.0000000
D    1   1.00
      0.4565000              1.0000000
F    1   1.00
      1.0000000              1.0000000
****
O     0
S    6   1.00
   5484.6717000              0.0018311
    825.2349500              0.0139501
    188.0469600              0.0684451
     52.9645000              0.2327143
     16.8975700              0.4701930
      5.7996353              0.3585209
SP   3   1.00
     15.5396160             -0.1107775              0.0708743
      3.5999336             -0.1480263              0.3397528
      1.0137618              1.1307670              0.7271586
SP   1   1.00
      0.2700058              1.0000000              1.0000000
D    1   1.00
      2.5840000              1.0000000
D    1   1.00
      0.6460000              1.0000000
F    1   1.00
      1.4000000              1.0000000
****
F     0
S    6   1.00
   7001.7130900              0.0018196169
   1051.3660900              0.0139160796
    239.2856900              0.0684053245
     67.3974453              0.233185760
     21.5199573              0.471267439
      7.40310130             0.356618546
SP   3   1.00
     20.8479528             -0.108506975            0.0716287243
      4.80830834            -0.146451658            0.3459121030
      1.34406986             1.128688580            0.7224699570
SP   1   1.00
      0.358151393            1.0000000              1.0000000
D    1   1.00
      3.5000000              1.0000000
D    1   1.00
      0.8750000              1.0000000
F    1   1.00
      1.8500000              1.0000000
****
Al     0
S    6   1.00
  13983.1000000              0.00194267
   2098.7500000              0.0148599
    477.7050000              0.0728494
    134.3600000              0.2468300
     42.8709000              0.4872580
     14.5189000              0.3234960
SP   6   1.00
    239.6680000             -0.00292619             0.00460285
     57.4419000             -0.0374080              0.0331990
     18.2859000             -0.1144870              0.1362820
      6.5991400              0.1156350              0.3304760
      2.4904900              0.6125950              0.4491460
      0.9445400              0.3937990              0.2657040
SP   3   1.00
      1.2779000             -0.2276060             -0.0175130
      0.3975900              0.00144583             0.2445330
      0.1600950              1.0927900              0.8049340
SP   1   1.00
      0.0556577              1.0000000              1.0000000
D    1   1.00
      0.6500000              1.0000000
D    1   1.00
      0.1625000              1.0000000
F    1   1.00
      0.2500000              1.0000000
****
Si     0
S    6   1.00
  16115.9000000              0.00195948
   2425.5800000              0.01492880
    553.8670000              0.07284780
    156.3400000              0.24613000
     50.0683000              0.48591400
     17.0178000              0.32500200
SP   6   1.00
    292.7180000             -0.00278094             0.00443826
     69.8731000             -0.03571460             0.03266790
     22.3363000             -0.11498500             0.13472100
      8.1503900              0.09356340             0.32867800
      3.1345800              0.60301700             0.44964000
      1.2254300              0.41895900             0.26137200
SP   3   1.00
      1.7273800             -0.24463000            -0.01779510
      0.5729220              0.00431572             0.25353900
      0.2221920              1.09818000             0.80066900
SP   1   1.00
      0.0778369              1.00000000             1.00000000
D    1   1.00
      0.9000000              1.0000000
D    1   1.00
      0.2250000              1.0000000
F    1   1.00
      0.3200000              1.0000000
****
P     0
S    6   1.00
  19413.3000000              0.0018516
   2909.4200000              0.0142062
    661.3640000              0.0699995
    185.7590000              0.2400790
     59.1943000              0.4847620
     20.0310000              0.3352000
SP   6   1.00
    339.4780000             -0.00278217             0.00456462
     81.0101000             -0.0360499              0.03369360
     25.8780000             -0.1166310              0.13975500
      9.4522100              0.0968328              0.33936200
      3.6656600              0.6144180              0.45092100
      1.4674600              0.4037980              0.23858600
SP   3   1.00
      2.1562300             -0.2529230             -0.01776530
      0.7489970              0.0328517              0.27405800
      0.2831450              1.0812500              0.78542100
SP   1   1.00
      0.0998317              1.0000000              1.00000000
D    1   1.00
      1.1000000              1.0000000
D    1   1.00
      0.2750000              1.0000000
F    1   1.00
      0.4500000              1.0000000
****
S     0
S    6   1.00
  21917.1000000              0.0018690
   3301.4900000              0.0142300
    754.1460000              0.0696960
    212.7110000              0.2384870
     67.9896000              0.4833070
     23.0515000              0.3380740
SP   6   1.00
    423.7350000             -0.0023767              0.0040610
    100.7100000             -0.0316930              0.0306810
     32.1599000             -0.1133170              0.1304520
     11.8079000              0.0560900              0.3272050
      4.6311000              0.5922550              0.4528510
      1.8702500              0.4550060              0.2560420
SP   3   1.00
      2.6158400             -0.2503740             -0.0145110
      0.9221670              0.0669570              0.3102630
      0.3412870              1.0545100              0.7544830
SP   1   1.00
      0.1171670              1.0000000              1.0000000
D    1   1.00
      1.3000000              1.0000000
D    1   1.00
      0.3250000              1.0000000
F    1   1.00
      0.5500000              1.0000000
****
Cl     0
S    6   1.00
  25180.1000000              0.0018330
   3780.3500000              0.0140340
    860.4740000              0.0690970
    242.1450000              0.2374520
     77.3349000              0.4830340
     26.2470000              0.3398560
SP   6   1.00
    491.7650000             -0.0022974              0.0039894
    116.9840000             -0.0307140              0.0303180
     37.4153000             -0.1125280              0.1298800
     13.7834000              0.0450160              0.3279510
      5.4521500              0.5893530              0.4535270
      2.2258800              0.4652060              0.2521540
SP   3   1.00
      3.1864900             -0.2518300             -0.0142990
      1.1442700              0.0615890              0.3235720
      0.4203770              1.0601800              0.7435070
SP   1   1.00
      0.1426570              1.0000000              1.0000000
D    1   1.00
      1.5000000              1.0000000
D    1   1.00
      0.3750000              1.0000000
F    1   1.00
      0.7000000              1.0000000
****
}

set {
reference uhf
freeze_core true
e_convergence 10
d_convergence 10
dft_spherical_points 1202
dft_radial_points 99
}

e = energy('b3lyp')

print_out('Grab this energy {0}'.format(e))
--------------------------------------------------------------------------

    Molecular point group: c1

    Geometry (in Bohr), charge = 0, multiplicity = 2:

       Center              X                  Y                   Z               Mass
    ------------   -----------------  -----------------  -----------------  -----------------
         C           -0.323244250419    -0.000002319176    -0.000001431296    12.000000000000
         C            0.061064571381    -1.400097996776    -2.424935629796    12.000000000000
         C            0.060945440381     2.800120382724    -0.000047897096    12.000000000000
         C            0.061065559681    -1.400017609576     2.424984549604    12.000000000000
         H            2.086985158881    -1.648380496876    -2.845546887596     1.007825032230
         H           -0.761163699519    -0.386717715676    -4.026645767696     1.007825032230
         H           -0.769350778619    -3.290531540476    -2.350654481696     1.007825032230
         H            2.086848115581     3.288603159024    -0.004651832296     1.007825032230
         H           -0.761408701419     3.680508731724     1.678381634604     1.007825032230
         H           -0.769423130819     3.680967764724    -1.674398495496     1.007825032230
         H            2.086988823981    -1.640316011476     2.850202506304     1.007825032230
         H           -0.761325401319    -3.293762108776     2.348271123004     1.007825032230
         H           -0.769185939619    -0.390401039576     4.025047065804     1.007825032230

  Charge       = 0
  Multiplicity = 2
  Basis Set: ANONYMOUS7D9D3E03
    Blend: 6-31G_2DFP_
  Basis Set: (ANONYMOUS7D9D3E03 AUX)
    Blend: DEF2-UNIVERSAL-JKFIT

    Orbital Energies [Eh]
    ---------------------

    Alpha Occupied:

       1A    -10.180290     2A    -10.167083     3A    -10.167083
       4A    -10.167037     5A     -0.798023     6A     -0.686196
       7A     -0.686195     8A     -0.530942     9A     -0.441133
      10A     -0.434739    11A     -0.434739    12A     -0.382462
      13A     -0.382460    14A     -0.363410    15A     -0.338159
      16A     -0.338159    17A     -0.168982

    Alpha Virtual:

      18A      0.076065    19A      0.134098    20A      0.134099
      21A      0.142495    22A      0.142495    23A      0.154985
      24A      0.178612    25A      0.178612    26A      0.203836
      27A      0.214678    28A      0.276226    29A      0.276228
      30A      0.399221    31A      0.399225    32A      0.403253
      33A      0.424044    34A      0.424044    35A      0.456774
      36A      0.495379    37A      0.495380    38A      0.512092
      39A      0.513935    40A      0.578770    41A      0.578779
      42A      0.591533    43A      0.591535    44A      0.602526
      45A      0.624642    46A      0.631548    47A      0.636301
      48A      0.636305    49A      0.663527    50A      0.663527
      51A      0.683836    52A      0.683837    53A      0.734862
      54A      0.825427    55A      0.825430    56A      0.854050
      57A      0.914980    58A      0.914985    59A      0.944088
      60A      0.945000    61A      0.961222    62A      0.961239
      63A      1.003295    64A      1.128182    65A      1.128195
      66A      1.142641    67A      1.162653    68A      1.162665
      69A      1.223753    70A      1.274613    71A      1.274617
      72A      1.279516    73A      1.324558    74A      1.324560
      75A      1.356314    76A      1.366190    77A      1.366195
      78A      1.391978    79A      1.403332    80A      1.403334
      81A      1.417093    82A      1.417099    83A      1.427654
      84A      1.491985    85A      1.498524    86A      1.542985
      87A      1.542987    88A      1.574544    89A      1.574546
      90A      1.669041    91A      1.739914    92A      1.739925
      93A      1.768292    94A      1.830969    95A      1.830970
      96A      1.972324    97A      2.018084    98A      2.019786
      99A      2.019790   100A      2.053071   101A      2.053073
     102A      2.738661   103A      2.738662   104A      2.791140
     105A      2.811514   106A      2.890058   107A      2.890064
     108A      2.895350   109A      2.929333   110A      2.929341
     111A      2.958944   112A      2.964339   113A      2.964353
     114A      3.034182   115A      3.071225   116A      3.071239
     117A      3.084755   118A      3.168879   119A      3.168887
     120A      3.181180   121A      3.284982   122A      3.284983
     123A      3.327402   124A      3.327408   125A      3.375522
     126A      3.490241   127A      3.490261   128A      3.514145
     129A      3.525681   130A      3.568625   131A      3.568645
     132A      3.575012   133A      3.665592   134A      3.665600
     135A      3.679085   136A      3.694019   137A      3.694036
     138A      3.776846   139A      3.776872   140A      3.788824
     141A      3.913320   142A      3.913327   143A      4.035019
     144A      4.111096   145A      4.111100   146A      4.148122
     147A      4.148130   148A      4.173924   149A      4.203526
     150A      4.203739   151A      4.203743   152A      4.211203
     153A      4.315827   154A      4.315847   155A      4.358337
     156A      4.423285   157A      4.423288   158A      4.441463
     159A      4.517176   160A      4.517177   161A      4.578989
     162A      4.579001   163A      4.617909   164A      4.710728
     165A      4.775375   166A      4.775383   167A      4.838223
     168A      4.961553   169A      5.002069   170A      5.002081
     171A      5.227516   172A      5.246526   173A      5.246527
     174A      5.355654   175A      5.355668   176A      5.480567

    Beta Occupied:

       1A    -10.167838     2A    -10.167837     3A    -10.167811
       4A    -10.166478     5A     -0.781333     6A     -0.683993
       7A     -0.683992     8A     -0.511959     9A     -0.431091
      10A     -0.431091    11A     -0.421789    12A     -0.376531
      13A     -0.376529    14A     -0.362390    15A     -0.333297
      16A     -0.333296

    Beta Virtual:

      17A     -0.025912    18A      0.077077    19A      0.134996
      20A      0.134997    21A      0.144367    22A      0.144368
      23A      0.163487    24A      0.182298    25A      0.182298
      26A      0.214908    27A      0.219171    28A      0.282554
      29A      0.282556    30A      0.400397    31A      0.400401
      32A      0.419708    33A      0.426856    34A      0.426857
      35A      0.468758    36A      0.497647    37A      0.497648
      38A      0.513849    39A      0.556237    40A      0.584319
      41A      0.584327    42A      0.597704    43A      0.597705
      44A      0.609944    45A      0.628054    46A      0.631708
      47A      0.639604    48A      0.639608    49A      0.667092
      50A      0.667093    51A      0.686482    52A      0.686483
      53A      0.757309    54A      0.830611    55A      0.830614
      56A      0.855416    57A      0.922948    58A      0.922955
      59A      0.945997    60A      0.953876    61A      0.966537
      62A      0.966553    63A      1.008525    64A      1.132203
      65A      1.132215    66A      1.156059    67A      1.167715
      68A      1.167728    69A      1.232667    70A      1.280243
      71A      1.280247    72A      1.285245    73A      1.329569
      74A      1.329571    75A      1.365735    76A      1.371371
      77A      1.371375    78A      1.393050    79A      1.406831
      80A      1.406833    81A      1.422145    82A      1.422151
      83A      1.427911    84A      1.493063    85A      1.508972
      86A      1.547416    87A      1.547416    88A      1.582399
      89A      1.582399    90A      1.673883    91A      1.745672
      92A      1.745684    93A      1.779113    94A      1.834849
      95A      1.834850    96A      1.973190    97A      2.026249
      98A      2.026253    99A      2.039466   100A      2.059745
     101A      2.059747   102A      2.746965   103A      2.746967
     104A      2.811879   105A      2.816288   106A      2.902706
     107A      2.902712   108A      2.925098   109A      2.931841
     110A      2.931850   111A      2.960004   112A      2.968915
     113A      2.968929   114A      3.042158   115A      3.081180
     116A      3.081192   117A      3.086579   118A      3.184542
     119A      3.184546   120A      3.188826   121A      3.289830
     122A      3.289830   123A      3.331201   124A      3.331207
     125A      3.383372   126A      3.492980   127A      3.493000
     128A      3.512512   129A      3.528685   130A      3.574878
     131A      3.581893   132A      3.581914   133A      3.670163
     134A      3.670174   135A      3.692378   136A      3.725759
     137A      3.725775   138A      3.781433   139A      3.781459
     140A      3.817316   141A      3.923098   142A      3.923106
     143A      4.045827   144A      4.118008   145A      4.118010
     146A      4.155277   147A      4.155286   148A      4.188040
     149A      4.209676   150A      4.209680   151A      4.211531
     152A      4.215694   153A      4.323175   154A      4.323196
     155A      4.361721   156A      4.431568   157A      4.431571
     158A      4.444344   159A      4.525030   160A      4.525031
     161A      4.589609   162A      4.589622   163A      4.625121
     164A      4.721076   165A      4.782327   166A      4.782334
     167A      4.841137   168A      4.966370   169A      5.006130
     170A      5.006144   171A      5.233249   172A      5.248320
     173A      5.248321   174A      5.362163   175A      5.362177
     176A      5.482896

    Final Occupation by Irrep:
              A
    DOCC [    16 ]
    SOCC [     1 ]

  @DF-UKS Final Energy:  -157.81309441164922

   => Energetics <=

    Nuclear Repulsion Energy =            125.4225363046503077
    One-Electron Energy =                -458.8038448316336826
    Two-Electron Energy =                 195.8752399084743843
    DFT Exchange-Correlation Energy =     -20.3070257931402054
    Empirical Dispersion Energy =           0.0000000000000000
    VV10 Nonlocal Energy =                  0.0000000000000000
    Total Energy =                       -157.8130944116492174

  UHF NO Occupations:
  HONO-2 :   15  A 1.9995993
  HONO-1 :   16  A 1.9989827
  HONO-0 :   17  A 1.0000000
  LUNO+0 :   18  A 0.0010173
  LUNO+1 :   19  A 0.0004007
  LUNO+2 :   20  A 0.0001968
  LUNO+3 :   21  A 0.0001968

Computation Completed

Properties will be evaluated at   0.000000,   0.000000,   0.000000 [a0]

Properties computed using the SCF density matrix

  Nuclear Dipole Moment: [e a0]
     X:     0.8280      Y:    -0.0000      Z:     0.0000

  Electronic Dipole Moment: [e a0]
     X:    -0.7502      Y:     0.0000      Z:    -0.0000

  Dipole Moment: [e a0]
     X:     0.0778      Y:     0.0000      Z:     0.0000     Total:     0.0778

  Dipole Moment: [D]
     X:     0.1977      Y:     0.0000      Z:     0.0000     Total:     0.1977

*** tstop() called on n089 at Fri Nov  5 13:27:10 2021
Module time:
	user time   =     502.40 seconds =       8.37 minutes
	system time =       4.66 seconds =       0.08 minutes
	total time  =        128 seconds =       2.13 minutes
Total time:
	user time   =     502.40 seconds =       8.37 minutes
	system time =       4.66 seconds =       0.08 minutes
	total time  =        128 seconds =       2.13 minutes
Grab this energy -157.81309441164922
    Psi4 stopped on: Friday, 05 November 2021 01:27PM
    Psi4 wall time for execution: 0:02:07.48

*** Psi4 exiting successfully. Buy a developer a beer!
