                               Psi4 1.4a2.dev629

  ==> Input File <==

--------------------------------------------------------------------------
import os
memory 14 GB

molecule {
 C   -0.3233286256   -0.0000025077   -0.0019959509
 C    0.0611903762   -1.4008315865   -2.4274538596
 C    0.0612023167    2.8033981577   -0.0011524590
 C    0.0614554941   -1.4025642001    2.4281498920
 H    2.0871784730   -1.6400872774   -2.8445936363
 H   -0.7657702021   -0.3903113835   -4.0271846282
 H   -0.7645612763   -3.2903061343   -2.3463859261
 H    2.0868459758    3.2876093460   -0.0040948316
 H   -0.7643880463    3.6741494759    1.6773859139
 H   -0.7671369644    3.6853940415   -1.6758033930
 H    2.0867919899   -1.6476087399    2.8494314146
 H   -0.7668137139   -3.2933887472    2.3506550282
 H   -0.7652736737   -0.3854747581    4.0230424362
units bohr
0 2
}

basis {

assign 6-31g_2dfp_

[ 6-31g_2dfp_ ]

spherical

!----------------------------------------------------------------------
! Basis Set Exchange
! Version v0.8.13
! https://www.basissetexchange.org
!----------------------------------------------------------------------
!   Basis set: 6-31G(2df,p)
! Description: 6-31G(2df,p)
!        Role: orbital
!     Version: 0  (Data from the original Basis Set Exchange)
!----------------------------------------------------------------------

****
H     0
S    3   1.00
     18.7311370              0.03349460
      2.8253937              0.23472695
      0.6401217              0.81375733
S    1   1.00
      0.1612778              1.00000000
P    1   1.00
      1.5000000              1.0000000
P    1   1.00
      0.3750000              1.0000000
****
B     0
S    6   1.00
   2068.8823000              0.0018663
    310.6495700              0.0142515
     70.6830330              0.0695516
     19.8610800              0.2325729
      6.2993048              0.4670787
      2.1270270              0.3634314
SP   3   1.00
      4.7279710             -0.1303938              0.0745976
      1.1903377             -0.1307889              0.3078467
      0.3594117              1.1309444              0.7434568
SP   1   1.00
      0.1267512              1.0000000              1.0000000
D    1   1.00
      0.8020000              1.0000000
D    1   1.00
      0.2005000              1.0000000
F    1   1.00
      0.5000000              1.0000000
****
C     0
S    6   1.00
   3047.5249000              0.0018347
    457.3695100              0.0140373
    103.9486900              0.0688426
     29.2101550              0.2321844
      9.2866630              0.4679413
      3.1639270              0.3623120
SP   3   1.00
      7.8682724             -0.1193324              0.0689991
      1.8812885             -0.1608542              0.3164240
      0.5442493              1.1434564              0.7443083
SP   1   1.00
      0.1687144              1.0000000              1.0000000
D    1   1.00
      1.2520000              1.0000000
D    1   1.00
      0.3130000              1.0000000
F    1   1.00
      0.8000000              1.0000000
****
N     0
S    6   1.00
   4173.5110000              0.0018348
    627.4579000              0.0139950
    142.9021000              0.0685870
     40.2343300              0.2322410
     12.8202100              0.4690700
      4.3904370              0.3604550
SP   3   1.00
     11.6263580             -0.1149610              0.0675800
      2.7162800             -0.1691180              0.3239070
      0.7722180              1.1458520              0.7408950
SP   1   1.00
      0.2120313              1.0000000              1.0000000
D    1   1.00
      1.8260000              1.0000000
D    1   1.00
      0.4565000              1.0000000
F    1   1.00
      1.0000000              1.0000000
****
O     0
S    6   1.00
   5484.6717000              0.0018311
    825.2349500              0.0139501
    188.0469600              0.0684451
     52.9645000              0.2327143
     16.8975700              0.4701930
      5.7996353              0.3585209
SP   3   1.00
     15.5396160             -0.1107775              0.0708743
      3.5999336             -0.1480263              0.3397528
      1.0137618              1.1307670              0.7271586
SP   1   1.00
      0.2700058              1.0000000              1.0000000
D    1   1.00
      2.5840000              1.0000000
D    1   1.00
      0.6460000              1.0000000
F    1   1.00
      1.4000000              1.0000000
****
F     0
S    6   1.00
   7001.7130900              0.0018196169
   1051.3660900              0.0139160796
    239.2856900              0.0684053245
     67.3974453              0.233185760
     21.5199573              0.471267439
      7.40310130             0.356618546
SP   3   1.00
     20.8479528             -0.108506975            0.0716287243
      4.80830834            -0.146451658            0.3459121030
      1.34406986             1.128688580            0.7224699570
SP   1   1.00
      0.358151393            1.0000000              1.0000000
D    1   1.00
      3.5000000              1.0000000
D    1   1.00
      0.8750000              1.0000000
F    1   1.00
      1.8500000              1.0000000
****
Al     0
S    6   1.00
  13983.1000000              0.00194267
   2098.7500000              0.0148599
    477.7050000              0.0728494
    134.3600000              0.2468300
     42.8709000              0.4872580
     14.5189000              0.3234960
SP   6   1.00
    239.6680000             -0.00292619             0.00460285
     57.4419000             -0.0374080              0.0331990
     18.2859000             -0.1144870              0.1362820
      6.5991400              0.1156350              0.3304760
      2.4904900              0.6125950              0.4491460
      0.9445400              0.3937990              0.2657040
SP   3   1.00
      1.2779000             -0.2276060             -0.0175130
      0.3975900              0.00144583             0.2445330
      0.1600950              1.0927900              0.8049340
SP   1   1.00
      0.0556577              1.0000000              1.0000000
D    1   1.00
      0.6500000              1.0000000
D    1   1.00
      0.1625000              1.0000000
F    1   1.00
      0.2500000              1.0000000
****
Si     0
S    6   1.00
  16115.9000000              0.00195948
   2425.5800000              0.01492880
    553.8670000              0.07284780
    156.3400000              0.24613000
     50.0683000              0.48591400
     17.0178000              0.32500200
SP   6   1.00
    292.7180000             -0.00278094             0.00443826
     69.8731000             -0.03571460             0.03266790
     22.3363000             -0.11498500             0.13472100
      8.1503900              0.09356340             0.32867800
      3.1345800              0.60301700             0.44964000
      1.2254300              0.41895900             0.26137200
SP   3   1.00
      1.7273800             -0.24463000            -0.01779510
      0.5729220              0.00431572             0.25353900
      0.2221920              1.09818000             0.80066900
SP   1   1.00
      0.0778369              1.00000000             1.00000000
D    1   1.00
      0.9000000              1.0000000
D    1   1.00
      0.2250000              1.0000000
F    1   1.00
      0.3200000              1.0000000
****
P     0
S    6   1.00
  19413.3000000              0.0018516
   2909.4200000              0.0142062
    661.3640000              0.0699995
    185.7590000              0.2400790
     59.1943000              0.4847620
     20.0310000              0.3352000
SP   6   1.00
    339.4780000             -0.00278217             0.00456462
     81.0101000             -0.0360499              0.03369360
     25.8780000             -0.1166310              0.13975500
      9.4522100              0.0968328              0.33936200
      3.6656600              0.6144180              0.45092100
      1.4674600              0.4037980              0.23858600
SP   3   1.00
      2.1562300             -0.2529230             -0.01776530
      0.7489970              0.0328517              0.27405800
      0.2831450              1.0812500              0.78542100
SP   1   1.00
      0.0998317              1.0000000              1.00000000
D    1   1.00
      1.1000000              1.0000000
D    1   1.00
      0.2750000              1.0000000
F    1   1.00
      0.4500000              1.0000000
****
S     0
S    6   1.00
  21917.1000000              0.0018690
   3301.4900000              0.0142300
    754.1460000              0.0696960
    212.7110000              0.2384870
     67.9896000              0.4833070
     23.0515000              0.3380740
SP   6   1.00
    423.7350000             -0.0023767              0.0040610
    100.7100000             -0.0316930              0.0306810
     32.1599000             -0.1133170              0.1304520
     11.8079000              0.0560900              0.3272050
      4.6311000              0.5922550              0.4528510
      1.8702500              0.4550060              0.2560420
SP   3   1.00
      2.6158400             -0.2503740             -0.0145110
      0.9221670              0.0669570              0.3102630
      0.3412870              1.0545100              0.7544830
SP   1   1.00
      0.1171670              1.0000000              1.0000000
D    1   1.00
      1.3000000              1.0000000
D    1   1.00
      0.3250000              1.0000000
F    1   1.00
      0.5500000              1.0000000
****
Cl     0
S    6   1.00
  25180.1000000              0.0018330
   3780.3500000              0.0140340
    860.4740000              0.0690970
    242.1450000              0.2374520
     77.3349000              0.4830340
     26.2470000              0.3398560
SP   6   1.00
    491.7650000             -0.0022974              0.0039894
    116.9840000             -0.0307140              0.0303180
     37.4153000             -0.1125280              0.1298800
     13.7834000              0.0450160              0.3279510
      5.4521500              0.5893530              0.4535270
      2.2258800              0.4652060              0.2521540
SP   3   1.00
      3.1864900             -0.2518300             -0.0142990
      1.1442700              0.0615890              0.3235720
      0.4203770              1.0601800              0.7435070
SP   1   1.00
      0.1426570              1.0000000              1.0000000
D    1   1.00
      1.5000000              1.0000000
D    1   1.00
      0.3750000              1.0000000
F    1   1.00
      0.7000000              1.0000000
****
}

set {
reference uhf
freeze_core true
e_convergence 10
d_convergence 10
dft_spherical_points 1202
dft_radial_points 99
}

e = energy('b3lyp')

print_out('Grab this energy {0}'.format(e))
--------------------------------------------------------------------------

    Molecular point group: c1

    Geometry (in Bohr), charge = 0, multiplicity = 2:

       Center              X                  Y                   Z               Mass
    ------------   -----------------  -----------------  -----------------  -----------------
         C           -0.323436398239    -0.000002052028    -0.001523605333    12.000000000000
         C            0.061082603561    -1.400831130828    -2.426981514033    12.000000000000
         C            0.061094544061     2.803398613372    -0.000680113433    12.000000000000
         C            0.061347721461    -1.402563744428     2.428622237567    12.000000000000
         H            2.087070700361    -1.640086821728    -2.844121290733     1.007825032230
         H           -0.765877974739    -0.390310927828    -4.026712282633     1.007825032230
         H           -0.764669048939    -3.290305678628    -2.345913580533     1.007825032230
         H            2.086738203161     3.287609801672    -0.003622486033     1.007825032230
         H           -0.764495818939     3.674149931572     1.677858259467     1.007825032230
         H           -0.767244737039     3.685394497172    -1.675331047433     1.007825032230
         H            2.086684217261    -1.647608284228     2.849903760167     1.007825032230
         H           -0.766921486539    -3.293388291528     2.351127373767     1.007825032230
         H           -0.765381446339    -0.385474302428     4.023514781767     1.007825032230

  Charge       = 0
  Multiplicity = 2
  Basis Set: ANONYMOUS9625744C
    Blend: 6-31G_2DFP_
  Basis Set: (ANONYMOUS9625744C AUX)
    Blend: DEF2-UNIVERSAL-JKFIT

    Orbital Energies [Eh]
    ---------------------

    Alpha Occupied:

       1A    -10.180393     2A    -10.167122     3A    -10.166963
       4A    -10.166802     5A     -0.797510     6A     -0.686299
       7A     -0.686056     8A     -0.530609     9A     -0.441119
      10A     -0.434673    11A     -0.434532    12A     -0.382772
      13A     -0.382701    14A     -0.363813    15A     -0.337903
      16A     -0.337772    17A     -0.168940

    Alpha Virtual:

      18A      0.076081    19A      0.134183    20A      0.134246
      21A      0.142699    22A      0.142820    23A      0.154774
      24A      0.178904    25A      0.178984    26A      0.203256
      27A      0.214928    28A      0.275475    29A      0.276012
      30A      0.399195    31A      0.399267    32A      0.403443
      33A      0.424097    34A      0.424207    35A      0.456412
      36A      0.495340    37A      0.495459    38A      0.512214
      39A      0.514037    40A      0.578566    41A      0.579148
      42A      0.591439    43A      0.592026    44A      0.602618
      45A      0.624878    46A      0.632007    47A      0.636160
      48A      0.636232    49A      0.663264    50A      0.663329
      51A      0.683837    52A      0.683896    53A      0.735125
      54A      0.825170    55A      0.825602    56A      0.853780
      57A      0.914923    58A      0.915200    59A      0.944077
      60A      0.944300    61A      0.960674    62A      0.962050
      63A      1.003632    64A      1.127814    65A      1.128239
      66A      1.141804    67A      1.163778    68A      1.163993
      69A      1.222906    70A      1.274206    71A      1.274516
      72A      1.279186    73A      1.324154    74A      1.324160
      75A      1.355659    76A      1.365747    77A      1.366079
      78A      1.392942    79A      1.404469    80A      1.405089
      81A      1.416724    82A      1.417516    83A      1.428166
      84A      1.490972    85A      1.499659    86A      1.542392
      87A      1.542941    88A      1.574337    89A      1.574351
      90A      1.670619    91A      1.738534    92A      1.739286
      93A      1.768338    94A      1.831350    95A      1.832331
      96A      1.971135    97A      2.017870    98A      2.018299
      99A      2.018940   100A      2.051407   101A      2.053030
     102A      2.738032   103A      2.738587   104A      2.790703
     105A      2.811330   106A      2.889564   107A      2.890098
     108A      2.894584   109A      2.929630   110A      2.929674
     111A      2.959044   112A      2.964251   113A      2.964555
     114A      3.033837   115A      3.071201   116A      3.071467
     117A      3.083948   118A      3.168480   119A      3.168884
     120A      3.179989   121A      3.285603   122A      3.285686
     123A      3.326581   124A      3.327242   125A      3.375708
     126A      3.489905   127A      3.490212   128A      3.513871
     129A      3.524956   130A      3.567803   131A      3.568425
     132A      3.575373   133A      3.666932   134A      3.667339
     135A      3.680204   136A      3.693794   137A      3.694746
     138A      3.775507   139A      3.777991   140A      3.789444
     141A      3.910863   142A      3.911398   143A      4.033899
     144A      4.110388   145A      4.112881   146A      4.147232
     147A      4.149001   148A      4.172608   149A      4.201758
     150A      4.202364   151A      4.202459   152A      4.210504
     153A      4.315249   154A      4.316839   155A      4.359662
     156A      4.425384   157A      4.425904   158A      4.445411
     159A      4.516088   160A      4.516912   161A      4.577204
     162A      4.577871   163A      4.617138   164A      4.708171
     165A      4.772720   166A      4.774848   167A      4.835617
     168A      4.964175   169A      5.003488   170A      5.004191
     171A      5.228563   172A      5.246624   173A      5.247563
     174A      5.354626   175A      5.356056   176A      5.478141

    Beta Occupied:

       1A    -10.167878     2A    -10.167721     3A    -10.167563
       4A    -10.166560     5A     -0.780850     6A     -0.684100
       7A     -0.683872     8A     -0.511534     9A     -0.431057
      10A     -0.430935    11A     -0.421851    12A     -0.376868
      13A     -0.376807    14A     -0.362801    15A     -0.333007
      16A     -0.332885

    Beta Virtual:

      17A     -0.025573    18A      0.077086    19A      0.135072
      20A      0.135119    21A      0.144566    22A      0.144691
      23A      0.163192    24A      0.182578    25A      0.182622
      26A      0.215156    27A      0.218687    28A      0.281853
      29A      0.282369    30A      0.400362    31A      0.400433
      32A      0.419873    33A      0.426906    34A      0.427019
      35A      0.468244    36A      0.497596    37A      0.497709
      38A      0.513941    39A      0.556413    40A      0.584117
      41A      0.584700    42A      0.597641    43A      0.598202
      44A      0.610047    45A      0.628218    46A      0.632159
      47A      0.639410    48A      0.639520    49A      0.666824
      50A      0.666893    51A      0.686441    52A      0.686542
      53A      0.757725    54A      0.830302    55A      0.830777
      56A      0.855121    57A      0.922931    58A      0.923139
      59A      0.945908    60A      0.953211    61A      0.966028
      62A      0.967294    63A      1.008882    64A      1.131776
      65A      1.132347    66A      1.155146    67A      1.168940
      68A      1.168995    69A      1.231936    70A      1.279772
      71A      1.280079    72A      1.284964    73A      1.329110
      74A      1.329138    75A      1.365066    76A      1.371079
      77A      1.371353    78A      1.393991    79A      1.407877
      80A      1.408547    81A      1.421778    82A      1.422561
      83A      1.428447    84A      1.492007    85A      1.510081
      86A      1.546777    87A      1.547327    88A      1.582228
      89A      1.582240    90A      1.675472    91A      1.744290
      92A      1.745058    93A      1.779076    94A      1.835183
      95A      1.836159    96A      1.971987    97A      2.024566
      98A      2.024699    99A      2.039900   100A      2.058134
     101A      2.059808   102A      2.746415   103A      2.746939
     104A      2.811744   105A      2.815870   106A      2.902369
     107A      2.902783   108A      2.924220   109A      2.932094
     110A      2.932112   111A      2.960108   112A      2.968782
     113A      2.969051   114A      3.041729   115A      3.081077
     116A      3.081323   117A      3.085756   118A      3.184294
     119A      3.184765   120A      3.187690   121A      3.290329
     122A      3.290461   123A      3.330408   124A      3.331034
     125A      3.383494   126A      3.492643   127A      3.492916
     128A      3.512240   129A      3.528045   130A      3.575042
     131A      3.581261   132A      3.581958   133A      3.672038
     134A      3.672153   135A      3.693501   136A      3.725629
     137A      3.725896   138A      3.780017   139A      3.782408
     140A      3.818044   141A      3.920735   142A      3.921234
     143A      4.044865   144A      4.117220   145A      4.119491
     146A      4.154471   147A      4.156288   148A      4.186608
     149A      4.208279   150A      4.208399   151A      4.209709
     152A      4.214961   153A      4.322752   154A      4.324393
     155A      4.363009   156A      4.433580   157A      4.434010
     158A      4.448293   159A      4.523824   160A      4.524628
     161A      4.587788   162A      4.588450   163A      4.624313
     164A      4.718514   165A      4.779717   166A      4.781760
     167A      4.838538   168A      4.968948   169A      5.007495
     170A      5.008217   171A      5.234262   172A      5.248391
     173A      5.249345   174A      5.361056   175A      5.362530
     176A      5.480455

    Final Occupation by Irrep:
              A
    DOCC [    16 ]
    SOCC [     1 ]

  @DF-UKS Final Energy:  -157.81304452336875

   => Energetics <=

    Nuclear Repulsion Energy =            125.3666735156488699
    One-Electron Energy =                -458.6939057735008873
    Two-Electron Energy =                 195.8214470046439430
    DFT Exchange-Correlation Energy =     -20.3072592701606638
    Empirical Dispersion Energy =           0.0000000000000000
    VV10 Nonlocal Energy =                  0.0000000000000000
    Total Energy =                       -157.8130445233687453

  UHF NO Occupations:
  HONO-2 :   15  A 1.9996025
  HONO-1 :   16  A 1.9989782
  HONO-0 :   17  A 1.0000000
  LUNO+0 :   18  A 0.0010218
  LUNO+1 :   19  A 0.0003975
  LUNO+2 :   20  A 0.0001987
  LUNO+3 :   21  A 0.0001980

Computation Completed

Properties will be evaluated at   0.000000,   0.000000,   0.000000 [a0]

Properties computed using the SCF density matrix

  Nuclear Dipole Moment: [e a0]
     X:     0.8264      Y:    -0.0000      Z:     0.0033

  Electronic Dipole Moment: [e a0]
     X:    -0.7484      Y:     0.0000      Z:    -0.0034

  Dipole Moment: [e a0]
     X:     0.0780      Y:    -0.0000      Z:    -0.0000     Total:     0.0780

  Dipole Moment: [D]
     X:     0.1984      Y:    -0.0000      Z:    -0.0001     Total:     0.1984

*** tstop() called on n067 at Fri Nov  5 13:27:06 2021
Module time:
	user time   =     540.46 seconds =       9.01 minutes
	system time =      12.91 seconds =       0.22 minutes
	total time  =        139 seconds =       2.32 minutes
Total time:
	user time   =     540.46 seconds =       9.01 minutes
	system time =      12.91 seconds =       0.22 minutes
	total time  =        139 seconds =       2.32 minutes
Grab this energy -157.81304452336875
    Psi4 stopped on: Friday, 05 November 2021 01:27PM
    Psi4 wall time for execution: 0:02:19.16

*** Psi4 exiting successfully. Buy a developer a beer!
