                               Psi4 1.4a2.dev629

  ==> Input File <==

--------------------------------------------------------------------------
import os
memory 14 GB

molecule {
 C   -0.3247833225   -0.0050034024   -0.0000000000
 C    0.0616934520   -1.3981354052   -2.4324060864
 C    0.0624859329    2.7937469837    0.0000000000
 C    0.0616934520   -1.3981354052    2.4324060864
 H    2.0864945218   -1.6380393946   -2.8562538244
 H   -0.7684997715   -0.3798173352   -4.0272991406
 H   -0.7638653957   -3.2902079779   -2.3621485196
 H    2.0875334764    3.2789833669    0.0000000000
 H   -0.7647447884    3.6723244819    1.6762482259
 H   -0.7647447884    3.6723244819   -1.6762482259
 H    2.0864945218   -1.6380393946    2.8562538244
 H   -0.7638653957   -3.2902079779    2.3621485196
 H   -0.7684997715   -0.3798173352    4.0272991406
units bohr
0 2
}

basis {

assign 6-31g_2dfp_

[ 6-31g_2dfp_ ]

spherical

!----------------------------------------------------------------------
! Basis Set Exchange
! Version v0.8.13
! https://www.basissetexchange.org
!----------------------------------------------------------------------
!   Basis set: 6-31G(2df,p)
! Description: 6-31G(2df,p)
!        Role: orbital
!     Version: 0  (Data from the original Basis Set Exchange)
!----------------------------------------------------------------------

****
H     0
S    3   1.00
     18.7311370              0.03349460
      2.8253937              0.23472695
      0.6401217              0.81375733
S    1   1.00
      0.1612778              1.00000000
P    1   1.00
      1.5000000              1.0000000
P    1   1.00
      0.3750000              1.0000000
****
B     0
S    6   1.00
   2068.8823000              0.0018663
    310.6495700              0.0142515
     70.6830330              0.0695516
     19.8610800              0.2325729
      6.2993048              0.4670787
      2.1270270              0.3634314
SP   3   1.00
      4.7279710             -0.1303938              0.0745976
      1.1903377             -0.1307889              0.3078467
      0.3594117              1.1309444              0.7434568
SP   1   1.00
      0.1267512              1.0000000              1.0000000
D    1   1.00
      0.8020000              1.0000000
D    1   1.00
      0.2005000              1.0000000
F    1   1.00
      0.5000000              1.0000000
****
C     0
S    6   1.00
   3047.5249000              0.0018347
    457.3695100              0.0140373
    103.9486900              0.0688426
     29.2101550              0.2321844
      9.2866630              0.4679413
      3.1639270              0.3623120
SP   3   1.00
      7.8682724             -0.1193324              0.0689991
      1.8812885             -0.1608542              0.3164240
      0.5442493              1.1434564              0.7443083
SP   1   1.00
      0.1687144              1.0000000              1.0000000
D    1   1.00
      1.2520000              1.0000000
D    1   1.00
      0.3130000              1.0000000
F    1   1.00
      0.8000000              1.0000000
****
N     0
S    6   1.00
   4173.5110000              0.0018348
    627.4579000              0.0139950
    142.9021000              0.0685870
     40.2343300              0.2322410
     12.8202100              0.4690700
      4.3904370              0.3604550
SP   3   1.00
     11.6263580             -0.1149610              0.0675800
      2.7162800             -0.1691180              0.3239070
      0.7722180              1.1458520              0.7408950
SP   1   1.00
      0.2120313              1.0000000              1.0000000
D    1   1.00
      1.8260000              1.0000000
D    1   1.00
      0.4565000              1.0000000
F    1   1.00
      1.0000000              1.0000000
****
O     0
S    6   1.00
   5484.6717000              0.0018311
    825.2349500              0.0139501
    188.0469600              0.0684451
     52.9645000              0.2327143
     16.8975700              0.4701930
      5.7996353              0.3585209
SP   3   1.00
     15.5396160             -0.1107775              0.0708743
      3.5999336             -0.1480263              0.3397528
      1.0137618              1.1307670              0.7271586
SP   1   1.00
      0.2700058              1.0000000              1.0000000
D    1   1.00
      2.5840000              1.0000000
D    1   1.00
      0.6460000              1.0000000
F    1   1.00
      1.4000000              1.0000000
****
F     0
S    6   1.00
   7001.7130900              0.0018196169
   1051.3660900              0.0139160796
    239.2856900              0.0684053245
     67.3974453              0.233185760
     21.5199573              0.471267439
      7.40310130             0.356618546
SP   3   1.00
     20.8479528             -0.108506975            0.0716287243
      4.80830834            -0.146451658            0.3459121030
      1.34406986             1.128688580            0.7224699570
SP   1   1.00
      0.358151393            1.0000000              1.0000000
D    1   1.00
      3.5000000              1.0000000
D    1   1.00
      0.8750000              1.0000000
F    1   1.00
      1.8500000              1.0000000
****
Al     0
S    6   1.00
  13983.1000000              0.00194267
   2098.7500000              0.0148599
    477.7050000              0.0728494
    134.3600000              0.2468300
     42.8709000              0.4872580
     14.5189000              0.3234960
SP   6   1.00
    239.6680000             -0.00292619             0.00460285
     57.4419000             -0.0374080              0.0331990
     18.2859000             -0.1144870              0.1362820
      6.5991400              0.1156350              0.3304760
      2.4904900              0.6125950              0.4491460
      0.9445400              0.3937990              0.2657040
SP   3   1.00
      1.2779000             -0.2276060             -0.0175130
      0.3975900              0.00144583             0.2445330
      0.1600950              1.0927900              0.8049340
SP   1   1.00
      0.0556577              1.0000000              1.0000000
D    1   1.00
      0.6500000              1.0000000
D    1   1.00
      0.1625000              1.0000000
F    1   1.00
      0.2500000              1.0000000
****
Si     0
S    6   1.00
  16115.9000000              0.00195948
   2425.5800000              0.01492880
    553.8670000              0.07284780
    156.3400000              0.24613000
     50.0683000              0.48591400
     17.0178000              0.32500200
SP   6   1.00
    292.7180000             -0.00278094             0.00443826
     69.8731000             -0.03571460             0.03266790
     22.3363000             -0.11498500             0.13472100
      8.1503900              0.09356340             0.32867800
      3.1345800              0.60301700             0.44964000
      1.2254300              0.41895900             0.26137200
SP   3   1.00
      1.7273800             -0.24463000            -0.01779510
      0.5729220              0.00431572             0.25353900
      0.2221920              1.09818000             0.80066900
SP   1   1.00
      0.0778369              1.00000000             1.00000000
D    1   1.00
      0.9000000              1.0000000
D    1   1.00
      0.2250000              1.0000000
F    1   1.00
      0.3200000              1.0000000
****
P     0
S    6   1.00
  19413.3000000              0.0018516
   2909.4200000              0.0142062
    661.3640000              0.0699995
    185.7590000              0.2400790
     59.1943000              0.4847620
     20.0310000              0.3352000
SP   6   1.00
    339.4780000             -0.00278217             0.00456462
     81.0101000             -0.0360499              0.03369360
     25.8780000             -0.1166310              0.13975500
      9.4522100              0.0968328              0.33936200
      3.6656600              0.6144180              0.45092100
      1.4674600              0.4037980              0.23858600
SP   3   1.00
      2.1562300             -0.2529230             -0.01776530
      0.7489970              0.0328517              0.27405800
      0.2831450              1.0812500              0.78542100
SP   1   1.00
      0.0998317              1.0000000              1.00000000
D    1   1.00
      1.1000000              1.0000000
D    1   1.00
      0.2750000              1.0000000
F    1   1.00
      0.4500000              1.0000000
****
S     0
S    6   1.00
  21917.1000000              0.0018690
   3301.4900000              0.0142300
    754.1460000              0.0696960
    212.7110000              0.2384870
     67.9896000              0.4833070
     23.0515000              0.3380740
SP   6   1.00
    423.7350000             -0.0023767              0.0040610
    100.7100000             -0.0316930              0.0306810
     32.1599000             -0.1133170              0.1304520
     11.8079000              0.0560900              0.3272050
      4.6311000              0.5922550              0.4528510
      1.8702500              0.4550060              0.2560420
SP   3   1.00
      2.6158400             -0.2503740             -0.0145110
      0.9221670              0.0669570              0.3102630
      0.3412870              1.0545100              0.7544830
SP   1   1.00
      0.1171670              1.0000000              1.0000000
D    1   1.00
      1.3000000              1.0000000
D    1   1.00
      0.3250000              1.0000000
F    1   1.00
      0.5500000              1.0000000
****
Cl     0
S    6   1.00
  25180.1000000              0.0018330
   3780.3500000              0.0140340
    860.4740000              0.0690970
    242.1450000              0.2374520
     77.3349000              0.4830340
     26.2470000              0.3398560
SP   6   1.00
    491.7650000             -0.0022974              0.0039894
    116.9840000             -0.0307140              0.0303180
     37.4153000             -0.1125280              0.1298800
     13.7834000              0.0450160              0.3279510
      5.4521500              0.5893530              0.4535270
      2.2258800              0.4652060              0.2521540
SP   3   1.00
      3.1864900             -0.2518300             -0.0142990
      1.1442700              0.0615890              0.3235720
      0.4203770              1.0601800              0.7435070
SP   1   1.00
      0.1426570              1.0000000              1.0000000
D    1   1.00
      1.5000000              1.0000000
D    1   1.00
      0.3750000              1.0000000
F    1   1.00
      0.7000000              1.0000000
****
}

set {
reference uhf
freeze_core true
e_convergence 10
d_convergence 10
dft_spherical_points 1202
dft_radial_points 99
}

e = energy('b3lyp')

print_out('Grab this energy {0}'.format(e))
--------------------------------------------------------------------------

    Molecular point group: cs

    Geometry (in Bohr), charge = 0, multiplicity = 2:

       Center              X                  Y                   Z               Mass
    ------------   -----------------  -----------------  -----------------  -----------------
         C           -0.325000872188    -0.003553174494     0.000000000000    12.000000000000
         C            0.061475902312    -1.396685177294    -2.432406086400    12.000000000000
         C            0.062268383212     2.795197211606     0.000000000000    12.000000000000
         C            0.061475902312    -1.396685177294     2.432406086400    12.000000000000
         H            2.086276972112    -1.636589166694    -2.856253824400     1.007825032230
         H           -0.768717321188    -0.378367107294    -4.027299140600     1.007825032230
         H           -0.764082945388    -3.288757749994    -2.362148519600     1.007825032230
         H            2.087315926712     3.280433594806     0.000000000000     1.007825032230
         H           -0.764962338088     3.673774709806     1.676248225900     1.007825032230
         H           -0.764962338088     3.673774709806    -1.676248225900     1.007825032230
         H            2.086276972112    -1.636589166694     2.856253824400     1.007825032230
         H           -0.764082945388    -3.288757749994     2.362148519600     1.007825032230
         H           -0.768717321188    -0.378367107294     4.027299140600     1.007825032230

  Charge       = 0
  Multiplicity = 2
  Basis Set: ANONYMOUS9E663169
    Blend: 6-31G_2DFP_
  Basis Set: (ANONYMOUS9E663169 AUX)
    Blend: DEF2-UNIVERSAL-JKFIT

    Orbital Energies [Eh]
    ---------------------

    Alpha Occupied:

       1Ap   -10.180407     1App  -10.167178     2Ap   -10.167149
       3Ap   -10.166694     4Ap    -0.797754     2App   -0.686387
       5Ap    -0.685948     6Ap    -0.530782     7Ap    -0.441183
       3App   -0.434873     8Ap    -0.434343     4App   -0.382849
       9Ap    -0.382562     5App   -0.363485     6App   -0.338176
      10Ap    -0.337635    11Ap    -0.169145

    Alpha Virtual:

      12Ap     0.076075     7App    0.133913    13Ap     0.134391
       8App    0.142468    14Ap     0.142741    15Ap     0.154959
       9App    0.178624    16Ap     0.179071    17Ap     0.203570
      10App    0.214759    11App    0.275645    18Ap     0.275982
      12App    0.399074    19Ap     0.399276    20Ap     0.403338
      13App    0.423940    21Ap     0.424208    22Ap     0.456689
      14App    0.494960    23Ap     0.495759    15App    0.512217
      24Ap     0.513888    16App    0.578694    25Ap     0.579171
      17App    0.591642    26Ap     0.591688    27Ap     0.602792
      28Ap     0.624687    18App    0.631709    29Ap     0.635872
      19App    0.636311    20App    0.663356    30Ap     0.663789
      21App    0.683506    31Ap     0.683983    32Ap     0.734797
      22App    0.824524    33Ap     0.826168    23App    0.853916
      24App    0.914728    34Ap     0.915198    25App    0.944103
      35Ap     0.944563    36Ap     0.961161    26App    0.961662
      37Ap     1.003470    27App    1.127071    38Ap     1.129363
      39Ap     1.142232    28App    1.163215    40Ap     1.164179
      41Ap     1.223171    29App    1.273915    42Ap     1.274951
      43Ap     1.279594    44Ap     1.324024    30App    1.324187
      45Ap     1.356230    31App    1.364890    46Ap     1.366415
      32App    1.392434    33App    1.403353    47Ap     1.404915
      34App    1.416852    48Ap     1.417864    35App    1.427978
      36App    1.491251    49Ap     1.499457    37App    1.542550
      50Ap     1.543223    38App    1.572387    51Ap     1.576043
      52Ap     1.669551    39App    1.738118    53Ap     1.740195
      54Ap     1.768403    40App    1.830506    55Ap     1.831524
      41App    1.971460    56Ap     2.017265    42App    2.017929
      57Ap     2.020757    43App    2.050542    58Ap     2.055610
      44App    2.738024    59Ap     2.738553    60Ap     2.791118
      45App    2.811409    61Ap     2.889599    46App    2.889805
      62Ap     2.895261    47App    2.929342    63Ap     2.929683
      48App    2.958918    49App    2.963405    64Ap     2.965159
      65Ap     3.034360    50App    3.069416    66Ap     3.071443
      51App    3.084305    52App    3.168170    67Ap     3.169674
      68Ap     3.180528    69Ap     3.285397    53App    3.286805
      54App    3.326581    70Ap     3.328471    71Ap     3.375831
      55App    3.489393    72Ap     3.490399    56App    3.513856
      73Ap     3.525769    57App    3.566829    74Ap     3.569290
      58App    3.575932    59App    3.665702    75Ap     3.665926
      76Ap     3.679435    77Ap     3.693708    60App    3.694620
      78Ap     3.775593    61App    3.777379    79Ap     3.788019
      62App    3.910787    80Ap     3.913624    81Ap     4.034164
      63App    4.109787    82Ap     4.112513    64App    4.146433
      83Ap     4.149716    84Ap     4.173179    65App    4.201604
      85Ap     4.202300    86Ap     4.205057    66App    4.210993
      87Ap     4.316123    67App    4.316168    68App    4.359480
      69App    4.424065    88Ap     4.424411    70App    4.443281
      71App    4.516375    89Ap     4.517929    72App    4.577309
      90Ap     4.579475    91Ap     4.617036    92Ap     4.709766
      73App    4.773107    93Ap     4.775782    74App    4.835743
      94Ap     4.962958    75App    5.002106    95Ap     5.004101
      96Ap     5.227921    97Ap     5.246559    76App    5.246867
      77App    5.354525    98Ap     5.355925    78App    5.478963

    Beta Occupied:

       1App  -10.167927     1Ap   -10.167910     2Ap   -10.167457
       3Ap   -10.166579     4Ap    -0.781083     2App   -0.684192
       5Ap    -0.683745     6Ap    -0.511745     3App   -0.431241
       7Ap    -0.430697     8Ap    -0.421911     4App   -0.376955
       9Ap    -0.376648     5App   -0.362467     6App   -0.333307
      10Ap    -0.332758

    Beta Virtual:

      11Ap    -0.025844    12Ap     0.077080     7App    0.134782
      13Ap     0.135281     8App    0.144347    14Ap     0.144609
      15Ap     0.163408     9App    0.182287    16Ap     0.182752
      10App    0.214989    17Ap     0.218931    11App    0.281993
      18Ap     0.282354    12App    0.400265    19Ap     0.400482
      20Ap     0.419694    13App    0.426738    21Ap     0.427037
      22Ap     0.468613    14App    0.497221    23Ap     0.498033
      15App    0.513948    24Ap     0.556229    16App    0.584260
      25Ap     0.584680    17App    0.597814    26Ap     0.597884
      27Ap     0.610186    28Ap     0.628091    18App    0.631867
      29Ap     0.639147    19App    0.639616    20App    0.666896
      30Ap     0.667379    21App    0.686085    31Ap     0.686665
      32Ap     0.757340    22App    0.829685    33Ap     0.831350
      23App    0.855266    24App    0.922697    34Ap     0.923190
      25App    0.945958    35Ap     0.953470    36Ap     0.966404
      26App    0.966964    37Ap     1.008727    27App    1.131113
      38Ap     1.133395    39Ap     1.155573    28App    1.168252
      40Ap     1.169286    41Ap     1.232137    29App    1.279523
      42Ap     1.280569    43Ap     1.285356    44Ap     1.329005
      30App    1.329201    45Ap     1.365622    31App    1.370022
      46Ap     1.371753    32App    1.393489    33App    1.406850
      47Ap     1.408356    34App    1.421874    48Ap     1.422890
      35App    1.428255    36App    1.492301    49Ap     1.509907
      37App    1.546856    50Ap     1.547725    38App    1.580400
      51Ap     1.583776    52Ap     1.674413    39App    1.743881
      53Ap     1.745953    54Ap     1.779161    40App    1.834336
      55Ap     1.835389    41App    1.972321    42App    2.024261
      56Ap     2.027214    57Ap     2.038644    43App    2.057364
      58Ap     2.062261    44App    2.746314    59Ap     2.746935
      45App    2.811830    60Ap     2.816235    61Ap     2.902368
      46App    2.902502    62Ap     2.924951    47App    2.931901
      63Ap     2.932066    48App    2.959986    49App    2.967984
      64Ap     2.969681    65Ap     3.042254    50App    3.079176
      66Ap     3.081498    51App    3.086209    52App    3.183929
      67Ap     3.185203    68Ap     3.188260    69Ap     3.290229
      53App    3.291496    54App    3.330387    70Ap     3.332293
      71Ap     3.383658    55App    3.492140    72Ap     3.493142
      56App    3.512235    73Ap     3.528831    57App    3.575298
      58App    3.580710    74Ap     3.582666    59App    3.670406
      75Ap     3.670672    76Ap     3.692729    77Ap     3.725389
      60App    3.726206    78Ap     3.780217    61App    3.781968
      79Ap     3.816480    62App    3.920567    80Ap     3.923404
      81Ap     4.045080    63App    4.116593    82Ap     4.119306
      64App    4.153711    83Ap     4.156885    84Ap     4.187199
      65App    4.207502    85Ap     4.210234    86Ap     4.211065
      66App    4.215461    87Ap     4.323566    67App    4.323648
      68App    4.362842    69App    4.432219    88Ap     4.432560
      70App    4.446214    71App    4.524240    89Ap     4.525603
      72App    4.587865    90Ap     4.590190    91Ap     4.624220
      92Ap     4.720138    73App    4.780036    93Ap     4.782787
      74App    4.838673    94Ap     4.967749    75App    5.006132
      95Ap     5.008126    96Ap     5.233636    97Ap     5.248341
      76App    5.248655    77App    5.360996    98Ap     5.362432
      78App    5.481291

    Final Occupation by Irrep:
             Ap   App
    DOCC [    10,    6 ]
    SOCC [     1,    0 ]

  @DF-UKS Final Energy:  -157.81305601238111

   => Energetics <=

    Nuclear Repulsion Energy =            125.3924322746775744
    One-Electron Energy =                -458.7446849425169262
    Two-Electron Energy =                 195.8462731128846599
    DFT Exchange-Correlation Energy =     -20.3070764574263976
    Empirical Dispersion Energy =           0.0000000000000000
    VV10 Nonlocal Energy =                  0.0000000000000000
    Total Energy =                       -157.8130560123811108

  UHF NO Occupations:
  HONO-2 :    9 Ap 1.9996024
  HONO-1 :   10 Ap 1.9989819
  HONO-0 :   11 Ap 1.0000000
  LUNO+0 :   12 Ap 0.0010181
  LUNO+1 :   13 Ap 0.0003976
  LUNO+2 :   14 Ap 0.0001980
  LUNO+3 :    7App 0.0001973

Computation Completed

Properties will be evaluated at   0.000000,   0.000000,   0.000000 [a0]

Properties computed using the SCF density matrix

  Nuclear Dipole Moment: [e a0]
     X:     0.8257      Y:     0.0102      Z:     0.0000

  Electronic Dipole Moment: [e a0]
     X:    -0.7470      Y:    -0.0109      Z:     0.0000

  Dipole Moment: [e a0]
     X:     0.0787      Y:    -0.0007      Z:     0.0000     Total:     0.0787

  Dipole Moment: [D]
     X:     0.2000      Y:    -0.0019      Z:     0.0000     Total:     0.2000

*** tstop() called on n080 at Fri Nov  5 11:42:37 2021
Module time:
	user time   =     494.45 seconds =       8.24 minutes
	system time =       4.71 seconds =       0.08 minutes
	total time  =        125 seconds =       2.08 minutes
Total time:
	user time   =     494.45 seconds =       8.24 minutes
	system time =       4.71 seconds =       0.08 minutes
	total time  =        125 seconds =       2.08 minutes
Grab this energy -157.8130560123811
    Psi4 stopped on: Friday, 05 November 2021 11:42AM
    Psi4 wall time for execution: 0:02:05.55

*** Psi4 exiting successfully. Buy a developer a beer!
