                               Psi4 1.4a2.dev629

  ==> Input File <==

--------------------------------------------------------------------------
import os
memory 14 GB

molecule {
 C   -0.3233395498    0.0004927745    0.0004331766
 C    0.0608238766   -1.4012796355   -2.4257593684
 C    0.0611188572    2.8026177269    0.0013893198
 C    0.0613600504   -1.3999847818    2.4262947781
 H    2.0898180710   -1.6455047693   -2.8463302019
 H   -0.7684780379   -0.3865734503   -4.0269057128
 H   -0.7652773074   -3.2924544318   -2.3491446484
 H    2.0826178726    3.2885993394    0.0034912532
 H   -0.7602709211    3.6788226143    1.6700677970
 H   -0.7666751621    3.6806381853   -1.6748486651
 H    2.0882394542   -1.6424846135    2.8480955870
 H   -0.7678793359   -3.2962234571    2.3477151364
 H   -0.7646657446   -0.3866898148    4.0255015484
units bohr
0 2
}

basis {

assign 6-31g_2dfp_

[ 6-31g_2dfp_ ]

spherical

!----------------------------------------------------------------------
! Basis Set Exchange
! Version v0.8.13
! https://www.basissetexchange.org
!----------------------------------------------------------------------
!   Basis set: 6-31G(2df,p)
! Description: 6-31G(2df,p)
!        Role: orbital
!     Version: 0  (Data from the original Basis Set Exchange)
!----------------------------------------------------------------------

****
H     0
S    3   1.00
     18.7311370              0.03349460
      2.8253937              0.23472695
      0.6401217              0.81375733
S    1   1.00
      0.1612778              1.00000000
P    1   1.00
      1.5000000              1.0000000
P    1   1.00
      0.3750000              1.0000000
****
B     0
S    6   1.00
   2068.8823000              0.0018663
    310.6495700              0.0142515
     70.6830330              0.0695516
     19.8610800              0.2325729
      6.2993048              0.4670787
      2.1270270              0.3634314
SP   3   1.00
      4.7279710             -0.1303938              0.0745976
      1.1903377             -0.1307889              0.3078467
      0.3594117              1.1309444              0.7434568
SP   1   1.00
      0.1267512              1.0000000              1.0000000
D    1   1.00
      0.8020000              1.0000000
D    1   1.00
      0.2005000              1.0000000
F    1   1.00
      0.5000000              1.0000000
****
C     0
S    6   1.00
   3047.5249000              0.0018347
    457.3695100              0.0140373
    103.9486900              0.0688426
     29.2101550              0.2321844
      9.2866630              0.4679413
      3.1639270              0.3623120
SP   3   1.00
      7.8682724             -0.1193324              0.0689991
      1.8812885             -0.1608542              0.3164240
      0.5442493              1.1434564              0.7443083
SP   1   1.00
      0.1687144              1.0000000              1.0000000
D    1   1.00
      1.2520000              1.0000000
D    1   1.00
      0.3130000              1.0000000
F    1   1.00
      0.8000000              1.0000000
****
N     0
S    6   1.00
   4173.5110000              0.0018348
    627.4579000              0.0139950
    142.9021000              0.0685870
     40.2343300              0.2322410
     12.8202100              0.4690700
      4.3904370              0.3604550
SP   3   1.00
     11.6263580             -0.1149610              0.0675800
      2.7162800             -0.1691180              0.3239070
      0.7722180              1.1458520              0.7408950
SP   1   1.00
      0.2120313              1.0000000              1.0000000
D    1   1.00
      1.8260000              1.0000000
D    1   1.00
      0.4565000              1.0000000
F    1   1.00
      1.0000000              1.0000000
****
O     0
S    6   1.00
   5484.6717000              0.0018311
    825.2349500              0.0139501
    188.0469600              0.0684451
     52.9645000              0.2327143
     16.8975700              0.4701930
      5.7996353              0.3585209
SP   3   1.00
     15.5396160             -0.1107775              0.0708743
      3.5999336             -0.1480263              0.3397528
      1.0137618              1.1307670              0.7271586
SP   1   1.00
      0.2700058              1.0000000              1.0000000
D    1   1.00
      2.5840000              1.0000000
D    1   1.00
      0.6460000              1.0000000
F    1   1.00
      1.4000000              1.0000000
****
F     0
S    6   1.00
   7001.7130900              0.0018196169
   1051.3660900              0.0139160796
    239.2856900              0.0684053245
     67.3974453              0.233185760
     21.5199573              0.471267439
      7.40310130             0.356618546
SP   3   1.00
     20.8479528             -0.108506975            0.0716287243
      4.80830834            -0.146451658            0.3459121030
      1.34406986             1.128688580            0.7224699570
SP   1   1.00
      0.358151393            1.0000000              1.0000000
D    1   1.00
      3.5000000              1.0000000
D    1   1.00
      0.8750000              1.0000000
F    1   1.00
      1.8500000              1.0000000
****
Al     0
S    6   1.00
  13983.1000000              0.00194267
   2098.7500000              0.0148599
    477.7050000              0.0728494
    134.3600000              0.2468300
     42.8709000              0.4872580
     14.5189000              0.3234960
SP   6   1.00
    239.6680000             -0.00292619             0.00460285
     57.4419000             -0.0374080              0.0331990
     18.2859000             -0.1144870              0.1362820
      6.5991400              0.1156350              0.3304760
      2.4904900              0.6125950              0.4491460
      0.9445400              0.3937990              0.2657040
SP   3   1.00
      1.2779000             -0.2276060             -0.0175130
      0.3975900              0.00144583             0.2445330
      0.1600950              1.0927900              0.8049340
SP   1   1.00
      0.0556577              1.0000000              1.0000000
D    1   1.00
      0.6500000              1.0000000
D    1   1.00
      0.1625000              1.0000000
F    1   1.00
      0.2500000              1.0000000
****
Si     0
S    6   1.00
  16115.9000000              0.00195948
   2425.5800000              0.01492880
    553.8670000              0.07284780
    156.3400000              0.24613000
     50.0683000              0.48591400
     17.0178000              0.32500200
SP   6   1.00
    292.7180000             -0.00278094             0.00443826
     69.8731000             -0.03571460             0.03266790
     22.3363000             -0.11498500             0.13472100
      8.1503900              0.09356340             0.32867800
      3.1345800              0.60301700             0.44964000
      1.2254300              0.41895900             0.26137200
SP   3   1.00
      1.7273800             -0.24463000            -0.01779510
      0.5729220              0.00431572             0.25353900
      0.2221920              1.09818000             0.80066900
SP   1   1.00
      0.0778369              1.00000000             1.00000000
D    1   1.00
      0.9000000              1.0000000
D    1   1.00
      0.2250000              1.0000000
F    1   1.00
      0.3200000              1.0000000
****
P     0
S    6   1.00
  19413.3000000              0.0018516
   2909.4200000              0.0142062
    661.3640000              0.0699995
    185.7590000              0.2400790
     59.1943000              0.4847620
     20.0310000              0.3352000
SP   6   1.00
    339.4780000             -0.00278217             0.00456462
     81.0101000             -0.0360499              0.03369360
     25.8780000             -0.1166310              0.13975500
      9.4522100              0.0968328              0.33936200
      3.6656600              0.6144180              0.45092100
      1.4674600              0.4037980              0.23858600
SP   3   1.00
      2.1562300             -0.2529230             -0.01776530
      0.7489970              0.0328517              0.27405800
      0.2831450              1.0812500              0.78542100
SP   1   1.00
      0.0998317              1.0000000              1.00000000
D    1   1.00
      1.1000000              1.0000000
D    1   1.00
      0.2750000              1.0000000
F    1   1.00
      0.4500000              1.0000000
****
S     0
S    6   1.00
  21917.1000000              0.0018690
   3301.4900000              0.0142300
    754.1460000              0.0696960
    212.7110000              0.2384870
     67.9896000              0.4833070
     23.0515000              0.3380740
SP   6   1.00
    423.7350000             -0.0023767              0.0040610
    100.7100000             -0.0316930              0.0306810
     32.1599000             -0.1133170              0.1304520
     11.8079000              0.0560900              0.3272050
      4.6311000              0.5922550              0.4528510
      1.8702500              0.4550060              0.2560420
SP   3   1.00
      2.6158400             -0.2503740             -0.0145110
      0.9221670              0.0669570              0.3102630
      0.3412870              1.0545100              0.7544830
SP   1   1.00
      0.1171670              1.0000000              1.0000000
D    1   1.00
      1.3000000              1.0000000
D    1   1.00
      0.3250000              1.0000000
F    1   1.00
      0.5500000              1.0000000
****
Cl     0
S    6   1.00
  25180.1000000              0.0018330
   3780.3500000              0.0140340
    860.4740000              0.0690970
    242.1450000              0.2374520
     77.3349000              0.4830340
     26.2470000              0.3398560
SP   6   1.00
    491.7650000             -0.0022974              0.0039894
    116.9840000             -0.0307140              0.0303180
     37.4153000             -0.1125280              0.1298800
     13.7834000              0.0450160              0.3279510
      5.4521500              0.5893530              0.4535270
      2.2258800              0.4652060              0.2521540
SP   3   1.00
      3.1864900             -0.2518300             -0.0142990
      1.1442700              0.0615890              0.3235720
      0.4203770              1.0601800              0.7435070
SP   1   1.00
      0.1426570              1.0000000              1.0000000
D    1   1.00
      1.5000000              1.0000000
D    1   1.00
      0.3750000              1.0000000
F    1   1.00
      0.7000000              1.0000000
****
}

set {
reference uhf
freeze_core true
e_convergence 10
d_convergence 10
dft_spherical_points 1202
dft_radial_points 99
}

e = energy('b3lyp')

print_out('Grab this energy {0}'.format(e))
--------------------------------------------------------------------------

    Molecular point group: c1

    Geometry (in Bohr), charge = 0, multiplicity = 2:

       Center              X                  Y                   Z               Mass
    ------------   -----------------  -----------------  -----------------  -----------------
         C           -0.323340169848     0.000137634769    -0.000020973096    12.000000000000
         C            0.060823256552    -1.401634775231    -2.426213518096    12.000000000000
         C            0.061118237152     2.802262587169     0.000935170104    12.000000000000
         C            0.061359430352    -1.400339921531     2.425840628404    12.000000000000
         H            2.089817450952    -1.645859909031    -2.846784351596     1.007825032230
         H           -0.768478657948    -0.386928590031    -4.027359862496     1.007825032230
         H           -0.765277927448    -3.292809571531    -2.349598798096     1.007825032230
         H            2.082617252552     3.288244199669     0.003037103504     1.007825032230
         H           -0.760271541148     3.678467474569     1.669613647304     1.007825032230
         H           -0.766675782148     3.680283045569    -1.675302814796     1.007825032230
         H            2.088238834152    -1.642839753231     2.847641437304     1.007825032230
         H           -0.767879955948    -3.296578596831     2.347260986704     1.007825032230
         H           -0.764666364648    -0.387044954531     4.025047398704     1.007825032230

  Charge       = 0
  Multiplicity = 2
  Basis Set: ANONYMOUSCF9C28C6
    Blend: 6-31G_2DFP_
  Basis Set: (ANONYMOUSCF9C28C6 AUX)
    Blend: DEF2-UNIVERSAL-JKFIT

    Orbital Energies [Eh]
    ---------------------

    Alpha Occupied:

       1A    -10.180342     2A    -10.167366     3A    -10.167334
       4A    -10.166344     5A     -0.797767     6A     -0.686518
       7A     -0.685860     8A     -0.530777     9A     -0.441127
      10A     -0.434877    11A     -0.434463    12A     -0.382824
      13A     -0.382375    14A     -0.363613    15A     -0.338161
      16A     -0.337834    17A     -0.168961

    Alpha Virtual:

      18A      0.076068    19A      0.134032    20A      0.134259
      21A      0.142404    22A      0.142863    23A      0.154878
      24A      0.178443    25A      0.179118    26A      0.203547
      27A      0.214807    28A      0.275868    29A      0.276104
      30A      0.398967    31A      0.399487    32A      0.403345
      33A      0.423908    34A      0.424285    35A      0.456592
      36A      0.495304    37A      0.495476    38A      0.512162
      39A      0.513978    40A      0.578685    41A      0.578944
      42A      0.591296    43A      0.591948    44A      0.602591
      45A      0.624722    46A      0.631697    47A      0.635773
      48A      0.636846    49A      0.663136    50A      0.663692
      51A      0.683489    52A      0.684249    53A      0.734994
      54A      0.824936    55A      0.825868    56A      0.853916
      57A      0.914812    58A      0.915240    59A      0.944129
      60A      0.944606    61A      0.961042    62A      0.961554
      63A      1.003457    64A      1.127686    65A      1.128537
      66A      1.142222    67A      1.163158    68A      1.163379
      69A      1.223322    70A      1.274180    71A      1.274795
      72A      1.279354    73A      1.323940    74A      1.324755
      75A      1.355976    76A      1.365655    77A      1.366452
      78A      1.392448    79A      1.403662    80A      1.404425
      81A      1.416338    82A      1.417876    83A      1.427906
      84A      1.491496    85A      1.499077    86A      1.542782
      87A      1.542898    88A      1.574109    89A      1.574797
      90A      1.669806    91A      1.738697    92A      1.740100
      93A      1.768334    94A      1.829635    95A      1.833211
      96A      1.971728    97A      2.017751    98A      2.018489
      99A      2.020123   100A      2.052158   101A      2.053197
     102A      2.738003   103A      2.738966   104A      2.790924
     105A      2.811429   106A      2.889638   107A      2.890219
     108A      2.894980   109A      2.929388   110A      2.929604
     111A      2.958974   112A      2.963870   113A      2.964936
     114A      3.034022   115A      3.070699   116A      3.071795
     117A      3.084472   118A      3.168339   119A      3.169222
     120A      3.180596   121A      3.285142   122A      3.285486
     123A      3.326779   124A      3.327549   125A      3.375620
     126A      3.489294   127A      3.491034   128A      3.514019
     129A      3.525342   130A      3.567924   131A      3.568812
     132A      3.575170   133A      3.665505   134A      3.667215
     135A      3.679639   136A      3.693592   137A      3.694720
     138A      3.776216   139A      3.777393   140A      3.789130
     141A      3.911496   142A      3.912934   143A      4.034428
     144A      4.110407   145A      4.112146   146A      4.146145
     147A      4.149897   148A      4.173423   149A      4.200904
     150A      4.202438   151A      4.205243   152A      4.211365
     153A      4.315000   154A      4.316927   155A      4.358947
     156A      4.423870   157A      4.424946   158A      4.443576
     159A      4.515740   160A      4.517907   161A      4.577835
     162A      4.578742   163A      4.617548   164A      4.709462
     165A      4.773620   166A      4.775601   167A      4.836881
     168A      4.962868   169A      5.002277   170A      5.003686
     171A      5.227474   172A      5.243123   173A      5.250787
     174A      5.352294   175A      5.358932   176A      5.479504

    Beta Occupied:

       1A    -10.168122     2A    -10.168099     3A    -10.167106
       4A    -10.166515     5A     -0.781093     6A     -0.684320
       7A     -0.683663     8A     -0.511749     9A     -0.431254
      10A     -0.430831    11A     -0.421822    12A     -0.376917
      13A     -0.376451    14A     -0.362596    15A     -0.333279
      16A     -0.332962

    Beta Virtual:

      17A     -0.025743    18A      0.077077    19A      0.134887
      20A      0.135187    21A      0.144265    22A      0.144742
      23A      0.163336    24A      0.182123    25A      0.182780
      26A      0.215036    27A      0.218930    28A      0.282216
      29A      0.282452    30A      0.400133    31A      0.400661
      32A      0.419790    33A      0.426718    34A      0.427098
      35A      0.468500    36A      0.497561    37A      0.497739
      38A      0.513897    39A      0.556323    40A      0.584229
      41A      0.584499    42A      0.597483    43A      0.598123
      44A      0.610011    45A      0.628100    46A      0.631886
      47A      0.639090    48A      0.640067    49A      0.666700
      50A      0.667256    51A      0.686166    52A      0.686842
      53A      0.757518    54A      0.830088    55A      0.831053
      56A      0.855270    57A      0.922803    58A      0.923192
      59A      0.945966    60A      0.953531    61A      0.966370
      62A      0.966841    63A      1.008697    64A      1.131704
      65A      1.132577    66A      1.155597    67A      1.168223
      68A      1.168461    69A      1.232295    70A      1.279761
      71A      1.280407    72A      1.285108    73A      1.328889
      74A      1.329784    75A      1.365385    76A      1.370955
      77A      1.371645    78A      1.393509    79A      1.407106
      80A      1.407911    81A      1.421414    82A      1.422901
      83A      1.428175    84A      1.492546    85A      1.509520
      86A      1.547137    87A      1.547359    88A      1.581986
      89A      1.582659    90A      1.674652    91A      1.744447
      92A      1.745882    93A      1.779107    94A      1.833515
      95A      1.837042    96A      1.972592    97A      2.024879
      98A      2.025955    99A      2.039683   100A      2.058869
     101A      2.059936   102A      2.746322   103A      2.747319
     104A      2.811841   105A      2.816060   106A      2.902367
     107A      2.902894   108A      2.924655   109A      2.931919
     110A      2.932037   111A      2.960051   112A      2.968373
     113A      2.969509   114A      3.041955   115A      3.080587
     116A      3.081538   117A      3.086481   118A      3.184078
     119A      3.184958   120A      3.188303   121A      3.289919
     122A      3.290308   123A      3.330550   124A      3.331385
     125A      3.383438   126A      3.492059   127A      3.493731
     128A      3.512384   129A      3.528387   130A      3.574931
     131A      3.581245   132A      3.582269   133A      3.670267
     134A      3.671958   135A      3.692970   136A      3.725284
     137A      3.726244   138A      3.780771   139A      3.781898
     140A      3.817670   141A      3.921266   142A      3.922797
     143A      4.045310   144A      4.117217   145A      4.118950
     146A      4.153525   147A      4.156986   148A      4.187444
     149A      4.207576   150A      4.208667   151A      4.212145
     152A      4.215891   153A      4.322557   154A      4.324250
     155A      4.362312   156A      4.432114   157A      4.433075
     158A      4.446515   159A      4.523535   160A      4.525693
     161A      4.588480   162A      4.589298   163A      4.624740
     164A      4.719805   165A      4.780597   166A      4.782531
     167A      4.839798   168A      4.967663   169A      5.006332
     170A      5.007709   171A      5.233113   172A      5.244923
     173A      5.252643   174A      5.358789   175A      5.365388
     176A      5.481826

    Final Occupation by Irrep:
              A
    DOCC [    16 ]
    SOCC [     1 ]

  @DF-UKS Final Energy:  -157.81304527260980

   => Energetics <=

    Nuclear Repulsion Energy =            125.3946961496880732
    One-Electron Energy =                -458.7489863696692964
    Two-Electron Energy =                 195.8483963842913056
    DFT Exchange-Correlation Energy =     -20.3071514369198667
    Empirical Dispersion Energy =           0.0000000000000000
    VV10 Nonlocal Energy =                  0.0000000000000000
    Total Energy =                       -157.8130452726097985

  UHF NO Occupations:
  HONO-2 :   15  A 1.9996009
  HONO-1 :   16  A 1.9989805
  HONO-0 :   17  A 1.0000000
  LUNO+0 :   18  A 0.0010195
  LUNO+1 :   19  A 0.0003991
  LUNO+2 :   20  A 0.0001976
  LUNO+3 :   21  A 0.0001975

Computation Completed

Properties will be evaluated at   0.000000,   0.000000,   0.000000 [a0]

Properties computed using the SCF density matrix

  Nuclear Dipole Moment: [e a0]
     X:     0.8272      Y:    -0.0025      Z:    -0.0032

  Electronic Dipole Moment: [e a0]
     X:    -0.7493      Y:     0.0050      Z:     0.0049

  Dipole Moment: [e a0]
     X:     0.0779      Y:     0.0024      Z:     0.0017     Total:     0.0780

  Dipole Moment: [D]
     X:     0.1980      Y:     0.0062      Z:     0.0044     Total:     0.1982

*** tstop() called on n023 at Fri Nov  5 14:33:40 2021
Module time:
	user time   =     672.26 seconds =      11.20 minutes
	system time =      12.96 seconds =       0.22 minutes
	total time  =        172 seconds =       2.87 minutes
Total time:
	user time   =     672.26 seconds =      11.20 minutes
	system time =      12.96 seconds =       0.22 minutes
	total time  =        172 seconds =       2.87 minutes
Grab this energy -157.8130452726098
    Psi4 stopped on: Friday, 05 November 2021 02:33PM
    Psi4 wall time for execution: 0:02:52.32

*** Psi4 exiting successfully. Buy a developer a beer!
