                               Psi4 1.4a2.dev629

  ==> Input File <==

--------------------------------------------------------------------------
import os
memory 14 GB

molecule {
 C   -0.3233312517    0.0049901560   -0.0000012853
 C    0.0614455824   -1.4027341422   -2.4207302414
 C    0.0604203522    2.8096669656    0.0009664036
 C    0.0614403079   -1.4044034553    2.4197569532
 H    2.0873294417   -1.6479075870   -2.8399427647
 H   -0.7601322759   -0.3979716619   -4.0222498364
 H   -0.7697923865   -3.2954869033   -2.3353623088
 H    2.0860223492    3.2972586746    0.0026042969
 H   -0.7643425654    3.6876609261    1.6749335157
 H   -0.7690645857    3.6886760976   -1.6784586723
 H    2.0873192104   -1.6524021247    2.8373260826
 H   -0.7650644296   -3.2919362887    2.3362524846
 H   -0.7648576256   -0.3954349704    4.0249053722
units bohr
0 2
}

basis {

assign 6-31g_2dfp_

[ 6-31g_2dfp_ ]

spherical

!----------------------------------------------------------------------
! Basis Set Exchange
! Version v0.8.13
! https://www.basissetexchange.org
!----------------------------------------------------------------------
!   Basis set: 6-31G(2df,p)
! Description: 6-31G(2df,p)
!        Role: orbital
!     Version: 0  (Data from the original Basis Set Exchange)
!----------------------------------------------------------------------

****
H     0
S    3   1.00
     18.7311370              0.03349460
      2.8253937              0.23472695
      0.6401217              0.81375733
S    1   1.00
      0.1612778              1.00000000
P    1   1.00
      1.5000000              1.0000000
P    1   1.00
      0.3750000              1.0000000
****
B     0
S    6   1.00
   2068.8823000              0.0018663
    310.6495700              0.0142515
     70.6830330              0.0695516
     19.8610800              0.2325729
      6.2993048              0.4670787
      2.1270270              0.3634314
SP   3   1.00
      4.7279710             -0.1303938              0.0745976
      1.1903377             -0.1307889              0.3078467
      0.3594117              1.1309444              0.7434568
SP   1   1.00
      0.1267512              1.0000000              1.0000000
D    1   1.00
      0.8020000              1.0000000
D    1   1.00
      0.2005000              1.0000000
F    1   1.00
      0.5000000              1.0000000
****
C     0
S    6   1.00
   3047.5249000              0.0018347
    457.3695100              0.0140373
    103.9486900              0.0688426
     29.2101550              0.2321844
      9.2866630              0.4679413
      3.1639270              0.3623120
SP   3   1.00
      7.8682724             -0.1193324              0.0689991
      1.8812885             -0.1608542              0.3164240
      0.5442493              1.1434564              0.7443083
SP   1   1.00
      0.1687144              1.0000000              1.0000000
D    1   1.00
      1.2520000              1.0000000
D    1   1.00
      0.3130000              1.0000000
F    1   1.00
      0.8000000              1.0000000
****
N     0
S    6   1.00
   4173.5110000              0.0018348
    627.4579000              0.0139950
    142.9021000              0.0685870
     40.2343300              0.2322410
     12.8202100              0.4690700
      4.3904370              0.3604550
SP   3   1.00
     11.6263580             -0.1149610              0.0675800
      2.7162800             -0.1691180              0.3239070
      0.7722180              1.1458520              0.7408950
SP   1   1.00
      0.2120313              1.0000000              1.0000000
D    1   1.00
      1.8260000              1.0000000
D    1   1.00
      0.4565000              1.0000000
F    1   1.00
      1.0000000              1.0000000
****
O     0
S    6   1.00
   5484.6717000              0.0018311
    825.2349500              0.0139501
    188.0469600              0.0684451
     52.9645000              0.2327143
     16.8975700              0.4701930
      5.7996353              0.3585209
SP   3   1.00
     15.5396160             -0.1107775              0.0708743
      3.5999336             -0.1480263              0.3397528
      1.0137618              1.1307670              0.7271586
SP   1   1.00
      0.2700058              1.0000000              1.0000000
D    1   1.00
      2.5840000              1.0000000
D    1   1.00
      0.6460000              1.0000000
F    1   1.00
      1.4000000              1.0000000
****
F     0
S    6   1.00
   7001.7130900              0.0018196169
   1051.3660900              0.0139160796
    239.2856900              0.0684053245
     67.3974453              0.233185760
     21.5199573              0.471267439
      7.40310130             0.356618546
SP   3   1.00
     20.8479528             -0.108506975            0.0716287243
      4.80830834            -0.146451658            0.3459121030
      1.34406986             1.128688580            0.7224699570
SP   1   1.00
      0.358151393            1.0000000              1.0000000
D    1   1.00
      3.5000000              1.0000000
D    1   1.00
      0.8750000              1.0000000
F    1   1.00
      1.8500000              1.0000000
****
Al     0
S    6   1.00
  13983.1000000              0.00194267
   2098.7500000              0.0148599
    477.7050000              0.0728494
    134.3600000              0.2468300
     42.8709000              0.4872580
     14.5189000              0.3234960
SP   6   1.00
    239.6680000             -0.00292619             0.00460285
     57.4419000             -0.0374080              0.0331990
     18.2859000             -0.1144870              0.1362820
      6.5991400              0.1156350              0.3304760
      2.4904900              0.6125950              0.4491460
      0.9445400              0.3937990              0.2657040
SP   3   1.00
      1.2779000             -0.2276060             -0.0175130
      0.3975900              0.00144583             0.2445330
      0.1600950              1.0927900              0.8049340
SP   1   1.00
      0.0556577              1.0000000              1.0000000
D    1   1.00
      0.6500000              1.0000000
D    1   1.00
      0.1625000              1.0000000
F    1   1.00
      0.2500000              1.0000000
****
Si     0
S    6   1.00
  16115.9000000              0.00195948
   2425.5800000              0.01492880
    553.8670000              0.07284780
    156.3400000              0.24613000
     50.0683000              0.48591400
     17.0178000              0.32500200
SP   6   1.00
    292.7180000             -0.00278094             0.00443826
     69.8731000             -0.03571460             0.03266790
     22.3363000             -0.11498500             0.13472100
      8.1503900              0.09356340             0.32867800
      3.1345800              0.60301700             0.44964000
      1.2254300              0.41895900             0.26137200
SP   3   1.00
      1.7273800             -0.24463000            -0.01779510
      0.5729220              0.00431572             0.25353900
      0.2221920              1.09818000             0.80066900
SP   1   1.00
      0.0778369              1.00000000             1.00000000
D    1   1.00
      0.9000000              1.0000000
D    1   1.00
      0.2250000              1.0000000
F    1   1.00
      0.3200000              1.0000000
****
P     0
S    6   1.00
  19413.3000000              0.0018516
   2909.4200000              0.0142062
    661.3640000              0.0699995
    185.7590000              0.2400790
     59.1943000              0.4847620
     20.0310000              0.3352000
SP   6   1.00
    339.4780000             -0.00278217             0.00456462
     81.0101000             -0.0360499              0.03369360
     25.8780000             -0.1166310              0.13975500
      9.4522100              0.0968328              0.33936200
      3.6656600              0.6144180              0.45092100
      1.4674600              0.4037980              0.23858600
SP   3   1.00
      2.1562300             -0.2529230             -0.01776530
      0.7489970              0.0328517              0.27405800
      0.2831450              1.0812500              0.78542100
SP   1   1.00
      0.0998317              1.0000000              1.00000000
D    1   1.00
      1.1000000              1.0000000
D    1   1.00
      0.2750000              1.0000000
F    1   1.00
      0.4500000              1.0000000
****
S     0
S    6   1.00
  21917.1000000              0.0018690
   3301.4900000              0.0142300
    754.1460000              0.0696960
    212.7110000              0.2384870
     67.9896000              0.4833070
     23.0515000              0.3380740
SP   6   1.00
    423.7350000             -0.0023767              0.0040610
    100.7100000             -0.0316930              0.0306810
     32.1599000             -0.1133170              0.1304520
     11.8079000              0.0560900              0.3272050
      4.6311000              0.5922550              0.4528510
      1.8702500              0.4550060              0.2560420
SP   3   1.00
      2.6158400             -0.2503740             -0.0145110
      0.9221670              0.0669570              0.3102630
      0.3412870              1.0545100              0.7544830
SP   1   1.00
      0.1171670              1.0000000              1.0000000
D    1   1.00
      1.3000000              1.0000000
D    1   1.00
      0.3250000              1.0000000
F    1   1.00
      0.5500000              1.0000000
****
Cl     0
S    6   1.00
  25180.1000000              0.0018330
   3780.3500000              0.0140340
    860.4740000              0.0690970
    242.1450000              0.2374520
     77.3349000              0.4830340
     26.2470000              0.3398560
SP   6   1.00
    491.7650000             -0.0022974              0.0039894
    116.9840000             -0.0307140              0.0303180
     37.4153000             -0.1125280              0.1298800
     13.7834000              0.0450160              0.3279510
      5.4521500              0.5893530              0.4535270
      2.2258800              0.4652060              0.2521540
SP   3   1.00
      3.1864900             -0.2518300             -0.0142990
      1.1442700              0.0615890              0.3235720
      0.4203770              1.0601800              0.7435070
SP   1   1.00
      0.1426570              1.0000000              1.0000000
D    1   1.00
      1.5000000              1.0000000
D    1   1.00
      0.3750000              1.0000000
F    1   1.00
      0.7000000              1.0000000
****
}

set {
reference uhf
freeze_core true
e_convergence 10
d_convergence 10
dft_spherical_points 1202
dft_radial_points 99
}

e = energy('b3lyp')

print_out('Grab this energy {0}'.format(e))
--------------------------------------------------------------------------

    Molecular point group: c1

    Geometry (in Bohr), charge = 0, multiplicity = 2:

       Center              X                  Y                   Z               Mass
    ------------   -----------------  -----------------  -----------------  -----------------
         C           -0.323334136119     0.003542270860     0.000000288283    12.000000000000
         C            0.061442697981    -1.404182027340    -2.420728667817    12.000000000000
         C            0.060417467781     2.808219080460     0.000967977183    12.000000000000
         C            0.061437423481    -1.405851340440     2.419758526783    12.000000000000
         H            2.087326557281    -1.649355472140    -2.839941191117     1.007825032230
         H           -0.760135160319    -0.399419547040    -4.022248262817     1.007825032230
         H           -0.769795270919    -3.296934788440    -2.335360735217     1.007825032230
         H            2.086019464781     3.295810789460     0.002605870483     1.007825032230
         H           -0.764345449819     3.686213040960     1.674935089283     1.007825032230
         H           -0.769067470119     3.687228212460    -1.678457098717     1.007825032230
         H            2.087316325981    -1.653850009840     2.837327656183     1.007825032230
         H           -0.765067314019    -3.293384173840     2.336254058183     1.007825032230
         H           -0.764860510019    -0.396882855540     4.024906945783     1.007825032230

  Charge       = 0
  Multiplicity = 2
  Basis Set: ANONYMOUSA3F64A72
    Blend: 6-31G_2DFP_
  Basis Set: (ANONYMOUSA3F64A72 AUX)
    Blend: DEF2-UNIVERSAL-JKFIT

    Orbital Energies [Eh]
    ---------------------

    Alpha Occupied:

       1A    -10.180342     2A    -10.167329     3A    -10.166874
       4A    -10.166842     5A     -0.797770     6A     -0.686408
       7A     -0.685965     8A     -0.530778     9A     -0.441126
      10A     -0.434937    11A     -0.434407    12A     -0.382745
      13A     -0.382452    14A     -0.363609    15A     -0.338274
      16A     -0.337720    17A     -0.168961

    Alpha Virtual:

      18A      0.076071    19A      0.133904    20A      0.134385
      21A      0.142496    22A      0.142773    23A      0.154879
      24A      0.178557    25A      0.179006    26A      0.203543
      27A      0.214809    28A      0.275817    29A      0.276155
      30A      0.399023    31A      0.399371    32A      0.403411
      33A      0.423967    34A      0.424237    35A      0.456593
      36A      0.494984    37A      0.495787    38A      0.512171
      39A      0.513988    40A      0.578545    41A      0.579063
      42A      0.591611    43A      0.591663    44A      0.602572
      45A      0.624724    46A      0.631821    47A      0.636023
      48A      0.636465    49A      0.663196    50A      0.663632
      51A      0.683620    52A      0.684111    53A      0.734993
      54A      0.824580    55A      0.826220    56A      0.853914
      57A      0.914779    58A      0.915278    59A      0.944021
      60A      0.944546    61A      0.961127    62A      0.961661
      63A      1.003474    64A      1.126945    65A      1.129300
      66A      1.142209    67A      1.162772    68A      1.163760
      69A      1.223330    70A      1.273978    71A      1.275020
      72A      1.279349    73A      1.324248    74A      1.324433
      75A      1.355985    76A      1.365338    77A      1.366711
      78A      1.392454    79A      1.403260    80A      1.404908
      81A      1.416642    82A      1.417614    83A      1.427929
      84A      1.491400    85A      1.499087    86A      1.542451
      87A      1.543206    88A      1.572600    89A      1.576413
      90A      1.669830    91A      1.738316    92A      1.740466
      93A      1.768342    94A      1.830899    95A      1.831920
      96A      1.971696    97A      2.017582    98A      2.018333
      99A      2.020489   100A      2.050137   101A      2.055254
     102A      2.738217   103A      2.738749   104A      2.790920
     105A      2.811442   106A      2.889857   107A      2.890040
     108A      2.894942   109A      2.929311   110A      2.929672
     111A      2.958989   112A      2.963480   113A      2.965318
     114A      3.033998   115A      3.070304   116A      3.072246
     117A      3.084402   118A      3.168003   119A      3.169604
     120A      3.180566   121A      3.284592   122A      3.286004
     123A      3.326222   124A      3.328135   125A      3.375662
     126A      3.489673   127A      3.490588   128A      3.514024
     129A      3.525310   130A      3.567315   131A      3.569302
     132A      3.575391   133A      3.666259   134A      3.666513
     135A      3.679675   136A      3.693661   137A      3.694545
     138A      3.776015   139A      3.777498   140A      3.789296
     141A      3.910808   142A      3.913658   143A      4.034466
     144A      4.109953   145A      4.112680   146A      4.146499
     147A      4.149806   148A      4.173104   149A      4.201407
     150A      4.202665   151A      4.204663   152A      4.211142
     153A      4.315929   154A      4.315960   155A      4.358992
     156A      4.424315   157A      4.424487   158A      4.443554
     159A      4.515989   160A      4.517727   161A      4.577198
     162A      4.579341   163A      4.617536   164A      4.709442
     165A      4.773331   166A      4.775889   167A      4.836940
     168A      4.962874   169A      5.001992   170A      5.003939
     171A      5.228011   172A      5.246583   173A      5.246914
     174A      5.354885   175A      5.356290   176A      5.479363

    Beta Occupied:

       1A    -10.168085     2A    -10.167628     3A    -10.167612
       4A    -10.166518     5A     -0.781095     6A     -0.684215
       7A     -0.683764     8A     -0.511750     9A     -0.431317
      10A     -0.430769    11A     -0.421823    12A     -0.376840
      13A     -0.376527    14A     -0.362593    15A     -0.333401
      16A     -0.332840

    Beta Virtual:

      17A     -0.025743    18A      0.077080    19A      0.134784
      20A      0.135286    21A      0.144373    22A      0.144638
      23A      0.163339    24A      0.182218    25A      0.182686
      26A      0.215032    27A      0.218932    28A      0.282154
      29A      0.282515    30A      0.400271    31A      0.400517
      32A      0.419799    33A      0.426763    34A      0.427063
      35A      0.468504    36A      0.497245    37A      0.498050
      38A      0.513908    39A      0.556327    40A      0.584125
      41A      0.584585    42A      0.597776    43A      0.597855
      44A      0.609991    45A      0.628075    46A      0.632011
      47A      0.639289    48A      0.639768    49A      0.666733
      50A      0.667221    51A      0.686203    52A      0.686799
      53A      0.757516    54A      0.829738    55A      0.831398
      56A      0.855267    57A      0.922735    58A      0.923262
      59A      0.945905    60A      0.953438    61A      0.966359
      62A      0.967036    63A      1.008711    64A      1.130984
      65A      1.133320    66A      1.155581    67A      1.167818
      68A      1.168866    69A      1.232300    70A      1.279573
      71A      1.280620    72A      1.285102    73A      1.329221
      74A      1.329437    75A      1.365400    76A      1.370478
      77A      1.372050    78A      1.393518    79A      1.406762
      80A      1.408346    81A      1.421689    82A      1.422658
      83A      1.428202    84A      1.492464    85A      1.509517
      86A      1.546751    87A      1.547720    88A      1.580625
      89A      1.584132    90A      1.674676    91A      1.744083
      92A      1.746223    93A      1.779121    94A      1.834737
      95A      1.835794    96A      1.972572    97A      2.023939
      98A      2.026952    99A      2.039665   100A      2.056953
     101A      2.061876   102A      2.746508   103A      2.747130
     104A      2.811850   105A      2.816059   106A      2.902578
     107A      2.902695   108A      2.924647   109A      2.931887
     110A      2.932063   111A      2.960056   112A      2.968055
     113A      2.969826   114A      3.041929   115A      3.080106
     116A      3.082107   117A      3.086392   118A      3.183862
     119A      3.185230   120A      3.188245   121A      3.289457
     122A      3.290741   123A      3.330020   124A      3.331949
     125A      3.383478   126A      3.492412   127A      3.493302
     128A      3.512403   129A      3.528360   130A      3.574802
     131A      3.580648   132A      3.583093   133A      3.670982
     134A      3.671281   135A      3.692968   136A      3.725342
     137A      3.726123   138A      3.780519   139A      3.782129
     140A      3.817758   141A      3.920624   142A      3.923476
     143A      4.045353   144A      4.116769   145A      4.119481
     146A      4.153774   147A      4.156969   148A      4.187119
     149A      4.207337   150A      4.210477   151A      4.210698
     152A      4.215722   153A      4.323353   154A      4.323420
     155A      4.362355   156A      4.432556   157A      4.432631
     158A      4.446485   159A      4.523877   160A      4.525412
     161A      4.587720   162A      4.590023   163A      4.624728
     164A      4.719787   165A      4.780248   166A      4.782876
     167A      4.839860   168A      4.967668   169A      5.006033
     170A      5.007977   171A      5.233724   172A      5.248367
     173A      5.248711   174A      5.361342   175A      5.362784
     176A      5.481684

    Final Occupation by Irrep:
              A
    DOCC [    16 ]
    SOCC [     1 ]

  @DF-UKS Final Energy:  -157.81305251609652

   => Energetics <=

    Nuclear Repulsion Energy =            125.3948868051057133
    One-Electron Energy =                -458.7493910880360772
    Two-Electron Energy =                 195.8486008490245638
    DFT Exchange-Correlation Energy =     -20.3071490821907439
    Empirical Dispersion Energy =           0.0000000000000000
    VV10 Nonlocal Energy =                  0.0000000000000000
    Total Energy =                       -157.8130525160965192

  UHF NO Occupations:
  HONO-2 :   15  A 1.9996009
  HONO-1 :   16  A 1.9989804
  HONO-0 :   17  A 1.0000000
  LUNO+0 :   18  A 0.0010196
  LUNO+1 :   19  A 0.0003991
  LUNO+2 :   20  A 0.0001979
  LUNO+3 :   21  A 0.0001972

Computation Completed

Properties will be evaluated at   0.000000,   0.000000,   0.000000 [a0]

Properties computed using the SCF density matrix

  Nuclear Dipole Moment: [e a0]
     X:     0.8272      Y:    -0.0102      Z:     0.0000

  Electronic Dipole Moment: [e a0]
     X:    -0.7493      Y:     0.0110      Z:    -0.0000

  Dipole Moment: [e a0]
     X:     0.0779      Y:     0.0008      Z:    -0.0000     Total:     0.0779

  Dipole Moment: [D]
     X:     0.1980      Y:     0.0019      Z:    -0.0000     Total:     0.1981

*** tstop() called on n071 at Fri Nov  5 14:47:03 2021
Module time:
	user time   =     570.87 seconds =       9.51 minutes
	system time =      13.37 seconds =       0.22 minutes
	total time  =        147 seconds =       2.45 minutes
Total time:
	user time   =     570.87 seconds =       9.51 minutes
	system time =      13.37 seconds =       0.22 minutes
	total time  =        147 seconds =       2.45 minutes
Grab this energy -157.81305251609652
    Psi4 stopped on: Friday, 05 November 2021 02:47PM
    Psi4 wall time for execution: 0:02:27.16

*** Psi4 exiting successfully. Buy a developer a beer!
