                               Psi4 1.4a2.dev629

  ==> Input File <==

--------------------------------------------------------------------------
import os
memory 14 GB

molecule {
 C   -0.3233403543   -0.0000044803   -0.0022541966
 C    0.0592322821   -1.4003487258   -2.4258487055
 C    0.0610211990    2.8017564756   -0.0003867408
 C    0.0630509937   -1.4014092561    2.4269125603
 H    2.0873055081   -1.6402291825   -2.8450798283
 H   -0.7650291131   -0.3904097742   -4.0276695726
 H   -0.7639566341   -3.2905603805   -2.3468325744
 H    2.0867948222    3.2881052230   -0.0043299332
 H   -0.7644064942    3.6746739580    1.6771216468
 H   -0.7668803455    3.6858311057   -1.6758626918
 H    2.0865649720   -1.6479584709    2.8498071060
 H   -0.7671830054   -3.2934345298    2.3511419877
 H   -0.7657817073   -0.3860362757    4.0232809422
units bohr
0 2
}

basis {

assign 6-31g_2dfp_

[ 6-31g_2dfp_ ]

spherical

!----------------------------------------------------------------------
! Basis Set Exchange
! Version v0.8.13
! https://www.basissetexchange.org
!----------------------------------------------------------------------
!   Basis set: 6-31G(2df,p)
! Description: 6-31G(2df,p)
!        Role: orbital
!     Version: 0  (Data from the original Basis Set Exchange)
!----------------------------------------------------------------------

****
H     0
S    3   1.00
     18.7311370              0.03349460
      2.8253937              0.23472695
      0.6401217              0.81375733
S    1   1.00
      0.1612778              1.00000000
P    1   1.00
      1.5000000              1.0000000
P    1   1.00
      0.3750000              1.0000000
****
B     0
S    6   1.00
   2068.8823000              0.0018663
    310.6495700              0.0142515
     70.6830330              0.0695516
     19.8610800              0.2325729
      6.2993048              0.4670787
      2.1270270              0.3634314
SP   3   1.00
      4.7279710             -0.1303938              0.0745976
      1.1903377             -0.1307889              0.3078467
      0.3594117              1.1309444              0.7434568
SP   1   1.00
      0.1267512              1.0000000              1.0000000
D    1   1.00
      0.8020000              1.0000000
D    1   1.00
      0.2005000              1.0000000
F    1   1.00
      0.5000000              1.0000000
****
C     0
S    6   1.00
   3047.5249000              0.0018347
    457.3695100              0.0140373
    103.9486900              0.0688426
     29.2101550              0.2321844
      9.2866630              0.4679413
      3.1639270              0.3623120
SP   3   1.00
      7.8682724             -0.1193324              0.0689991
      1.8812885             -0.1608542              0.3164240
      0.5442493              1.1434564              0.7443083
SP   1   1.00
      0.1687144              1.0000000              1.0000000
D    1   1.00
      1.2520000              1.0000000
D    1   1.00
      0.3130000              1.0000000
F    1   1.00
      0.8000000              1.0000000
****
N     0
S    6   1.00
   4173.5110000              0.0018348
    627.4579000              0.0139950
    142.9021000              0.0685870
     40.2343300              0.2322410
     12.8202100              0.4690700
      4.3904370              0.3604550
SP   3   1.00
     11.6263580             -0.1149610              0.0675800
      2.7162800             -0.1691180              0.3239070
      0.7722180              1.1458520              0.7408950
SP   1   1.00
      0.2120313              1.0000000              1.0000000
D    1   1.00
      1.8260000              1.0000000
D    1   1.00
      0.4565000              1.0000000
F    1   1.00
      1.0000000              1.0000000
****
O     0
S    6   1.00
   5484.6717000              0.0018311
    825.2349500              0.0139501
    188.0469600              0.0684451
     52.9645000              0.2327143
     16.8975700              0.4701930
      5.7996353              0.3585209
SP   3   1.00
     15.5396160             -0.1107775              0.0708743
      3.5999336             -0.1480263              0.3397528
      1.0137618              1.1307670              0.7271586
SP   1   1.00
      0.2700058              1.0000000              1.0000000
D    1   1.00
      2.5840000              1.0000000
D    1   1.00
      0.6460000              1.0000000
F    1   1.00
      1.4000000              1.0000000
****
F     0
S    6   1.00
   7001.7130900              0.0018196169
   1051.3660900              0.0139160796
    239.2856900              0.0684053245
     67.3974453              0.233185760
     21.5199573              0.471267439
      7.40310130             0.356618546
SP   3   1.00
     20.8479528             -0.108506975            0.0716287243
      4.80830834            -0.146451658            0.3459121030
      1.34406986             1.128688580            0.7224699570
SP   1   1.00
      0.358151393            1.0000000              1.0000000
D    1   1.00
      3.5000000              1.0000000
D    1   1.00
      0.8750000              1.0000000
F    1   1.00
      1.8500000              1.0000000
****
Al     0
S    6   1.00
  13983.1000000              0.00194267
   2098.7500000              0.0148599
    477.7050000              0.0728494
    134.3600000              0.2468300
     42.8709000              0.4872580
     14.5189000              0.3234960
SP   6   1.00
    239.6680000             -0.00292619             0.00460285
     57.4419000             -0.0374080              0.0331990
     18.2859000             -0.1144870              0.1362820
      6.5991400              0.1156350              0.3304760
      2.4904900              0.6125950              0.4491460
      0.9445400              0.3937990              0.2657040
SP   3   1.00
      1.2779000             -0.2276060             -0.0175130
      0.3975900              0.00144583             0.2445330
      0.1600950              1.0927900              0.8049340
SP   1   1.00
      0.0556577              1.0000000              1.0000000
D    1   1.00
      0.6500000              1.0000000
D    1   1.00
      0.1625000              1.0000000
F    1   1.00
      0.2500000              1.0000000
****
Si     0
S    6   1.00
  16115.9000000              0.00195948
   2425.5800000              0.01492880
    553.8670000              0.07284780
    156.3400000              0.24613000
     50.0683000              0.48591400
     17.0178000              0.32500200
SP   6   1.00
    292.7180000             -0.00278094             0.00443826
     69.8731000             -0.03571460             0.03266790
     22.3363000             -0.11498500             0.13472100
      8.1503900              0.09356340             0.32867800
      3.1345800              0.60301700             0.44964000
      1.2254300              0.41895900             0.26137200
SP   3   1.00
      1.7273800             -0.24463000            -0.01779510
      0.5729220              0.00431572             0.25353900
      0.2221920              1.09818000             0.80066900
SP   1   1.00
      0.0778369              1.00000000             1.00000000
D    1   1.00
      0.9000000              1.0000000
D    1   1.00
      0.2250000              1.0000000
F    1   1.00
      0.3200000              1.0000000
****
P     0
S    6   1.00
  19413.3000000              0.0018516
   2909.4200000              0.0142062
    661.3640000              0.0699995
    185.7590000              0.2400790
     59.1943000              0.4847620
     20.0310000              0.3352000
SP   6   1.00
    339.4780000             -0.00278217             0.00456462
     81.0101000             -0.0360499              0.03369360
     25.8780000             -0.1166310              0.13975500
      9.4522100              0.0968328              0.33936200
      3.6656600              0.6144180              0.45092100
      1.4674600              0.4037980              0.23858600
SP   3   1.00
      2.1562300             -0.2529230             -0.01776530
      0.7489970              0.0328517              0.27405800
      0.2831450              1.0812500              0.78542100
SP   1   1.00
      0.0998317              1.0000000              1.00000000
D    1   1.00
      1.1000000              1.0000000
D    1   1.00
      0.2750000              1.0000000
F    1   1.00
      0.4500000              1.0000000
****
S     0
S    6   1.00
  21917.1000000              0.0018690
   3301.4900000              0.0142300
    754.1460000              0.0696960
    212.7110000              0.2384870
     67.9896000              0.4833070
     23.0515000              0.3380740
SP   6   1.00
    423.7350000             -0.0023767              0.0040610
    100.7100000             -0.0316930              0.0306810
     32.1599000             -0.1133170              0.1304520
     11.8079000              0.0560900              0.3272050
      4.6311000              0.5922550              0.4528510
      1.8702500              0.4550060              0.2560420
SP   3   1.00
      2.6158400             -0.2503740             -0.0145110
      0.9221670              0.0669570              0.3102630
      0.3412870              1.0545100              0.7544830
SP   1   1.00
      0.1171670              1.0000000              1.0000000
D    1   1.00
      1.3000000              1.0000000
D    1   1.00
      0.3250000              1.0000000
F    1   1.00
      0.5500000              1.0000000
****
Cl     0
S    6   1.00
  25180.1000000              0.0018330
   3780.3500000              0.0140340
    860.4740000              0.0690970
    242.1450000              0.2374520
     77.3349000              0.4830340
     26.2470000              0.3398560
SP   6   1.00
    491.7650000             -0.0022974              0.0039894
    116.9840000             -0.0307140              0.0303180
     37.4153000             -0.1125280              0.1298800
     13.7834000              0.0450160              0.3279510
      5.4521500              0.5893530              0.4535270
      2.2258800              0.4652060              0.2521540
SP   3   1.00
      3.1864900             -0.2518300             -0.0142990
      1.1442700              0.0615890              0.3235720
      0.4203770              1.0601800              0.7435070
SP   1   1.00
      0.1426570              1.0000000              1.0000000
D    1   1.00
      1.5000000              1.0000000
D    1   1.00
      0.3750000              1.0000000
F    1   1.00
      0.7000000              1.0000000
****
}

set {
reference uhf
freeze_core true
e_convergence 10
d_convergence 10
dft_spherical_points 1202
dft_radial_points 99
}

e = energy('b3lyp')

print_out('Grab this energy {0}'.format(e))
--------------------------------------------------------------------------

    Molecular point group: c1

    Geometry (in Bohr), charge = 0, multiplicity = 2:

       Center              X                  Y                   Z               Mass
    ------------   -----------------  -----------------  -----------------  -----------------
         C           -0.323341145017    -0.000002897878    -0.001950439129    12.000000000000
         C            0.059231491383    -1.400347143378    -2.425544948029    12.000000000000
         C            0.061020408283     2.801758058022    -0.000082983329    12.000000000000
         C            0.063050202983    -1.401407673678     2.427216317771    12.000000000000
         H            2.087304717383    -1.640227600078    -2.844776070829     1.007825032230
         H           -0.765029903817    -0.390408191778    -4.027365815129     1.007825032230
         H           -0.763957424817    -3.290558798078    -2.346528816929     1.007825032230
         H            2.086794031483     3.288106805422    -0.004026175729     1.007825032230
         H           -0.764407284917     3.674675540422     1.677425404271     1.007825032230
         H           -0.766881136217     3.685832688122    -1.675558934329     1.007825032230
         H            2.086564181283    -1.647956888478     2.850110863471     1.007825032230
         H           -0.767183796117    -3.293432947378     2.351445745171     1.007825032230
         H           -0.765782498017    -0.386034693278     4.023584699671     1.007825032230

  Charge       = 0
  Multiplicity = 2
  Basis Set: ANONYMOUSF654D931
    Blend: 6-31G_2DFP_
  Basis Set: (ANONYMOUSF654D931 AUX)
    Blend: DEF2-UNIVERSAL-JKFIT

    Orbital Energies [Eh]
    ---------------------

    Alpha Occupied:

       1A    -10.180342     2A    -10.167147     3A    -10.167016
       4A    -10.166883     5A     -0.797767     6A     -0.686342
       7A     -0.686032     8A     -0.530776     9A     -0.441136
      10A     -0.434698    11A     -0.434635    12A     -0.382716
      13A     -0.382485    14A     -0.363608    15A     -0.338149
      16A     -0.337848    17A     -0.168960

    Alpha Virtual:

      18A      0.076072    19A      0.134154    20A      0.134157
      21A      0.142503    22A      0.142750    23A      0.154880
      24A      0.178625    25A      0.178932    26A      0.203547
      27A      0.214803    28A      0.275662    29A      0.276309
      30A      0.399036    31A      0.399423    32A      0.403343
      33A      0.424090    34A      0.424104    35A      0.456593
      36A      0.495359    37A      0.495420    38A      0.512160
      39A      0.513979    40A      0.578614    41A      0.579018
      42A      0.591461    43A      0.591809    44A      0.602568
      45A      0.624752    46A      0.631772    47A      0.636189
      48A      0.636325    49A      0.663211    50A      0.663615
      51A      0.683676    52A      0.684031    53A      0.734995
      54A      0.825205    55A      0.825609    56A      0.853915
      57A      0.914902    58A      0.915137    59A      0.944123
      60A      0.944614    61A      0.960532    62A      0.962064
      63A      1.003459    64A      1.127773    65A      1.128411
      66A      1.142220    67A      1.163090    68A      1.163492
      69A      1.223314    70A      1.274473    71A      1.274500
      72A      1.279356    73A      1.324100    74A      1.324615
      75A      1.355988    76A      1.365587    77A      1.366522
      78A      1.392459    79A      1.403855    80A      1.404242
      81A      1.417016    82A      1.417222    83A      1.427908
      84A      1.491495    85A      1.499078    86A      1.542512
      87A      1.543144    88A      1.574299    89A      1.574592
      90A      1.669831    91A      1.739384    92A      1.739448
      93A      1.768325    94A      1.830708    95A      1.832085
      96A      1.971734    97A      2.018130    98A      2.018532
      99A      2.019734   100A      2.052209   101A      2.053075
     102A      2.738167   103A      2.738802   104A      2.790925
     105A      2.811413   106A      2.889391   107A      2.890463
     108A      2.895013   109A      2.929448   110A      2.929552
     111A      2.958996   112A      2.964117   113A      2.964629
     114A      3.034011   115A      3.071270   116A      3.071297
     117A      3.084347   118A      3.168704   119A      3.168868
     120A      3.180587   121A      3.285302   122A      3.285323
     123A      3.326988   124A      3.327336   125A      3.375625
     126A      3.489676   127A      3.490612   128A      3.514033
     129A      3.525300   130A      3.568131   131A      3.568545
     132A      3.575266   133A      3.665895   134A      3.666824
     135A      3.679645   136A      3.693704   137A      3.694595
     138A      3.775516   139A      3.778086   140A      3.789155
     141A      3.911884   142A      3.912579   143A      4.034447
     144A      4.110000   145A      4.112699   146A      4.147175
     147A      4.149047   148A      4.173296   149A      4.202547
     150A      4.202981   151A      4.203247   152A      4.210853
     153A      4.314747   154A      4.317180   155A      4.358993
     156A      4.424334   157A      4.424598   158A      4.443422
     159A      4.516200   160A      4.517478   161A      4.577729
     162A      4.578811   163A      4.617522   164A      4.709442
     165A      4.773000   166A      4.776158   167A      4.836989
     168A      4.962861   169A      5.002844   170A      5.003043
     171A      5.228037   172A      5.246328   173A      5.247308
     174A      5.354519   175A      5.356491   176A      5.479363

    Beta Occupied:

       1A    -10.167903     2A    -10.167775     3A    -10.167646
       4A    -10.166519     5A     -0.781092     6A     -0.684137
       7A     -0.683842     8A     -0.511747     9A     -0.431093
      10A     -0.431002    11A     -0.421812    12A     -0.376814
      13A     -0.376557    14A     -0.362591    15A     -0.333269
      16A     -0.332974

    Beta Virtual:

      17A     -0.025742    18A      0.077081    19A      0.135044
      20A      0.135046    21A      0.144377    22A      0.144618
      23A      0.163339    24A      0.182313    25A      0.182587
      26A      0.215033    27A      0.218929    28A      0.282023
      29A      0.282644    30A      0.400205    31A      0.400593
      32A      0.419788    33A      0.426903    34A      0.426914
      35A      0.468500    36A      0.497618    37A      0.497682
      38A      0.513895    39A      0.556323    40A      0.584158
      41A      0.584574    42A      0.597660    43A      0.597970
      44A      0.609991    45A      0.628130    46A      0.631929
      47A      0.639492    48A      0.639591    49A      0.666789
      50A      0.667165    51A      0.686287    52A      0.686691
      53A      0.757518    54A      0.830349    55A      0.830801
      56A      0.855269    57A      0.922906    58A      0.923074
      59A      0.945961    60A      0.953539    61A      0.965888
      62A      0.967324    63A      1.008699    64A      1.131690
      65A      1.132553    66A      1.155599    67A      1.168291
      68A      1.168434    69A      1.232285    70A      1.280076
      71A      1.280092    72A      1.285109    73A      1.329095
      74A      1.329597    75A      1.365405    76A      1.370858
      77A      1.371735    78A      1.393517    79A      1.407309
      80A      1.407721    81A      1.422055    82A      1.422282
      83A      1.428177    84A      1.492543    85A      1.509521
      86A      1.546989    87A      1.547483    88A      1.582224
      89A      1.582413    90A      1.674678    91A      1.745162
      92A      1.745196    93A      1.779101    94A      1.834567
      95A      1.835938    96A      1.972594    97A      2.024750
      98A      2.026142    99A      2.039688   100A      2.058868
     101A      2.059841   102A      2.746524   103A      2.747117
     104A      2.811827   105A      2.816060   106A      2.902170
     107A      2.903110   108A      2.924671   109A      2.931945
     110A      2.932016   111A      2.960058   112A      2.968684
     113A      2.969152   114A      3.041946   115A      3.081181
     116A      3.081199   117A      3.086170   118A      3.184403
     119A      3.184675   120A      3.188265   121A      3.290066
     122A      3.290155   123A      3.330824   124A      3.331109
     125A      3.383444   126A      3.492422   127A      3.493320
     128A      3.512403   129A      3.528354   130A      3.574883
     131A      3.581485   132A      3.582100   133A      3.670953
     134A      3.671304   135A      3.692935   136A      3.725728
     137A      3.725801   138A      3.780100   139A      3.782554
     140A      3.817702   141A      3.921702   142A      3.922394
     143A      4.045333   144A      4.116982   145A      4.119352
     146A      4.154318   147A      4.156329   148A      4.187347
     149A      4.208879   150A      4.209114   151A      4.210626
     152A      4.215327   153A      4.322139   154A      4.324667
     155A      4.362356   156A      4.432588   157A      4.432780
     158A      4.446303   159A      4.523983   160A      4.525273
     161A      4.588345   162A      4.589393   163A      4.624720
     164A      4.719786   165A      4.780014   166A      4.783050
     167A      4.839910   168A      4.967655   169A      5.006910
     170A      5.007056   171A      5.233752   172A      5.248105
     173A      5.249101   174A      5.360979   175A      5.362991
     176A      5.481685

    Final Occupation by Irrep:
              A
    DOCC [    16 ]
    SOCC [     1 ]

  @DF-UKS Final Energy:  -157.81306612919943

   => Energetics <=

    Nuclear Repulsion Energy =            125.3946421149781685
    One-Electron Energy =                -458.7489382606037225
    Two-Electron Energy =                 195.8483737417837460
    DFT Exchange-Correlation Energy =     -20.3071437253576370
    Empirical Dispersion Energy =           0.0000000000000000
    VV10 Nonlocal Energy =                  0.0000000000000000
    Total Energy =                       -157.8130661291994272

  UHF NO Occupations:
  HONO-2 :   15  A 1.9996009
  HONO-1 :   16  A 1.9989804
  HONO-0 :   17  A 1.0000000
  LUNO+0 :   18  A 0.0010196
  LUNO+1 :   19  A 0.0003991
  LUNO+2 :   20  A 0.0001980
  LUNO+3 :   21  A 0.0001971

Computation Completed

Properties will be evaluated at   0.000000,   0.000000,   0.000000 [a0]

Properties computed using the SCF density matrix

  Nuclear Dipole Moment: [e a0]
     X:     0.8272      Y:    -0.0000      Z:     0.0021

  Electronic Dipole Moment: [e a0]
     X:    -0.7493      Y:     0.0000      Z:    -0.0023

  Dipole Moment: [e a0]
     X:     0.0779      Y:    -0.0000      Z:    -0.0001     Total:     0.0779

  Dipole Moment: [D]
     X:     0.1980      Y:    -0.0000      Z:    -0.0004     Total:     0.1980

*** tstop() called on n089 at Fri Nov  5 12:23:26 2021
Module time:
	user time   =     506.64 seconds =       8.44 minutes
	system time =       4.62 seconds =       0.08 minutes
	total time  =        129 seconds =       2.15 minutes
Total time:
	user time   =     506.64 seconds =       8.44 minutes
	system time =       4.62 seconds =       0.08 minutes
	total time  =        129 seconds =       2.15 minutes
Grab this energy -157.81306612919943
    Psi4 stopped on: Friday, 05 November 2021 12:23PM
    Psi4 wall time for execution: 0:02:08.56

*** Psi4 exiting successfully. Buy a developer a beer!
