                               Psi4 1.4a2.dev629

  ==> Input File <==

--------------------------------------------------------------------------
import os
memory 14 GB

molecule {
 C   -0.3247918736   -0.0000020902   -0.0000000000
 C    0.0619964312   -1.4008296230   -2.4262976855
 C    0.0618766402    2.8016636000    0.0000000000
 C    0.0619964312   -1.4008296230    2.4262976855
 H    2.0868884921   -1.6441185053   -2.8474769029
 H   -0.7655672843   -0.3882684391   -4.0254509364
 H   -0.7657304998   -3.2919495604   -2.3490132219
 H    2.0867495700    3.2881445019    0.0000000000
 H   -0.7658082458    3.6802509652    1.6764440420
 H   -0.7658082458    3.6802509652   -1.6764440420
 H    2.0868884921   -1.6441185053    2.8474769029
 H   -0.7657304998   -3.2919495604    2.3490132219
 H   -0.7655672843   -0.3882684391    4.0254509364
units bohr
0 2
}

basis {

assign 6-31g_2dfp_

[ 6-31g_2dfp_ ]

spherical

!----------------------------------------------------------------------
! Basis Set Exchange
! Version v0.8.13
! https://www.basissetexchange.org
!----------------------------------------------------------------------
!   Basis set: 6-31G(2df,p)
! Description: 6-31G(2df,p)
!        Role: orbital
!     Version: 0  (Data from the original Basis Set Exchange)
!----------------------------------------------------------------------

****
H     0
S    3   1.00
     18.7311370              0.03349460
      2.8253937              0.23472695
      0.6401217              0.81375733
S    1   1.00
      0.1612778              1.00000000
P    1   1.00
      1.5000000              1.0000000
P    1   1.00
      0.3750000              1.0000000
****
B     0
S    6   1.00
   2068.8823000              0.0018663
    310.6495700              0.0142515
     70.6830330              0.0695516
     19.8610800              0.2325729
      6.2993048              0.4670787
      2.1270270              0.3634314
SP   3   1.00
      4.7279710             -0.1303938              0.0745976
      1.1903377             -0.1307889              0.3078467
      0.3594117              1.1309444              0.7434568
SP   1   1.00
      0.1267512              1.0000000              1.0000000
D    1   1.00
      0.8020000              1.0000000
D    1   1.00
      0.2005000              1.0000000
F    1   1.00
      0.5000000              1.0000000
****
C     0
S    6   1.00
   3047.5249000              0.0018347
    457.3695100              0.0140373
    103.9486900              0.0688426
     29.2101550              0.2321844
      9.2866630              0.4679413
      3.1639270              0.3623120
SP   3   1.00
      7.8682724             -0.1193324              0.0689991
      1.8812885             -0.1608542              0.3164240
      0.5442493              1.1434564              0.7443083
SP   1   1.00
      0.1687144              1.0000000              1.0000000
D    1   1.00
      1.2520000              1.0000000
D    1   1.00
      0.3130000              1.0000000
F    1   1.00
      0.8000000              1.0000000
****
N     0
S    6   1.00
   4173.5110000              0.0018348
    627.4579000              0.0139950
    142.9021000              0.0685870
     40.2343300              0.2322410
     12.8202100              0.4690700
      4.3904370              0.3604550
SP   3   1.00
     11.6263580             -0.1149610              0.0675800
      2.7162800             -0.1691180              0.3239070
      0.7722180              1.1458520              0.7408950
SP   1   1.00
      0.2120313              1.0000000              1.0000000
D    1   1.00
      1.8260000              1.0000000
D    1   1.00
      0.4565000              1.0000000
F    1   1.00
      1.0000000              1.0000000
****
O     0
S    6   1.00
   5484.6717000              0.0018311
    825.2349500              0.0139501
    188.0469600              0.0684451
     52.9645000              0.2327143
     16.8975700              0.4701930
      5.7996353              0.3585209
SP   3   1.00
     15.5396160             -0.1107775              0.0708743
      3.5999336             -0.1480263              0.3397528
      1.0137618              1.1307670              0.7271586
SP   1   1.00
      0.2700058              1.0000000              1.0000000
D    1   1.00
      2.5840000              1.0000000
D    1   1.00
      0.6460000              1.0000000
F    1   1.00
      1.4000000              1.0000000
****
F     0
S    6   1.00
   7001.7130900              0.0018196169
   1051.3660900              0.0139160796
    239.2856900              0.0684053245
     67.3974453              0.233185760
     21.5199573              0.471267439
      7.40310130             0.356618546
SP   3   1.00
     20.8479528             -0.108506975            0.0716287243
      4.80830834            -0.146451658            0.3459121030
      1.34406986             1.128688580            0.7224699570
SP   1   1.00
      0.358151393            1.0000000              1.0000000
D    1   1.00
      3.5000000              1.0000000
D    1   1.00
      0.8750000              1.0000000
F    1   1.00
      1.8500000              1.0000000
****
Al     0
S    6   1.00
  13983.1000000              0.00194267
   2098.7500000              0.0148599
    477.7050000              0.0728494
    134.3600000              0.2468300
     42.8709000              0.4872580
     14.5189000              0.3234960
SP   6   1.00
    239.6680000             -0.00292619             0.00460285
     57.4419000             -0.0374080              0.0331990
     18.2859000             -0.1144870              0.1362820
      6.5991400              0.1156350              0.3304760
      2.4904900              0.6125950              0.4491460
      0.9445400              0.3937990              0.2657040
SP   3   1.00
      1.2779000             -0.2276060             -0.0175130
      0.3975900              0.00144583             0.2445330
      0.1600950              1.0927900              0.8049340
SP   1   1.00
      0.0556577              1.0000000              1.0000000
D    1   1.00
      0.6500000              1.0000000
D    1   1.00
      0.1625000              1.0000000
F    1   1.00
      0.2500000              1.0000000
****
Si     0
S    6   1.00
  16115.9000000              0.00195948
   2425.5800000              0.01492880
    553.8670000              0.07284780
    156.3400000              0.24613000
     50.0683000              0.48591400
     17.0178000              0.32500200
SP   6   1.00
    292.7180000             -0.00278094             0.00443826
     69.8731000             -0.03571460             0.03266790
     22.3363000             -0.11498500             0.13472100
      8.1503900              0.09356340             0.32867800
      3.1345800              0.60301700             0.44964000
      1.2254300              0.41895900             0.26137200
SP   3   1.00
      1.7273800             -0.24463000            -0.01779510
      0.5729220              0.00431572             0.25353900
      0.2221920              1.09818000             0.80066900
SP   1   1.00
      0.0778369              1.00000000             1.00000000
D    1   1.00
      0.9000000              1.0000000
D    1   1.00
      0.2250000              1.0000000
F    1   1.00
      0.3200000              1.0000000
****
P     0
S    6   1.00
  19413.3000000              0.0018516
   2909.4200000              0.0142062
    661.3640000              0.0699995
    185.7590000              0.2400790
     59.1943000              0.4847620
     20.0310000              0.3352000
SP   6   1.00
    339.4780000             -0.00278217             0.00456462
     81.0101000             -0.0360499              0.03369360
     25.8780000             -0.1166310              0.13975500
      9.4522100              0.0968328              0.33936200
      3.6656600              0.6144180              0.45092100
      1.4674600              0.4037980              0.23858600
SP   3   1.00
      2.1562300             -0.2529230             -0.01776530
      0.7489970              0.0328517              0.27405800
      0.2831450              1.0812500              0.78542100
SP   1   1.00
      0.0998317              1.0000000              1.00000000
D    1   1.00
      1.1000000              1.0000000
D    1   1.00
      0.2750000              1.0000000
F    1   1.00
      0.4500000              1.0000000
****
S     0
S    6   1.00
  21917.1000000              0.0018690
   3301.4900000              0.0142300
    754.1460000              0.0696960
    212.7110000              0.2384870
     67.9896000              0.4833070
     23.0515000              0.3380740
SP   6   1.00
    423.7350000             -0.0023767              0.0040610
    100.7100000             -0.0316930              0.0306810
     32.1599000             -0.1133170              0.1304520
     11.8079000              0.0560900              0.3272050
      4.6311000              0.5922550              0.4528510
      1.8702500              0.4550060              0.2560420
SP   3   1.00
      2.6158400             -0.2503740             -0.0145110
      0.9221670              0.0669570              0.3102630
      0.3412870              1.0545100              0.7544830
SP   1   1.00
      0.1171670              1.0000000              1.0000000
D    1   1.00
      1.3000000              1.0000000
D    1   1.00
      0.3250000              1.0000000
F    1   1.00
      0.5500000              1.0000000
****
Cl     0
S    6   1.00
  25180.1000000              0.0018330
   3780.3500000              0.0140340
    860.4740000              0.0690970
    242.1450000              0.2374520
     77.3349000              0.4830340
     26.2470000              0.3398560
SP   6   1.00
    491.7650000             -0.0022974              0.0039894
    116.9840000             -0.0307140              0.0303180
     37.4153000             -0.1125280              0.1298800
     13.7834000              0.0450160              0.3279510
      5.4521500              0.5893530              0.4535270
      2.2258800              0.4652060              0.2521540
SP   3   1.00
      3.1864900             -0.2518300             -0.0142990
      1.1442700              0.0615890              0.3235720
      0.4203770              1.0601800              0.7435070
SP   1   1.00
      0.1426570              1.0000000              1.0000000
D    1   1.00
      1.5000000              1.0000000
D    1   1.00
      0.3750000              1.0000000
F    1   1.00
      0.7000000              1.0000000
****
}

set {
reference uhf
freeze_core true
e_convergence 10
d_convergence 10
dft_spherical_points 1202
dft_radial_points 99
}

e = energy('b3lyp')

print_out('Grab this energy {0}'.format(e))
--------------------------------------------------------------------------

    Molecular point group: cs

    Geometry (in Bohr), charge = 0, multiplicity = 2:

       Center              X                  Y                   Z               Mass
    ------------   -----------------  -----------------  -----------------  -----------------
         C           -0.325007134078    -0.000002096864     0.000000000000    12.000000000000
         C            0.061781170722    -1.400829629664    -2.426297685500    12.000000000000
         C            0.061661379722     2.801663593336     0.000000000000    12.000000000000
         C            0.061781170722    -1.400829629664     2.426297685500    12.000000000000
         H            2.086673231622    -1.644118511964    -2.847476902900     1.007825032230
         H           -0.765782544778    -0.388268445764    -4.025450936400     1.007825032230
         H           -0.765945760278    -3.291949567064    -2.349013221900     1.007825032230
         H            2.086534309522     3.288144495236     0.000000000000     1.007825032230
         H           -0.766023506278     3.680250958536     1.676444042000     1.007825032230
         H           -0.766023506278     3.680250958536    -1.676444042000     1.007825032230
         H            2.086673231622    -1.644118511964     2.847476902900     1.007825032230
         H           -0.765945760278    -3.291949567064     2.349013221900     1.007825032230
         H           -0.765782544778    -0.388268445764     4.025450936400     1.007825032230

  Charge       = 0
  Multiplicity = 2
  Basis Set: ANONYMOUS96246382
    Blend: 6-31G_2DFP_
  Basis Set: (ANONYMOUS96246382 AUX)
    Blend: DEF2-UNIVERSAL-JKFIT

    Orbital Energies [Eh]
    ---------------------

    Alpha Occupied:

       1Ap   -10.180407     2Ap   -10.167022     1App  -10.167022
       3Ap   -10.166976     4Ap    -0.797750     5Ap    -0.686169
       2App   -0.686168     6Ap    -0.530781     7Ap    -0.441180
       3App   -0.434608     8Ap    -0.434607     9Ap    -0.382707
       4App   -0.382705     5App   -0.363485     6App   -0.337907
      10Ap    -0.337907    11Ap    -0.169144

    Alpha Virtual:

      12Ap     0.076076    13Ap     0.134152     7App    0.134153
      14Ap     0.142605     8App    0.142605    15Ap     0.154958
      16Ap     0.178847     9App    0.178847    17Ap     0.203573
      10App    0.214755    11App    0.275812    18Ap     0.275814
      19Ap     0.399207    12App    0.399212    20Ap     0.403264
      13App    0.424069    21Ap     0.424069    22Ap     0.456686
      23Ap     0.495364    14App    0.495365    15App    0.512206
      24Ap     0.513880    25Ap     0.578942    16App    0.578950
      17App    0.591660    26Ap     0.591662    27Ap     0.602789
      28Ap     0.624682    18App    0.631716    19App    0.636085
      29Ap     0.636089    30Ap     0.663570    20App    0.663571
      31Ap     0.683741    21App    0.683742    32Ap     0.734797
      22App    0.825351    33Ap     0.825354    23App    0.853918
      24App    0.914959    34Ap     0.914965    25App    0.944175
      35Ap     0.944663    26App    0.961300    36Ap     0.961317
      37Ap     1.003455    38Ap     1.128202    27App    1.128215
      39Ap     1.142237    40Ap     1.163693    28App    1.163706
      41Ap     1.223162    42Ap     1.274426    29App    1.274429
      43Ap     1.279594    30App    1.324108    44Ap     1.324110
      45Ap     1.356231    31App    1.365677    46Ap     1.365682
      32App    1.392465    47Ap     1.404097    33App    1.404099
      34App    1.417341    48Ap     1.417348    35App    1.427958
      36App    1.491311    49Ap     1.499471    37App    1.542878
      50Ap     1.542880    51Ap     1.574159    38App    1.574161
      52Ap     1.669555    53Ap     1.739170    39App    1.739182
      54Ap     1.768368    40App    1.831008    55Ap     1.831009
      41App    1.971463    56Ap     2.017291    57Ap     2.019343
      42App    2.019346    58Ap     2.053024    43App    2.053025
      44App    2.738289    59Ap     2.738290    60Ap     2.791120
      45App    2.811396    61Ap     2.889705    46App    2.889712
      62Ap     2.895257    63Ap     2.929510    47App    2.929518
      48App    2.958927    64Ap     2.964257    49App    2.964271
      65Ap     3.034357    50App    3.070434    66Ap     3.070447
      51App    3.084278    67Ap     3.168898    52App    3.168906
      68Ap     3.180552    53App    3.286109    69Ap     3.286109
      70Ap     3.327518    54App    3.327523    71Ap     3.375785
      55App    3.489926    72Ap     3.489946    56App    3.513837
      73Ap     3.525793    57App    3.568091    74Ap     3.568112
      58App    3.575757    75Ap     3.665811    59App    3.665819
      76Ap     3.679429    60App    3.694172    77Ap     3.694188
      78Ap     3.776516    61App    3.776542    79Ap     3.787848
      80Ap     3.912197    62App    3.912203    81Ap     4.034146
      82Ap     4.111139    63App    4.111143    83Ap     4.148091
      64App    4.148099    84Ap     4.173190    85Ap     4.202296
      65App    4.203341    86Ap     4.203344    66App    4.210900
      87Ap     4.316148    67App    4.316168    68App    4.359457
      88Ap     4.424297    69App    4.424299    70App    4.443167
      71App    4.517137    89Ap     4.517138    72App    4.578391
      90Ap     4.578403    91Ap     4.617031    92Ap     4.709774
      93Ap     4.774430    73App    4.774438    74App    4.835701
      94Ap     4.962961    75App    5.003087    95Ap     5.003099
      96Ap     5.227935    76App    5.246699    97Ap     5.246699
      98Ap     5.355220    77App    5.355232    78App    5.478981

    Beta Occupied:

       1Ap   -10.167772     1App  -10.167772     2Ap   -10.167748
       3Ap   -10.166580     4Ap    -0.781079     5Ap    -0.683969
       2App   -0.683969     6Ap    -0.511744     3App   -0.430968
       7Ap    -0.430968     8Ap    -0.421909     9Ap    -0.376802
       4App   -0.376801     5App   -0.362468     6App   -0.333034
      10Ap    -0.333034

    Beta Virtual:

      11Ap    -0.025843    12Ap     0.077080    13Ap     0.135032
       7App    0.135033    14Ap     0.144478     8App    0.144478
      15Ap     0.163407    16Ap     0.182519     9App    0.182519
      10App    0.214984    17Ap     0.218933    11App    0.282172
      18Ap     0.282174    19Ap     0.400376    12App    0.400380
      20Ap     0.419685    13App    0.426882    21Ap     0.426883
      22Ap     0.468608    23Ap     0.497629    14App    0.497630
      15App    0.513936    24Ap     0.556226    25Ap     0.584478
      16App    0.584486    17App    0.597846    26Ap     0.597847
      27Ap     0.610186    28Ap     0.628080    18App    0.631872
      19App    0.639377    29Ap     0.639381    30Ap     0.667137
      20App    0.667137    31Ap     0.686370    21App    0.686372
      32Ap     0.757341    22App    0.830523    33Ap     0.830526
      23App    0.855267    24App    0.922940    34Ap     0.922947
      25App    0.946007    35Ap     0.953586    26App    0.966573
      36Ap     0.966589    37Ap     1.008714    38Ap     1.132238
      27App    1.132250    39Ap     1.155586    40Ap     1.168763
      28App    1.168776    41Ap     1.232131    42Ap     1.280038
      29App    1.280042    43Ap     1.285356    30App    1.329106
      44Ap     1.329108    45Ap     1.365623    31App    1.370916
      46Ap     1.370920    32App    1.393515    47Ap     1.407562
      33App    1.407565    34App    1.422370    48Ap     1.422376
      35App    1.428231    36App    1.492357    49Ap     1.509922
      50Ap     1.547284    37App    1.547285    38App    1.582033
      51Ap     1.582034    52Ap     1.674417    53Ap     1.744930
      39App    1.744941    54Ap     1.779128    40App    1.834855
      55Ap     1.834856    41App    1.972320    56Ap     2.025740
      42App    2.025744    57Ap     2.038674    58Ap     2.059758
      43App    2.059759    44App    2.746624    59Ap     2.746625
      45App    2.811816    60Ap     2.816237    61Ap     2.902438
      46App    2.902444    62Ap     2.924952    63Ap     2.931976
      47App    2.931985    48App    2.959988    64Ap     2.968812
      49App    2.968826    65Ap     3.042251    50App    3.080384
      66Ap     3.080396    51App    3.086089    67Ap     3.184556
      52App    3.184560    68Ap     3.188276    69Ap     3.290868
      53App    3.290868    70Ap     3.331330    54App    3.331336
      71Ap     3.383613    55App    3.492674    72Ap     3.492694
      56App    3.512205    73Ap     3.528847    57App    3.575621
      58App    3.581474    74Ap     3.581496    75Ap     3.670535
      59App    3.670546    76Ap     3.692720    60App    3.725811
      77Ap     3.725827    78Ap     3.781084    61App    3.781110
      79Ap     3.816386    80Ap     3.921976    62App    3.921983
      81Ap     4.045062    82Ap     4.117941    63App    4.117943
      83Ap     4.155311    64App    4.155320    84Ap     4.187212
      65App    4.209281    85Ap     4.209284    86Ap     4.210275
      66App    4.215349    87Ap     4.323610    67App    4.323630
      68App    4.362818    88Ap     4.432472    69App    4.432474
      70App    4.446050    71App    4.524910    89Ap     4.524911
      72App    4.589027    90Ap     4.589039    91Ap     4.624215
      92Ap     4.720145    93Ap     4.781398    73App    4.781406
      74App    4.838628    94Ap     4.967753    75App    5.007112
      95Ap     5.007125    96Ap     5.233653    76App    5.248483
      97Ap     5.248483    98Ap     5.361708    77App    5.361721
      78App    5.481309

    Final Occupation by Irrep:
             Ap   App
    DOCC [    10,    6 ]
    SOCC [     1,    0 ]

  @DF-UKS Final Energy:  -157.81306521247993

   => Energetics <=

    Nuclear Repulsion Energy =            125.3921664340009130
    One-Electron Energy =                -458.7441774287746057
    Two-Electron Energy =                 195.8460183819420308
    DFT Exchange-Correlation Energy =     -20.3070725996482615
    Empirical Dispersion Energy =           0.0000000000000000
    VV10 Nonlocal Energy =                  0.0000000000000000
    Total Energy =                       -157.8130652124799269

  UHF NO Occupations:
  HONO-2 :    9 Ap 1.9996024
  HONO-1 :   10 Ap 1.9989820
  HONO-0 :   11 Ap 1.0000000
  LUNO+0 :   12 Ap 0.0010180
  LUNO+1 :   13 Ap 0.0003976
  LUNO+2 :    7App 0.0001976
  LUNO+3 :   14 Ap 0.0001976

Computation Completed

Properties will be evaluated at   0.000000,   0.000000,   0.000000 [a0]

Properties computed using the SCF density matrix

  Nuclear Dipole Moment: [e a0]
     X:     0.8257      Y:    -0.0000      Z:     0.0000

  Electronic Dipole Moment: [e a0]
     X:    -0.7470      Y:     0.0000      Z:     0.0000

  Dipole Moment: [e a0]
     X:     0.0787      Y:    -0.0000      Z:     0.0000     Total:     0.0787

  Dipole Moment: [D]
     X:     0.2000      Y:    -0.0000      Z:     0.0000     Total:     0.2000

*** tstop() called on n035 at Fri Nov  5 11:29:30 2021
Module time:
	user time   =     632.49 seconds =      10.54 minutes
	system time =      12.03 seconds =       0.20 minutes
	total time  =        162 seconds =       2.70 minutes
Total time:
	user time   =     632.49 seconds =      10.54 minutes
	system time =      12.03 seconds =       0.20 minutes
	total time  =        162 seconds =       2.70 minutes
Grab this energy -157.81306521247993
    Psi4 stopped on: Friday, 05 November 2021 11:29AM
    Psi4 wall time for execution: 0:02:42.07

*** Psi4 exiting successfully. Buy a developer a beer!
