                               Psi4 1.4a2.dev629

  ==> Input File <==

--------------------------------------------------------------------------
import os
memory 14 GB

molecule {
 C   -0.3233277206   -0.0000019729   -0.0000000141
 C    0.0613238265   -1.4025348335   -2.4273182112
 C    0.0612038508    2.8033985665   -0.0009667201
 C    0.0613238143   -1.4008605213    2.4282848838
 H    2.0869883544   -1.6461032331   -2.8457094892
 H   -0.7678877300   -0.3866177018   -4.0264327016
 H   -0.7633253726   -3.2900690833   -2.3489590635
 H    2.0868497282    3.2876066514   -0.0026025857
 H   -0.7681288981    3.6802761956    1.6783642834
 H   -0.7634030184    3.6792643082   -1.6748421175
 H    2.0869889969   -1.6415956160    2.8483119205
 H   -0.7680512253   -3.2936248022    2.3480747563
 H   -0.7631624829   -0.3891622712    4.0237950589
units bohr
0 2
}

basis {

assign 6-31g_2dfp_

[ 6-31g_2dfp_ ]

spherical

!----------------------------------------------------------------------
! Basis Set Exchange
! Version v0.8.13
! https://www.basissetexchange.org
!----------------------------------------------------------------------
!   Basis set: 6-31G(2df,p)
! Description: 6-31G(2df,p)
!        Role: orbital
!     Version: 0  (Data from the original Basis Set Exchange)
!----------------------------------------------------------------------

****
H     0
S    3   1.00
     18.7311370              0.03349460
      2.8253937              0.23472695
      0.6401217              0.81375733
S    1   1.00
      0.1612778              1.00000000
P    1   1.00
      1.5000000              1.0000000
P    1   1.00
      0.3750000              1.0000000
****
B     0
S    6   1.00
   2068.8823000              0.0018663
    310.6495700              0.0142515
     70.6830330              0.0695516
     19.8610800              0.2325729
      6.2993048              0.4670787
      2.1270270              0.3634314
SP   3   1.00
      4.7279710             -0.1303938              0.0745976
      1.1903377             -0.1307889              0.3078467
      0.3594117              1.1309444              0.7434568
SP   1   1.00
      0.1267512              1.0000000              1.0000000
D    1   1.00
      0.8020000              1.0000000
D    1   1.00
      0.2005000              1.0000000
F    1   1.00
      0.5000000              1.0000000
****
C     0
S    6   1.00
   3047.5249000              0.0018347
    457.3695100              0.0140373
    103.9486900              0.0688426
     29.2101550              0.2321844
      9.2866630              0.4679413
      3.1639270              0.3623120
SP   3   1.00
      7.8682724             -0.1193324              0.0689991
      1.8812885             -0.1608542              0.3164240
      0.5442493              1.1434564              0.7443083
SP   1   1.00
      0.1687144              1.0000000              1.0000000
D    1   1.00
      1.2520000              1.0000000
D    1   1.00
      0.3130000              1.0000000
F    1   1.00
      0.8000000              1.0000000
****
N     0
S    6   1.00
   4173.5110000              0.0018348
    627.4579000              0.0139950
    142.9021000              0.0685870
     40.2343300              0.2322410
     12.8202100              0.4690700
      4.3904370              0.3604550
SP   3   1.00
     11.6263580             -0.1149610              0.0675800
      2.7162800             -0.1691180              0.3239070
      0.7722180              1.1458520              0.7408950
SP   1   1.00
      0.2120313              1.0000000              1.0000000
D    1   1.00
      1.8260000              1.0000000
D    1   1.00
      0.4565000              1.0000000
F    1   1.00
      1.0000000              1.0000000
****
O     0
S    6   1.00
   5484.6717000              0.0018311
    825.2349500              0.0139501
    188.0469600              0.0684451
     52.9645000              0.2327143
     16.8975700              0.4701930
      5.7996353              0.3585209
SP   3   1.00
     15.5396160             -0.1107775              0.0708743
      3.5999336             -0.1480263              0.3397528
      1.0137618              1.1307670              0.7271586
SP   1   1.00
      0.2700058              1.0000000              1.0000000
D    1   1.00
      2.5840000              1.0000000
D    1   1.00
      0.6460000              1.0000000
F    1   1.00
      1.4000000              1.0000000
****
F     0
S    6   1.00
   7001.7130900              0.0018196169
   1051.3660900              0.0139160796
    239.2856900              0.0684053245
     67.3974453              0.233185760
     21.5199573              0.471267439
      7.40310130             0.356618546
SP   3   1.00
     20.8479528             -0.108506975            0.0716287243
      4.80830834            -0.146451658            0.3459121030
      1.34406986             1.128688580            0.7224699570
SP   1   1.00
      0.358151393            1.0000000              1.0000000
D    1   1.00
      3.5000000              1.0000000
D    1   1.00
      0.8750000              1.0000000
F    1   1.00
      1.8500000              1.0000000
****
Al     0
S    6   1.00
  13983.1000000              0.00194267
   2098.7500000              0.0148599
    477.7050000              0.0728494
    134.3600000              0.2468300
     42.8709000              0.4872580
     14.5189000              0.3234960
SP   6   1.00
    239.6680000             -0.00292619             0.00460285
     57.4419000             -0.0374080              0.0331990
     18.2859000             -0.1144870              0.1362820
      6.5991400              0.1156350              0.3304760
      2.4904900              0.6125950              0.4491460
      0.9445400              0.3937990              0.2657040
SP   3   1.00
      1.2779000             -0.2276060             -0.0175130
      0.3975900              0.00144583             0.2445330
      0.1600950              1.0927900              0.8049340
SP   1   1.00
      0.0556577              1.0000000              1.0000000
D    1   1.00
      0.6500000              1.0000000
D    1   1.00
      0.1625000              1.0000000
F    1   1.00
      0.2500000              1.0000000
****
Si     0
S    6   1.00
  16115.9000000              0.00195948
   2425.5800000              0.01492880
    553.8670000              0.07284780
    156.3400000              0.24613000
     50.0683000              0.48591400
     17.0178000              0.32500200
SP   6   1.00
    292.7180000             -0.00278094             0.00443826
     69.8731000             -0.03571460             0.03266790
     22.3363000             -0.11498500             0.13472100
      8.1503900              0.09356340             0.32867800
      3.1345800              0.60301700             0.44964000
      1.2254300              0.41895900             0.26137200
SP   3   1.00
      1.7273800             -0.24463000            -0.01779510
      0.5729220              0.00431572             0.25353900
      0.2221920              1.09818000             0.80066900
SP   1   1.00
      0.0778369              1.00000000             1.00000000
D    1   1.00
      0.9000000              1.0000000
D    1   1.00
      0.2250000              1.0000000
F    1   1.00
      0.3200000              1.0000000
****
P     0
S    6   1.00
  19413.3000000              0.0018516
   2909.4200000              0.0142062
    661.3640000              0.0699995
    185.7590000              0.2400790
     59.1943000              0.4847620
     20.0310000              0.3352000
SP   6   1.00
    339.4780000             -0.00278217             0.00456462
     81.0101000             -0.0360499              0.03369360
     25.8780000             -0.1166310              0.13975500
      9.4522100              0.0968328              0.33936200
      3.6656600              0.6144180              0.45092100
      1.4674600              0.4037980              0.23858600
SP   3   1.00
      2.1562300             -0.2529230             -0.01776530
      0.7489970              0.0328517              0.27405800
      0.2831450              1.0812500              0.78542100
SP   1   1.00
      0.0998317              1.0000000              1.00000000
D    1   1.00
      1.1000000              1.0000000
D    1   1.00
      0.2750000              1.0000000
F    1   1.00
      0.4500000              1.0000000
****
S     0
S    6   1.00
  21917.1000000              0.0018690
   3301.4900000              0.0142300
    754.1460000              0.0696960
    212.7110000              0.2384870
     67.9896000              0.4833070
     23.0515000              0.3380740
SP   6   1.00
    423.7350000             -0.0023767              0.0040610
    100.7100000             -0.0316930              0.0306810
     32.1599000             -0.1133170              0.1304520
     11.8079000              0.0560900              0.3272050
      4.6311000              0.5922550              0.4528510
      1.8702500              0.4550060              0.2560420
SP   3   1.00
      2.6158400             -0.2503740             -0.0145110
      0.9221670              0.0669570              0.3102630
      0.3412870              1.0545100              0.7544830
SP   1   1.00
      0.1171670              1.0000000              1.0000000
D    1   1.00
      1.3000000              1.0000000
D    1   1.00
      0.3250000              1.0000000
F    1   1.00
      0.5500000              1.0000000
****
Cl     0
S    6   1.00
  25180.1000000              0.0018330
   3780.3500000              0.0140340
    860.4740000              0.0690970
    242.1450000              0.2374520
     77.3349000              0.4830340
     26.2470000              0.3398560
SP   6   1.00
    491.7650000             -0.0022974              0.0039894
    116.9840000             -0.0307140              0.0303180
     37.4153000             -0.1125280              0.1298800
     13.7834000              0.0450160              0.3279510
      5.4521500              0.5893530              0.4535270
      2.2258800              0.4652060              0.2521540
SP   3   1.00
      3.1864900             -0.2518300             -0.0142990
      1.1442700              0.0615890              0.3235720
      0.4203770              1.0601800              0.7435070
SP   1   1.00
      0.1426570              1.0000000              1.0000000
D    1   1.00
      1.5000000              1.0000000
D    1   1.00
      0.3750000              1.0000000
F    1   1.00
      0.7000000              1.0000000
****
}

set {
reference uhf
freeze_core true
e_convergence 10
d_convergence 10
dft_spherical_points 1202
dft_radial_points 99
}

e = energy('b3lyp')

print_out('Grab this energy {0}'.format(e))
--------------------------------------------------------------------------

    Molecular point group: c1

    Geometry (in Bohr), charge = 0, multiplicity = 2:

       Center              X                  Y                   Z               Mass
    ------------   -----------------  -----------------  -----------------  -----------------
         C           -0.323436304034    -0.000001782140    -0.000000002235    12.000000000000
         C            0.061215243066    -1.402534642740    -2.427318199335    12.000000000000
         C            0.061095267366     2.803398757260    -0.000966708235    12.000000000000
         C            0.061215230866    -1.400860330540     2.428284895665    12.000000000000
         H            2.086879770966    -1.646103042340    -2.845709477335     1.007825032230
         H           -0.767996313434    -0.386617511040    -4.026432689735     1.007825032230
         H           -0.763433956034    -3.290068892540    -2.348959051635     1.007825032230
         H            2.086741144766     3.287606842160    -0.002602573835     1.007825032230
         H           -0.768237481534     3.680276386360     1.678364295265     1.007825032230
         H           -0.763511601834     3.679264498960    -1.674842105635     1.007825032230
         H            2.086880413466    -1.641595425240     2.848311932365     1.007825032230
         H           -0.768159808734    -3.293624611440     2.348074768165     1.007825032230
         H           -0.763271066334    -0.389162080440     4.023795070765     1.007825032230

  Charge       = 0
  Multiplicity = 2
  Basis Set: ANONYMOUS9A954CDC
    Blend: 6-31G_2DFP_
  Basis Set: (ANONYMOUS9A954CDC AUX)
    Blend: DEF2-UNIVERSAL-JKFIT

    Orbital Energies [Eh]
    ---------------------

    Alpha Occupied:

       1A    -10.180393     2A    -10.166978     3A    -10.166977
       4A    -10.166932     5A     -0.797509     6A     -0.686179
       7A     -0.686178     8A     -0.530611     9A     -0.441113
      10A     -0.434605    11A     -0.434604    12A     -0.382737
      13A     -0.382736    14A     -0.363811    15A     -0.337838
      16A     -0.337838    17A     -0.168940

    Alpha Virtual:

      18A      0.076080    19A      0.134203    20A      0.134204
      21A      0.142768    22A      0.142768    23A      0.154773
      24A      0.178946    25A      0.178946    26A      0.203254
      27A      0.214928    28A      0.275743    29A      0.275745
      30A      0.399233    31A      0.399237    32A      0.403435
      33A      0.424150    34A      0.424151    35A      0.456411
      36A      0.495399    37A      0.495400    38A      0.512214
      39A      0.514038    40A      0.578854    41A      0.578862
      42A      0.591733    43A      0.591735    44A      0.602612
      45A      0.624839    46A      0.632059    47A      0.636183
      48A      0.636187    49A      0.663297    50A      0.663297
      51A      0.683876    52A      0.683878    53A      0.735125
      54A      0.825385    55A      0.825388    56A      0.853779
      57A      0.915066    58A      0.915072    59A      0.944031
      60A      0.944349    61A      0.961347    62A      0.961363
      63A      1.003625    64A      1.128031    65A      1.128043
      66A      1.141800    67A      1.163871    68A      1.163883
      69A      1.222902    70A      1.274362    71A      1.274365
      72A      1.279187    73A      1.324142    74A      1.324144
      75A      1.355650    76A      1.365912    77A      1.365916
      78A      1.392956    79A      1.404776    80A      1.404778
      81A      1.417122    82A      1.417129    83A      1.428166
      84A      1.490938    85A      1.499680    86A      1.542660
      87A      1.542662    88A      1.574349    89A      1.574351
      90A      1.670623    91A      1.738893    92A      1.738904
      93A      1.768337    94A      1.831844    95A      1.831844
      96A      1.971106    97A      2.018293    98A      2.018296
      99A      2.018560   100A      2.052224   101A      2.052225
     102A      2.738309   103A      2.738310   104A      2.790696
     105A      2.811343   106A      2.889846   107A      2.889852
     108A      2.894530   109A      2.929645   110A      2.929653
     111A      2.959043   112A      2.964405   113A      2.964419
     114A      3.033823   115A      3.071334   116A      3.071347
     117A      3.083966   118A      3.168676   119A      3.168683
     120A      3.179996   121A      3.285636   122A      3.285636
     123A      3.326923   124A      3.326928   125A      3.375704
     126A      3.490068   127A      3.490088   128A      3.513850
     129A      3.524988   130A      3.568139   131A      3.568159
     132A      3.575273   133A      3.667150   134A      3.667158
     135A      3.680247   136A      3.694236   137A      3.694252
     138A      3.776737   139A      3.776762   140A      3.789406
     141A      3.911124   142A      3.911130   143A      4.033895
     144A      4.111578   145A      4.111581   146A      4.148179
     147A      4.148187   148A      4.172441   149A      4.201748
     150A      4.202421   151A      4.202425   152A      4.210648
     153A      4.316052   154A      4.316071   155A      4.359602
     156A      4.425648   157A      4.425650   158A      4.445404
     159A      4.516511   160A      4.516513   161A      4.577547
     162A      4.577559   163A      4.617144   164A      4.708171
     165A      4.773790   166A      4.773798   167A      4.835565
     168A      4.964194   169A      5.003837   170A      5.003848
     171A      5.228552   172A      5.247017   173A      5.247018
     174A      5.355423   175A      5.355436   176A      5.478167

    Beta Occupied:

       1A    -10.167729     2A    -10.167728     3A    -10.167704
       4A    -10.166560     5A     -0.780849     6A     -0.683987
       7A     -0.683987     8A     -0.511537     9A     -0.430994
      10A     -0.430994    11A     -0.421854    12A     -0.376838
      13A     -0.376837    14A     -0.362799    15A     -0.332947
      16A     -0.332947

    Beta Virtual:

      17A     -0.025573    18A      0.077085    19A      0.135085
      20A      0.135086    21A      0.144637    22A      0.144637
      23A      0.163190    24A      0.182602    25A      0.182602
      26A      0.215149    27A      0.218693    28A      0.282110
      29A      0.282112    30A      0.400395    31A      0.400400
      32A      0.419874    33A      0.426960    34A      0.426960
      35A      0.468242    36A      0.497652    37A      0.497653
      38A      0.513942    39A      0.556413    40A      0.584405
      41A      0.584413    42A      0.597923    43A      0.597923
      44A      0.610041    45A      0.628149    46A      0.632240
      47A      0.639452    48A      0.639456    49A      0.666860
      50A      0.666860    51A      0.686500    52A      0.686501
      53A      0.757726    54A      0.830538    55A      0.830541
      56A      0.855120    57A      0.923040    58A      0.923047
      59A      0.945906    60A      0.953221    61A      0.966644
      62A      0.966660    63A      1.008875    64A      1.132065
      65A      1.132077    66A      1.155142    67A      1.168954
      68A      1.168966    69A      1.231933    70A      1.279926
      71A      1.279930    72A      1.284965    73A      1.329109
      74A      1.329110    75A      1.365055    76A      1.371216
      77A      1.371221    78A      1.394004    79A      1.408210
      80A      1.408213    81A      1.422171    82A      1.422178
      83A      1.428447    84A      1.491984    85A      1.510092
      86A      1.547048    87A      1.547048    88A      1.582238
      89A      1.582239    90A      1.675475    91A      1.744656
      92A      1.744667    93A      1.779078    94A      1.835675
      95A      1.835676    96A      1.971972    97A      2.024637
      98A      2.024640    99A      2.039914   100A      2.058977
     101A      2.058977   102A      2.746676   103A      2.746677
     104A      2.811751   105A      2.815871   106A      2.902573
     107A      2.902579   108A      2.924204   109A      2.932095
     110A      2.932103   111A      2.960109   112A      2.968918
     113A      2.968932   114A      3.041711   115A      3.081202
     116A      3.081214   117A      3.085779   118A      3.184524
     119A      3.184528   120A      3.187695   121A      3.290386
     122A      3.290386   123A      3.330733   124A      3.330739
     125A      3.383490   126A      3.492790   127A      3.492810
     128A      3.512220   129A      3.528065   130A      3.575133
     131A      3.581545   132A      3.581567   133A      3.672089
     134A      3.672101   135A      3.693541   136A      3.725746
     137A      3.725762   138A      3.781199   139A      3.781225
     140A      3.818007   141A      3.920978   142A      3.920985
     143A      4.044862   144A      4.118293   145A      4.118295
     146A      4.155447   147A      4.155456   148A      4.186404
     149A      4.208358   150A      4.208361   151A      4.209657
     152A      4.215166   153A      4.323586   154A      4.323605
     155A      4.362943   156A      4.433800   157A      4.433801
     158A      4.448281   159A      4.524238   160A      4.524240
     161A      4.588130   162A      4.588142   163A      4.624315
     164A      4.718514   165A      4.780745   166A      4.780753
     167A      4.838483   168A      4.968967   169A      5.007853
     170A      5.007865   171A      5.234251   172A      5.248796
     173A      5.248797   174A      5.361871   175A      5.361884
     176A      5.480480

    Final Occupation by Irrep:
              A
    DOCC [    16 ]
    SOCC [     1 ]

  @DF-UKS Final Energy:  -157.81303681975862

   => Energetics <=

    Nuclear Repulsion Energy =            125.3666841391999753
    One-Electron Energy =                -458.6939032197898314
    Two-Electron Energy =                 195.8214443803036318
    DFT Exchange-Correlation Energy =     -20.3072621194723801
    Empirical Dispersion Energy =           0.0000000000000000
    VV10 Nonlocal Energy =                  0.0000000000000000
    Total Energy =                       -157.8130368197586222

  UHF NO Occupations:
  HONO-2 :   15  A 1.9996025
  HONO-1 :   16  A 1.9989782
  HONO-0 :   17  A 1.0000000
  LUNO+0 :   18  A 0.0010218
  LUNO+1 :   19  A 0.0003975
  LUNO+2 :   20  A 0.0001983
  LUNO+3 :   21  A 0.0001983

Computation Completed

Properties will be evaluated at   0.000000,   0.000000,   0.000000 [a0]

Properties computed using the SCF density matrix

  Nuclear Dipole Moment: [e a0]
     X:     0.8264      Y:    -0.0000      Z:     0.0000

  Electronic Dipole Moment: [e a0]
     X:    -0.7484      Y:     0.0000      Z:    -0.0000

  Dipole Moment: [e a0]
     X:     0.0780      Y:    -0.0000      Z:    -0.0000     Total:     0.0780

  Dipole Moment: [D]
     X:     0.1984      Y:    -0.0000      Z:    -0.0000     Total:     0.1984

*** tstop() called on n021 at Fri Nov  5 13:23:02 2021
Module time:
	user time   =     638.18 seconds =      10.64 minutes
	system time =      12.37 seconds =       0.21 minutes
	total time  =        164 seconds =       2.73 minutes
Total time:
	user time   =     638.18 seconds =      10.64 minutes
	system time =      12.37 seconds =       0.21 minutes
	total time  =        164 seconds =       2.73 minutes
Grab this energy -157.81303681975862
    Psi4 stopped on: Friday, 05 November 2021 01:23PM
    Psi4 wall time for execution: 0:02:43.53

*** Psi4 exiting successfully. Buy a developer a beer!
