                               Psi4 1.4a2.dev629

  ==> Input File <==

--------------------------------------------------------------------------
import os
memory 14 GB

molecule {
 C   -0.3233413991   -0.0004987842   -0.0000004594
 C    0.0604498135   -1.3998027897   -2.4270570132
 C    0.0623953590    2.8016624608    0.0016001968
 C    0.0604526301   -1.4025750695    2.4254554818
 H    2.0889974064   -1.6446491192   -2.8468359441
 H   -0.7675941971   -0.3898547631   -4.0251049548
 H   -0.7652900785   -3.2904589936   -2.3493652735
 H    2.0826735905    3.2885851991   -0.0006154332
 H   -0.7639350627    3.6802690833    1.6793254823
 H   -0.7635364944    3.6801347006   -1.6799318929
 H    2.0889998038   -1.6435686120    2.8474578895
 H   -0.7656787131   -3.2900009662    2.3497774152
 H   -0.7672005352   -0.3892666600    4.0252945055
units bohr
0 2
}

basis {

assign 6-31g_2dfp_

[ 6-31g_2dfp_ ]

spherical

!----------------------------------------------------------------------
! Basis Set Exchange
! Version v0.8.13
! https://www.basissetexchange.org
!----------------------------------------------------------------------
!   Basis set: 6-31G(2df,p)
! Description: 6-31G(2df,p)
!        Role: orbital
!     Version: 0  (Data from the original Basis Set Exchange)
!----------------------------------------------------------------------

****
H     0
S    3   1.00
     18.7311370              0.03349460
      2.8253937              0.23472695
      0.6401217              0.81375733
S    1   1.00
      0.1612778              1.00000000
P    1   1.00
      1.5000000              1.0000000
P    1   1.00
      0.3750000              1.0000000
****
B     0
S    6   1.00
   2068.8823000              0.0018663
    310.6495700              0.0142515
     70.6830330              0.0695516
     19.8610800              0.2325729
      6.2993048              0.4670787
      2.1270270              0.3634314
SP   3   1.00
      4.7279710             -0.1303938              0.0745976
      1.1903377             -0.1307889              0.3078467
      0.3594117              1.1309444              0.7434568
SP   1   1.00
      0.1267512              1.0000000              1.0000000
D    1   1.00
      0.8020000              1.0000000
D    1   1.00
      0.2005000              1.0000000
F    1   1.00
      0.5000000              1.0000000
****
C     0
S    6   1.00
   3047.5249000              0.0018347
    457.3695100              0.0140373
    103.9486900              0.0688426
     29.2101550              0.2321844
      9.2866630              0.4679413
      3.1639270              0.3623120
SP   3   1.00
      7.8682724             -0.1193324              0.0689991
      1.8812885             -0.1608542              0.3164240
      0.5442493              1.1434564              0.7443083
SP   1   1.00
      0.1687144              1.0000000              1.0000000
D    1   1.00
      1.2520000              1.0000000
D    1   1.00
      0.3130000              1.0000000
F    1   1.00
      0.8000000              1.0000000
****
N     0
S    6   1.00
   4173.5110000              0.0018348
    627.4579000              0.0139950
    142.9021000              0.0685870
     40.2343300              0.2322410
     12.8202100              0.4690700
      4.3904370              0.3604550
SP   3   1.00
     11.6263580             -0.1149610              0.0675800
      2.7162800             -0.1691180              0.3239070
      0.7722180              1.1458520              0.7408950
SP   1   1.00
      0.2120313              1.0000000              1.0000000
D    1   1.00
      1.8260000              1.0000000
D    1   1.00
      0.4565000              1.0000000
F    1   1.00
      1.0000000              1.0000000
****
O     0
S    6   1.00
   5484.6717000              0.0018311
    825.2349500              0.0139501
    188.0469600              0.0684451
     52.9645000              0.2327143
     16.8975700              0.4701930
      5.7996353              0.3585209
SP   3   1.00
     15.5396160             -0.1107775              0.0708743
      3.5999336             -0.1480263              0.3397528
      1.0137618              1.1307670              0.7271586
SP   1   1.00
      0.2700058              1.0000000              1.0000000
D    1   1.00
      2.5840000              1.0000000
D    1   1.00
      0.6460000              1.0000000
F    1   1.00
      1.4000000              1.0000000
****
F     0
S    6   1.00
   7001.7130900              0.0018196169
   1051.3660900              0.0139160796
    239.2856900              0.0684053245
     67.3974453              0.233185760
     21.5199573              0.471267439
      7.40310130             0.356618546
SP   3   1.00
     20.8479528             -0.108506975            0.0716287243
      4.80830834            -0.146451658            0.3459121030
      1.34406986             1.128688580            0.7224699570
SP   1   1.00
      0.358151393            1.0000000              1.0000000
D    1   1.00
      3.5000000              1.0000000
D    1   1.00
      0.8750000              1.0000000
F    1   1.00
      1.8500000              1.0000000
****
Al     0
S    6   1.00
  13983.1000000              0.00194267
   2098.7500000              0.0148599
    477.7050000              0.0728494
    134.3600000              0.2468300
     42.8709000              0.4872580
     14.5189000              0.3234960
SP   6   1.00
    239.6680000             -0.00292619             0.00460285
     57.4419000             -0.0374080              0.0331990
     18.2859000             -0.1144870              0.1362820
      6.5991400              0.1156350              0.3304760
      2.4904900              0.6125950              0.4491460
      0.9445400              0.3937990              0.2657040
SP   3   1.00
      1.2779000             -0.2276060             -0.0175130
      0.3975900              0.00144583             0.2445330
      0.1600950              1.0927900              0.8049340
SP   1   1.00
      0.0556577              1.0000000              1.0000000
D    1   1.00
      0.6500000              1.0000000
D    1   1.00
      0.1625000              1.0000000
F    1   1.00
      0.2500000              1.0000000
****
Si     0
S    6   1.00
  16115.9000000              0.00195948
   2425.5800000              0.01492880
    553.8670000              0.07284780
    156.3400000              0.24613000
     50.0683000              0.48591400
     17.0178000              0.32500200
SP   6   1.00
    292.7180000             -0.00278094             0.00443826
     69.8731000             -0.03571460             0.03266790
     22.3363000             -0.11498500             0.13472100
      8.1503900              0.09356340             0.32867800
      3.1345800              0.60301700             0.44964000
      1.2254300              0.41895900             0.26137200
SP   3   1.00
      1.7273800             -0.24463000            -0.01779510
      0.5729220              0.00431572             0.25353900
      0.2221920              1.09818000             0.80066900
SP   1   1.00
      0.0778369              1.00000000             1.00000000
D    1   1.00
      0.9000000              1.0000000
D    1   1.00
      0.2250000              1.0000000
F    1   1.00
      0.3200000              1.0000000
****
P     0
S    6   1.00
  19413.3000000              0.0018516
   2909.4200000              0.0142062
    661.3640000              0.0699995
    185.7590000              0.2400790
     59.1943000              0.4847620
     20.0310000              0.3352000
SP   6   1.00
    339.4780000             -0.00278217             0.00456462
     81.0101000             -0.0360499              0.03369360
     25.8780000             -0.1166310              0.13975500
      9.4522100              0.0968328              0.33936200
      3.6656600              0.6144180              0.45092100
      1.4674600              0.4037980              0.23858600
SP   3   1.00
      2.1562300             -0.2529230             -0.01776530
      0.7489970              0.0328517              0.27405800
      0.2831450              1.0812500              0.78542100
SP   1   1.00
      0.0998317              1.0000000              1.00000000
D    1   1.00
      1.1000000              1.0000000
D    1   1.00
      0.2750000              1.0000000
F    1   1.00
      0.4500000              1.0000000
****
S     0
S    6   1.00
  21917.1000000              0.0018690
   3301.4900000              0.0142300
    754.1460000              0.0696960
    212.7110000              0.2384870
     67.9896000              0.4833070
     23.0515000              0.3380740
SP   6   1.00
    423.7350000             -0.0023767              0.0040610
    100.7100000             -0.0316930              0.0306810
     32.1599000             -0.1133170              0.1304520
     11.8079000              0.0560900              0.3272050
      4.6311000              0.5922550              0.4528510
      1.8702500              0.4550060              0.2560420
SP   3   1.00
      2.6158400             -0.2503740             -0.0145110
      0.9221670              0.0669570              0.3102630
      0.3412870              1.0545100              0.7544830
SP   1   1.00
      0.1171670              1.0000000              1.0000000
D    1   1.00
      1.3000000              1.0000000
D    1   1.00
      0.3250000              1.0000000
F    1   1.00
      0.5500000              1.0000000
****
Cl     0
S    6   1.00
  25180.1000000              0.0018330
   3780.3500000              0.0140340
    860.4740000              0.0690970
    242.1450000              0.2374520
     77.3349000              0.4830340
     26.2470000              0.3398560
SP   6   1.00
    491.7650000             -0.0022974              0.0039894
    116.9840000             -0.0307140              0.0303180
     37.4153000             -0.1125280              0.1298800
     13.7834000              0.0450160              0.3279510
      5.4521500              0.5893530              0.4535270
      2.2258800              0.4652060              0.2521540
SP   3   1.00
      3.1864900             -0.2518300             -0.0142990
      1.1442700              0.0615890              0.3235720
      0.4203770              1.0601800              0.7435070
SP   1   1.00
      0.1426570              1.0000000              1.0000000
D    1   1.00
      1.5000000              1.0000000
D    1   1.00
      0.3750000              1.0000000
F    1   1.00
      0.7000000              1.0000000
****
}

set {
reference uhf
freeze_core true
e_convergence 10
d_convergence 10
dft_spherical_points 1202
dft_radial_points 99
}

e = energy('b3lyp')

print_out('Grab this energy {0}'.format(e))
--------------------------------------------------------------------------

    Molecular point group: c1

    Geometry (in Bohr), charge = 0, multiplicity = 2:

       Center              X                  Y                   Z               Mass
    ------------   -----------------  -----------------  -----------------  -----------------
         C           -0.323340703467    -0.000264494522    -0.000000113863    12.000000000000
         C            0.060450509133    -1.399568500022    -2.427056667663    12.000000000000
         C            0.062396054633     2.801896750478     0.001600542337    12.000000000000
         C            0.060453325733    -1.402340779822     2.425455827337    12.000000000000
         H            2.088998102033    -1.644414829522    -2.846835598563     1.007825032230
         H           -0.767593501467    -0.389620473422    -4.025104609263     1.007825032230
         H           -0.765289382867    -3.290224703922    -2.349364927963     1.007825032230
         H            2.082674286133     3.288819488778    -0.000615087663     1.007825032230
         H           -0.763934367067     3.680503372978     1.679325827837     1.007825032230
         H           -0.763535798767     3.680368990278    -1.679931547363     1.007825032230
         H            2.089000499433    -1.643334322322     2.847458235037     1.007825032230
         H           -0.765678017467    -3.289766676522     2.349777760737     1.007825032230
         H           -0.767199839567    -0.389032370322     4.025294851037     1.007825032230

  Charge       = 0
  Multiplicity = 2
  Basis Set: ANONYMOUSB868560F
    Blend: 6-31G_2DFP_
  Basis Set: (ANONYMOUSB868560F AUX)
    Blend: DEF2-UNIVERSAL-JKFIT

    Orbital Energies [Eh]
    ---------------------

    Alpha Occupied:

       1A    -10.180342     2A    -10.167043     3A    -10.167025
       4A    -10.166976     5A     -0.797766     6A     -0.686189
       7A     -0.686186     8A     -0.530778     9A     -0.441127
      10A     -0.434691    11A     -0.434651    12A     -0.382622
      13A     -0.382574    14A     -0.363610    15A     -0.338031
      16A     -0.337966    17A     -0.168961

    Alpha Virtual:

      18A      0.076071    19A      0.133989    20A      0.134319
      21A      0.142566    22A      0.142687    23A      0.154880
      24A      0.178694    25A      0.178865    26A      0.203546
      27A      0.214805    28A      0.275911    29A      0.276061
      30A      0.399193    31A      0.399264    32A      0.403343
      33A      0.424012    34A      0.424182    35A      0.456592
      36A      0.495242    37A      0.495535    38A      0.512153
      39A      0.513988    40A      0.578646    41A      0.578986
      42A      0.591486    43A      0.591772    44A      0.602581
      45A      0.624751    46A      0.631768    47A      0.636159
      48A      0.636351    49A      0.663042    50A      0.663794
      51A      0.683683    52A      0.684029    53A      0.734995
      54A      0.825387    55A      0.825418    56A      0.853921
      57A      0.914809    58A      0.915241    59A      0.944124
      60A      0.944612    61A      0.961158    62A      0.961433
      63A      1.003452    64A      1.128066    65A      1.128151
      66A      1.142211    67A      1.163152    68A      1.163394
      69A      1.223324    70A      1.274342    71A      1.274619
      72A      1.279369    73A      1.324307    74A      1.324403
      75A      1.355951    76A      1.366027    77A      1.366081
      78A      1.392462    79A      1.403595    80A      1.404529
      81A      1.416588    82A      1.417631    83A      1.427905
      84A      1.491450    85A      1.499123    86A      1.542367
      87A      1.543305    88A      1.574291    89A      1.574610
      90A      1.669818    91A      1.739278    92A      1.739522
      93A      1.768361    94A      1.830594    95A      1.832196
      96A      1.971715    97A      2.018176    98A      2.018619
      99A      2.019606   100A      2.051701   101A      2.053606
     102A      2.738076   103A      2.738896   104A      2.790917
     105A      2.811432   106A      2.889911   107A      2.889965
     108A      2.894965   109A      2.929493   110A      2.929503
     111A      2.959000   112A      2.964059   113A      2.964697
     114A      3.034017   115A      3.071248   116A      3.071312
     117A      3.084362   118A      3.168552   119A      3.169013
     120A      3.180601   121A      3.284989   122A      3.285639
     123A      3.326949   124A      3.327374   125A      3.375626
     126A      3.490008   127A      3.490309   128A      3.513984
     129A      3.525350   130A      3.568289   131A      3.568489
     132A      3.575161   133A      3.665674   134A      3.667085
     135A      3.679650   136A      3.694001   137A      3.694267
     138A      3.776774   139A      3.776844   140A      3.789125
     141A      3.912123   142A      3.912329   143A      4.034438
     144A      4.110919   145A      4.111801   146A      4.147526
     147A      4.148674   148A      4.173228   149A      4.201718
     150A      4.203284   151A      4.203745   152A      4.210925
     153A      4.315135   154A      4.316832   155A      4.358977
     156A      4.424132   157A      4.424796   158A      4.443419
     159A      4.516148   160A      4.517555   161A      4.578138
     162A      4.578394   163A      4.617557   164A      4.709457
     165A      4.774142   166A      4.775051   167A      4.836902
     168A      4.962869   169A      5.002194   170A      5.003689
     171A      5.228009   172A      5.244729   173A      5.248890
     174A      5.354298   175A      5.356775   176A      5.479380

    Beta Occupied:

       1A    -10.167797     2A    -10.167784     3A    -10.167743
       4A    -10.166519     5A     -0.781091     6A     -0.683994
       7A     -0.683987     8A     -0.511749     9A     -0.431060
      10A     -0.431028    11A     -0.421820    12A     -0.376728
      13A     -0.376638    14A     -0.362594    15A     -0.333147
      16A     -0.333097

    Beta Virtual:

      17A     -0.025743    18A      0.077080    19A      0.134889
      20A      0.135200    21A      0.144462    22A      0.144533
      23A      0.163337    24A      0.182347    25A      0.182555
      26A      0.215027    27A      0.218935    28A      0.282256
      29A      0.282411    30A      0.400364    31A      0.400432
      32A      0.419790    33A      0.426824    34A      0.426994
      35A      0.468499    36A      0.497497    37A      0.497803
      38A      0.513895    39A      0.556326    40A      0.584211
      41A      0.584521    42A      0.597643    43A      0.597977
      44A      0.610001    45A      0.628121    46A      0.631939
      47A      0.639435    48A      0.639638    49A      0.666638
      50A      0.667327    51A      0.686335    52A      0.686646
      53A      0.757518    54A      0.830554    55A      0.830588
      56A      0.855275    57A      0.922794    58A      0.923199
      59A      0.945963    60A      0.953540    61A      0.966435
      62A      0.966767    63A      1.008692    64A      1.132118
      65A      1.132153    66A      1.155587    67A      1.168189
      68A      1.168507    69A      1.232296    70A      1.279928
      71A      1.280226    72A      1.285124    73A      1.329299
      74A      1.329390    75A      1.365359    76A      1.371278
      77A      1.371318    78A      1.393524    79A      1.407016
      80A      1.408041    81A      1.421621    82A      1.422700
      83A      1.428174    84A      1.492518    85A      1.509546
      86A      1.546789    87A      1.547696    88A      1.582180
      89A      1.582467    90A      1.674664    91A      1.745039
      92A      1.745290    93A      1.779134    94A      1.834443
      95A      1.836059    96A      1.972576    97A      2.024983
      98A      2.025915    99A      2.039673   100A      2.058458
     101A      2.060283   102A      2.746420   103A      2.747223
     104A      2.811802   105A      2.816095   106A      2.902569
     107A      2.902703   108A      2.924650   109A      2.931942
     110A      2.932015   111A      2.960062   112A      2.968590
     113A      2.969260   114A      3.041950   115A      3.081046
     116A      3.081315   117A      3.086200   118A      3.184185
     119A      3.184873   120A      3.188289   121A      3.289776
     122A      3.290447   123A      3.330732   124A      3.331202
     125A      3.383443   126A      3.492777   127A      3.493001
     128A      3.512358   129A      3.528388   130A      3.575000
     131A      3.581586   132A      3.581893   133A      3.670372
     134A      3.671888   135A      3.692944   136A      3.725615
     137A      3.725910   138A      3.781302   139A      3.781372
     140A      3.817667   141A      3.921916   142A      3.922168
     143A      4.045325   144A      4.117753   145A      4.118596
     146A      4.154794   147A      4.155830   148A      4.187279
     149A      4.208020   150A      4.209737   151A      4.210841
     152A      4.215402   153A      4.322575   154A      4.324270
     155A      4.362340   156A      4.432348   157A      4.433012
     158A      4.446299   159A      4.523936   160A      4.525347
     161A      4.588726   162A      4.589008   163A      4.624751
     164A      4.719801   165A      4.781094   166A      4.782005
     167A      4.839819   168A      4.967664   169A      5.006252
     170A      5.007710   171A      5.233723   172A      5.246524
     173A      5.250664   174A      5.360769   175A      5.363265
     176A      5.481701

    Final Occupation by Irrep:
              A
    DOCC [    16 ]
    SOCC [     1 ]

  @DF-UKS Final Energy:  -157.81306074483157

   => Energetics <=

    Nuclear Repulsion Energy =            125.3946359762441318
    One-Electron Energy =                -458.7489100070742438
    Two-Electron Energy =                 195.8483588298407199
    DFT Exchange-Correlation Energy =     -20.3071455438421999
    Empirical Dispersion Energy =           0.0000000000000000
    VV10 Nonlocal Energy =                  0.0000000000000000
    Total Energy =                       -157.8130607448315743

  UHF NO Occupations:
  HONO-2 :   15  A 1.9996009
  HONO-1 :   16  A 1.9989805
  HONO-0 :   17  A 1.0000000
  LUNO+0 :   18  A 0.0010195
  LUNO+1 :   19  A 0.0003991
  LUNO+2 :   20  A 0.0001975
  LUNO+3 :   21  A 0.0001975

Computation Completed

Properties will be evaluated at   0.000000,   0.000000,   0.000000 [a0]

Properties computed using the SCF density matrix

  Nuclear Dipole Moment: [e a0]
     X:     0.8272      Y:     0.0016      Z:     0.0000

  Electronic Dipole Moment: [e a0]
     X:    -0.7493      Y:    -0.0023      Z:    -0.0000

  Dipole Moment: [e a0]
     X:     0.0779      Y:    -0.0006      Z:     0.0000     Total:     0.0779

  Dipole Moment: [D]
     X:     0.1980      Y:    -0.0017      Z:     0.0000     Total:     0.1980

*** tstop() called on n083 at Fri Nov  5 12:44:30 2021
Module time:
	user time   =     466.72 seconds =       7.78 minutes
	system time =       4.38 seconds =       0.07 minutes
	total time  =        118 seconds =       1.97 minutes
Total time:
	user time   =     466.72 seconds =       7.78 minutes
	system time =       4.38 seconds =       0.07 minutes
	total time  =        118 seconds =       1.97 minutes
Grab this energy -157.81306074483157
    Psi4 stopped on: Friday, 05 November 2021 12:44PM
    Psi4 wall time for execution: 0:01:58.50

*** Psi4 exiting successfully. Buy a developer a beer!
