                               Psi4 1.4a2.dev629

  ==> Input File <==

--------------------------------------------------------------------------
import os
memory 14 GB

molecule {
 C   -0.3233424111   -0.0004739567    0.0000000000
 C    0.0604998041   -1.4005933093   -2.4253075710
 C    0.0622962017    2.8039047461   -0.0000000000
 C    0.0604998041   -1.4005933093    2.4253075710
 H    2.0852726577   -1.6412161086   -2.8459808482
 H   -0.7669407430   -0.3902123620   -4.0280465782
 H   -0.7655409136   -3.2927332073   -2.3494651078
 H    2.0901183900    3.2935193064   -0.0000000000
 H   -0.7641308339    3.6762677826    1.6765332454
 H   -0.7641308339    3.6762677826   -1.6765332454
 H    2.0852726577   -1.6412161086    2.8459808482
 H   -0.7655409136   -3.2927332073    2.3494651078
 H   -0.7669407430   -0.3902123620    4.0280465782
units bohr
0 2
}

basis {

assign 6-31g_2dfp_

[ 6-31g_2dfp_ ]

spherical

!----------------------------------------------------------------------
! Basis Set Exchange
! Version v0.8.13
! https://www.basissetexchange.org
!----------------------------------------------------------------------
!   Basis set: 6-31G(2df,p)
! Description: 6-31G(2df,p)
!        Role: orbital
!     Version: 0  (Data from the original Basis Set Exchange)
!----------------------------------------------------------------------

****
H     0
S    3   1.00
     18.7311370              0.03349460
      2.8253937              0.23472695
      0.6401217              0.81375733
S    1   1.00
      0.1612778              1.00000000
P    1   1.00
      1.5000000              1.0000000
P    1   1.00
      0.3750000              1.0000000
****
B     0
S    6   1.00
   2068.8823000              0.0018663
    310.6495700              0.0142515
     70.6830330              0.0695516
     19.8610800              0.2325729
      6.2993048              0.4670787
      2.1270270              0.3634314
SP   3   1.00
      4.7279710             -0.1303938              0.0745976
      1.1903377             -0.1307889              0.3078467
      0.3594117              1.1309444              0.7434568
SP   1   1.00
      0.1267512              1.0000000              1.0000000
D    1   1.00
      0.8020000              1.0000000
D    1   1.00
      0.2005000              1.0000000
F    1   1.00
      0.5000000              1.0000000
****
C     0
S    6   1.00
   3047.5249000              0.0018347
    457.3695100              0.0140373
    103.9486900              0.0688426
     29.2101550              0.2321844
      9.2866630              0.4679413
      3.1639270              0.3623120
SP   3   1.00
      7.8682724             -0.1193324              0.0689991
      1.8812885             -0.1608542              0.3164240
      0.5442493              1.1434564              0.7443083
SP   1   1.00
      0.1687144              1.0000000              1.0000000
D    1   1.00
      1.2520000              1.0000000
D    1   1.00
      0.3130000              1.0000000
F    1   1.00
      0.8000000              1.0000000
****
N     0
S    6   1.00
   4173.5110000              0.0018348
    627.4579000              0.0139950
    142.9021000              0.0685870
     40.2343300              0.2322410
     12.8202100              0.4690700
      4.3904370              0.3604550
SP   3   1.00
     11.6263580             -0.1149610              0.0675800
      2.7162800             -0.1691180              0.3239070
      0.7722180              1.1458520              0.7408950
SP   1   1.00
      0.2120313              1.0000000              1.0000000
D    1   1.00
      1.8260000              1.0000000
D    1   1.00
      0.4565000              1.0000000
F    1   1.00
      1.0000000              1.0000000
****
O     0
S    6   1.00
   5484.6717000              0.0018311
    825.2349500              0.0139501
    188.0469600              0.0684451
     52.9645000              0.2327143
     16.8975700              0.4701930
      5.7996353              0.3585209
SP   3   1.00
     15.5396160             -0.1107775              0.0708743
      3.5999336             -0.1480263              0.3397528
      1.0137618              1.1307670              0.7271586
SP   1   1.00
      0.2700058              1.0000000              1.0000000
D    1   1.00
      2.5840000              1.0000000
D    1   1.00
      0.6460000              1.0000000
F    1   1.00
      1.4000000              1.0000000
****
F     0
S    6   1.00
   7001.7130900              0.0018196169
   1051.3660900              0.0139160796
    239.2856900              0.0684053245
     67.3974453              0.233185760
     21.5199573              0.471267439
      7.40310130             0.356618546
SP   3   1.00
     20.8479528             -0.108506975            0.0716287243
      4.80830834            -0.146451658            0.3459121030
      1.34406986             1.128688580            0.7224699570
SP   1   1.00
      0.358151393            1.0000000              1.0000000
D    1   1.00
      3.5000000              1.0000000
D    1   1.00
      0.8750000              1.0000000
F    1   1.00
      1.8500000              1.0000000
****
Al     0
S    6   1.00
  13983.1000000              0.00194267
   2098.7500000              0.0148599
    477.7050000              0.0728494
    134.3600000              0.2468300
     42.8709000              0.4872580
     14.5189000              0.3234960
SP   6   1.00
    239.6680000             -0.00292619             0.00460285
     57.4419000             -0.0374080              0.0331990
     18.2859000             -0.1144870              0.1362820
      6.5991400              0.1156350              0.3304760
      2.4904900              0.6125950              0.4491460
      0.9445400              0.3937990              0.2657040
SP   3   1.00
      1.2779000             -0.2276060             -0.0175130
      0.3975900              0.00144583             0.2445330
      0.1600950              1.0927900              0.8049340
SP   1   1.00
      0.0556577              1.0000000              1.0000000
D    1   1.00
      0.6500000              1.0000000
D    1   1.00
      0.1625000              1.0000000
F    1   1.00
      0.2500000              1.0000000
****
Si     0
S    6   1.00
  16115.9000000              0.00195948
   2425.5800000              0.01492880
    553.8670000              0.07284780
    156.3400000              0.24613000
     50.0683000              0.48591400
     17.0178000              0.32500200
SP   6   1.00
    292.7180000             -0.00278094             0.00443826
     69.8731000             -0.03571460             0.03266790
     22.3363000             -0.11498500             0.13472100
      8.1503900              0.09356340             0.32867800
      3.1345800              0.60301700             0.44964000
      1.2254300              0.41895900             0.26137200
SP   3   1.00
      1.7273800             -0.24463000            -0.01779510
      0.5729220              0.00431572             0.25353900
      0.2221920              1.09818000             0.80066900
SP   1   1.00
      0.0778369              1.00000000             1.00000000
D    1   1.00
      0.9000000              1.0000000
D    1   1.00
      0.2250000              1.0000000
F    1   1.00
      0.3200000              1.0000000
****
P     0
S    6   1.00
  19413.3000000              0.0018516
   2909.4200000              0.0142062
    661.3640000              0.0699995
    185.7590000              0.2400790
     59.1943000              0.4847620
     20.0310000              0.3352000
SP   6   1.00
    339.4780000             -0.00278217             0.00456462
     81.0101000             -0.0360499              0.03369360
     25.8780000             -0.1166310              0.13975500
      9.4522100              0.0968328              0.33936200
      3.6656600              0.6144180              0.45092100
      1.4674600              0.4037980              0.23858600
SP   3   1.00
      2.1562300             -0.2529230             -0.01776530
      0.7489970              0.0328517              0.27405800
      0.2831450              1.0812500              0.78542100
SP   1   1.00
      0.0998317              1.0000000              1.00000000
D    1   1.00
      1.1000000              1.0000000
D    1   1.00
      0.2750000              1.0000000
F    1   1.00
      0.4500000              1.0000000
****
S     0
S    6   1.00
  21917.1000000              0.0018690
   3301.4900000              0.0142300
    754.1460000              0.0696960
    212.7110000              0.2384870
     67.9896000              0.4833070
     23.0515000              0.3380740
SP   6   1.00
    423.7350000             -0.0023767              0.0040610
    100.7100000             -0.0316930              0.0306810
     32.1599000             -0.1133170              0.1304520
     11.8079000              0.0560900              0.3272050
      4.6311000              0.5922550              0.4528510
      1.8702500              0.4550060              0.2560420
SP   3   1.00
      2.6158400             -0.2503740             -0.0145110
      0.9221670              0.0669570              0.3102630
      0.3412870              1.0545100              0.7544830
SP   1   1.00
      0.1171670              1.0000000              1.0000000
D    1   1.00
      1.3000000              1.0000000
D    1   1.00
      0.3250000              1.0000000
F    1   1.00
      0.5500000              1.0000000
****
Cl     0
S    6   1.00
  25180.1000000              0.0018330
   3780.3500000              0.0140340
    860.4740000              0.0690970
    242.1450000              0.2374520
     77.3349000              0.4830340
     26.2470000              0.3398560
SP   6   1.00
    491.7650000             -0.0022974              0.0039894
    116.9840000             -0.0307140              0.0303180
     37.4153000             -0.1125280              0.1298800
     13.7834000              0.0450160              0.3279510
      5.4521500              0.5893530              0.4535270
      2.2258800              0.4652060              0.2521540
SP   3   1.00
      3.1864900             -0.2518300             -0.0142990
      1.1442700              0.0615890              0.3235720
      0.4203770              1.0601800              0.7435070
SP   1   1.00
      0.1426570              1.0000000              1.0000000
D    1   1.00
      1.5000000              1.0000000
D    1   1.00
      0.3750000              1.0000000
F    1   1.00
      0.7000000              1.0000000
****
}

set {
reference uhf
freeze_core true
e_convergence 10
d_convergence 10
dft_spherical_points 1202
dft_radial_points 99
}

e = energy('b3lyp')

print_out('Grab this energy {0}'.format(e))
--------------------------------------------------------------------------

    Molecular point group: cs

    Geometry (in Bohr), charge = 0, multiplicity = 2:

       Center              X                  Y                   Z               Mass
    ------------   -----------------  -----------------  -----------------  -----------------
         C           -0.323341136740    -0.000905770802     0.000000000000    12.000000000000
         C            0.060501078460    -1.401025123402    -2.425307571000    12.000000000000
         C            0.062297476060     2.803472931998     0.000000000000    12.000000000000
         C            0.060501078460    -1.401025123402     2.425307571000    12.000000000000
         H            2.085273932060    -1.641647922702    -2.845980848200     1.007825032230
         H           -0.766939468640    -0.390644176102    -4.028046578200     1.007825032230
         H           -0.765539639240    -3.293165021402    -2.349465107800     1.007825032230
         H            2.090119664360     3.293087492298     0.000000000000     1.007825032230
         H           -0.764129559540     3.675835968498     1.676533245400     1.007825032230
         H           -0.764129559540     3.675835968498    -1.676533245400     1.007825032230
         H            2.085273932060    -1.641647922702     2.845980848200     1.007825032230
         H           -0.765539639240    -3.293165021402     2.349465107800     1.007825032230
         H           -0.766939468640    -0.390644176102     4.028046578200     1.007825032230

  Charge       = 0
  Multiplicity = 2
  Basis Set: ANONYMOUSD96D6623
    Blend: 6-31G_2DFP_
  Basis Set: (ANONYMOUSD96D6623 AUX)
    Blend: DEF2-UNIVERSAL-JKFIT

    Orbital Energies [Eh]
    ---------------------

    Alpha Occupied:

       1Ap   -10.180342     1App  -10.167068     2Ap   -10.167042
       3Ap   -10.166935     4Ap    -0.797767     2App   -0.686193
       5Ap    -0.686181     6Ap    -0.530776     7Ap    -0.441125
       3App   -0.434842     8Ap    -0.434502     4App   -0.382732
       9Ap    -0.382464     5App   -0.363612     6App   -0.338358
      10Ap    -0.337638    11Ap    -0.168961

    Alpha Virtual:

      12Ap     0.076073    13Ap     0.134122     7App    0.134185
      14Ap     0.142358     8App    0.142898    15Ap     0.154880
      16Ap     0.178720     9App    0.178832    17Ap     0.203548
      10App    0.214802    18Ap     0.275742    11App    0.276230
      12App    0.399116    19Ap     0.399339    20Ap     0.403347
      13App    0.424040    21Ap     0.424156    22Ap     0.456592
      23Ap     0.495375    14App    0.495401    15App    0.512161
      24Ap     0.513984    16App    0.578731    25Ap     0.578899
      26Ap     0.591417    17App    0.591830    27Ap     0.602595
      28Ap     0.624763    18App    0.631730    29Ap     0.635867
      19App    0.636678    30Ap     0.663392    20App    0.663433
      21App    0.683719    31Ap     0.683985    32Ap     0.734993
      33Ap     0.825403    22App    0.825410    23App    0.853915
      34Ap     0.914692    24App    0.915356    25App    0.944109
      35Ap     0.944615    36Ap     0.961256    26App    0.961351
      37Ap     1.003448    27App    1.127788    38Ap     1.128420
      39Ap     1.142226    40Ap     1.163137    28App    1.163401
      41Ap     1.223327    42Ap     1.274298    29App    1.274693
      43Ap     1.279351    44Ap     1.324222    30App    1.324487
      45Ap     1.355964    46Ap     1.365926    31App    1.366200
      32App    1.392446    47Ap     1.403745    33App    1.404377
      48Ap     1.416612    34App    1.417581    35App    1.427911
      36App    1.491499    49Ap     1.499059    50Ap     1.542791
      37App    1.542889    51Ap     1.573762    38App    1.575138
      52Ap     1.669827    39App    1.739386    53Ap     1.739435
      54Ap     1.768334    40App    1.830464    55Ap     1.832350
      41App    1.971728    56Ap     2.018130    57Ap     2.018610
      42App    2.019667    58Ap     2.051496    43App    2.053782
      44App    2.738374    59Ap     2.738596    60Ap     2.790924
      45App    2.811432    46App    2.889877    61Ap     2.890030
      62Ap     2.894952    63Ap     2.929124    47App    2.929866
      48App    2.958978    49App    2.964300    64Ap     2.964469
      65Ap     3.034007    66Ap     3.070785    50App    3.071782
      51App    3.084358    52App    3.168749    67Ap     3.168799
      68Ap     3.180599    53App    3.285208    69Ap     3.285416
      54App    3.326473    70Ap     3.327850    71Ap     3.375615
      72Ap     3.488771    55App    3.491545    56App    3.514007
      73Ap     3.525333    57App    3.568268    74Ap     3.568399
      58App    3.575257    59App    3.666166    75Ap     3.666500
      76Ap     3.679756    77Ap     3.693555    60App    3.694646
      78Ap     3.776671    61App    3.776915    79Ap     3.789188
      80Ap     3.911605    62App    3.912856    81Ap     4.034449
      82Ap     4.111080    63App    4.111655    83Ap     4.147789
      64App    4.148451    84Ap     4.173255    85Ap     4.201842
      65App    4.203088    86Ap     4.203866    66App    4.210864
      87Ap     4.315037    67App    4.316855    68App    4.359008
      88Ap     4.423432    69App    4.425385    70App    4.443491
      89Ap     4.515505    71App    4.518167    90Ap     4.578264
      72App    4.578278    91Ap     4.617599    92Ap     4.709390
      93Ap     4.774352    73App    4.774804    74App    4.836954
      94Ap     4.962855    75App    5.002786    95Ap     5.003146
      96Ap     5.228062    97Ap     5.246068    76App    5.247563
      98Ap     5.355496    77App    5.355528    78App    5.479338

    Beta Occupied:

       1App  -10.167821     1Ap   -10.167805     2Ap   -10.167699
       3Ap   -10.166519     4Ap    -0.781092     5Ap    -0.683995
       2App   -0.683985     6Ap    -0.511747     3App   -0.431225
       7Ap    -0.430861     8Ap    -0.421822     4App   -0.376804
       9Ap    -0.376562     5App   -0.362596     6App   -0.333471
      10Ap    -0.332771

    Beta Virtual:

      11Ap    -0.025743    12Ap     0.077082    13Ap     0.134998
       7App    0.135088    14Ap     0.144269     8App    0.144731
      15Ap     0.163339    16Ap     0.182376     9App    0.182520
      10App    0.215032    17Ap     0.218929    18Ap     0.282094
      11App    0.282574    12App    0.400286    19Ap     0.400509
      20Ap     0.419793    13App    0.426851    21Ap     0.426968
      22Ap     0.468499    23Ap     0.497635    14App    0.497666
      15App    0.513896    24Ap     0.556325    16App    0.584281
      25Ap     0.584449    26Ap     0.597595    17App    0.598015
      27Ap     0.610015    28Ap     0.628138    18App    0.631905
      29Ap     0.639161    19App    0.639936    30Ap     0.666959
      20App    0.666994    21App    0.686382    31Ap     0.686592
      32Ap     0.757516    22App    0.830571    33Ap     0.830579
      23App    0.855269    34Ap     0.922688    24App    0.923303
      25App    0.945947    35Ap     0.953541    36Ap     0.966572
      26App    0.966645    37Ap     1.008689    27App    1.131855
      38Ap     1.132414    39Ap     1.155597    40Ap     1.168227
      28App    1.168459    41Ap     1.232299    42Ap     1.279879
      29App    1.280307    43Ap     1.285105    44Ap     1.329219
      30App    1.329468    45Ap     1.365361    46Ap     1.371235
      31App    1.371398    32App    1.393503    47Ap     1.407153
      33App    1.407898    48Ap     1.421685    34App    1.422607
      35App    1.428181    36App    1.492547    49Ap     1.509500
      37App    1.547208    50Ap     1.547295    51Ap     1.581538
      38App    1.583101    52Ap     1.674674    39App    1.745140
      53Ap     1.745205    54Ap     1.779113    40App    1.834334
      55Ap     1.836191    41App    1.972588    56Ap     2.024844
      42App    2.026058    57Ap     2.039686    58Ap     2.058197
      43App    2.060509    44App    2.746744    59Ap     2.746897
      45App    2.811844    60Ap     2.816059    46App    2.902518
      61Ap     2.902773    62Ap     2.924655    63Ap     2.931631
      47App    2.932319    48App    2.960048    49App    2.968850
      64Ap     2.968998    65Ap     3.041942    66Ap     3.080645
      50App    3.081732    51App    3.086184    67Ap     3.184498
      52App    3.184514    68Ap     3.188318    53App    3.289942
      69Ap     3.290279    54App    3.330279    70Ap     3.331652
      71Ap     3.383434    72Ap     3.491502    55App    3.494274
      56App    3.512375    73Ap     3.528379    57App    3.574923
      74Ap     3.581506    58App    3.582029    59App    3.670864
      75Ap     3.671327    76Ap     3.693011    77Ap     3.725456
      60App    3.726032    78Ap     3.781136    61App    3.781511
      79Ap     3.817717    80Ap     3.921478    62App    3.922617
      81Ap     4.045337    82Ap     4.117823    63App    4.118543
      83Ap     4.155009    64App    4.155645    84Ap     4.187317
      85Ap     4.208501    65App    4.209029    86Ap     4.211101
      66App    4.215341    87Ap     4.322478    67App    4.324295
      68App    4.362369    88Ap     4.431669    69App    4.433541
      70App    4.446417    89Ap     4.523310    71App    4.525940
      90Ap     4.588863    72App    4.588879    91Ap     4.624794
      92Ap     4.719730    93Ap     4.781260    73App    4.781803
      74App    4.839875    94Ap     4.967650    75App    5.006824
      95Ap     5.007186    96Ap     5.233777    97Ap     5.247861
      76App    5.249338    98Ap     5.361948    77App    5.362037
      78App    5.481659

    Final Occupation by Irrep:
             Ap   App
    DOCC [    10,    6 ]
    SOCC [     1,    0 ]

  @DF-UKS Final Energy:  -157.81306446072827

   => Energetics <=

    Nuclear Repulsion Energy =            125.3946027014470559
    One-Electron Energy =                -458.7488533222470437
    Two-Electron Energy =                 195.8483299571242640
    DFT Exchange-Correlation Energy =     -20.3071437970525537
    Empirical Dispersion Energy =           0.0000000000000000
    VV10 Nonlocal Energy =                  0.0000000000000000
    Total Energy =                       -157.8130644607282704

  UHF NO Occupations:
  HONO-2 :    9 Ap 1.9996009
  HONO-1 :   10 Ap 1.9989805
  HONO-0 :   11 Ap 1.0000000
  LUNO+0 :   12 Ap 0.0010195
  LUNO+1 :   13 Ap 0.0003991
  LUNO+2 :   14 Ap 0.0001981
  LUNO+3 :    7App 0.0001970

Computation Completed

Properties will be evaluated at   0.000000,   0.000000,   0.000000 [a0]

Properties computed using the SCF density matrix

  Nuclear Dipole Moment: [e a0]
     X:     0.8272      Y:    -0.0031      Z:     0.0000

  Electronic Dipole Moment: [e a0]
     X:    -0.7493      Y:     0.0024      Z:     0.0000

  Dipole Moment: [e a0]
     X:     0.0779      Y:    -0.0007      Z:     0.0000     Total:     0.0779

  Dipole Moment: [D]
     X:     0.1980      Y:    -0.0018      Z:     0.0000     Total:     0.1980

*** tstop() called on n091 at Fri Nov  5 13:00:52 2021
Module time:
	user time   =     494.59 seconds =       8.24 minutes
	system time =       4.43 seconds =       0.07 minutes
	total time  =        125 seconds =       2.08 minutes
Total time:
	user time   =     494.59 seconds =       8.24 minutes
	system time =       4.43 seconds =       0.07 minutes
	total time  =        125 seconds =       2.08 minutes
Grab this energy -157.81306446072827
    Psi4 stopped on: Friday, 05 November 2021 01:00PM
    Psi4 wall time for execution: 0:02:05.49

*** Psi4 exiting successfully. Buy a developer a beer!
