                               Psi4 1.4a2.dev629

  ==> Input File <==

--------------------------------------------------------------------------
import os
memory 14 GB

molecule {
 C   -0.3233379494   -0.0002500479   -0.0053450315
 C    0.0604567999   -1.4003419434   -2.4268198562
 C    0.0621323092    2.8016310848   -0.0011075289
 C    0.0607125187   -1.4012489877    2.4261802706
 H    2.0855184146   -1.6413558276   -2.8449086806
 H   -0.7674297706   -0.3894999473   -4.0267610775
 H   -0.7650888803   -3.2931611784   -2.3484873969
 H    2.0900330659    3.2942010192    0.0010088219
 H   -0.7631692592    3.6777777338    1.6771157846
 H   -0.7648368213    3.6760622275   -1.6756543708
 H    2.0851071201   -1.6410121737    2.8463058742
 H   -0.7660206777   -3.2922293876    2.3496970668
 H   -0.7666847467   -0.3905968853    4.0287761243
units bohr
0 2
}

basis {

assign 6-31g_2dfp_

[ 6-31g_2dfp_ ]

spherical

!----------------------------------------------------------------------
! Basis Set Exchange
! Version v0.8.13
! https://www.basissetexchange.org
!----------------------------------------------------------------------
!   Basis set: 6-31G(2df,p)
! Description: 6-31G(2df,p)
!        Role: orbital
!     Version: 0  (Data from the original Basis Set Exchange)
!----------------------------------------------------------------------

****
H     0
S    3   1.00
     18.7311370              0.03349460
      2.8253937              0.23472695
      0.6401217              0.81375733
S    1   1.00
      0.1612778              1.00000000
P    1   1.00
      1.5000000              1.0000000
P    1   1.00
      0.3750000              1.0000000
****
B     0
S    6   1.00
   2068.8823000              0.0018663
    310.6495700              0.0142515
     70.6830330              0.0695516
     19.8610800              0.2325729
      6.2993048              0.4670787
      2.1270270              0.3634314
SP   3   1.00
      4.7279710             -0.1303938              0.0745976
      1.1903377             -0.1307889              0.3078467
      0.3594117              1.1309444              0.7434568
SP   1   1.00
      0.1267512              1.0000000              1.0000000
D    1   1.00
      0.8020000              1.0000000
D    1   1.00
      0.2005000              1.0000000
F    1   1.00
      0.5000000              1.0000000
****
C     0
S    6   1.00
   3047.5249000              0.0018347
    457.3695100              0.0140373
    103.9486900              0.0688426
     29.2101550              0.2321844
      9.2866630              0.4679413
      3.1639270              0.3623120
SP   3   1.00
      7.8682724             -0.1193324              0.0689991
      1.8812885             -0.1608542              0.3164240
      0.5442493              1.1434564              0.7443083
SP   1   1.00
      0.1687144              1.0000000              1.0000000
D    1   1.00
      1.2520000              1.0000000
D    1   1.00
      0.3130000              1.0000000
F    1   1.00
      0.8000000              1.0000000
****
N     0
S    6   1.00
   4173.5110000              0.0018348
    627.4579000              0.0139950
    142.9021000              0.0685870
     40.2343300              0.2322410
     12.8202100              0.4690700
      4.3904370              0.3604550
SP   3   1.00
     11.6263580             -0.1149610              0.0675800
      2.7162800             -0.1691180              0.3239070
      0.7722180              1.1458520              0.7408950
SP   1   1.00
      0.2120313              1.0000000              1.0000000
D    1   1.00
      1.8260000              1.0000000
D    1   1.00
      0.4565000              1.0000000
F    1   1.00
      1.0000000              1.0000000
****
O     0
S    6   1.00
   5484.6717000              0.0018311
    825.2349500              0.0139501
    188.0469600              0.0684451
     52.9645000              0.2327143
     16.8975700              0.4701930
      5.7996353              0.3585209
SP   3   1.00
     15.5396160             -0.1107775              0.0708743
      3.5999336             -0.1480263              0.3397528
      1.0137618              1.1307670              0.7271586
SP   1   1.00
      0.2700058              1.0000000              1.0000000
D    1   1.00
      2.5840000              1.0000000
D    1   1.00
      0.6460000              1.0000000
F    1   1.00
      1.4000000              1.0000000
****
F     0
S    6   1.00
   7001.7130900              0.0018196169
   1051.3660900              0.0139160796
    239.2856900              0.0684053245
     67.3974453              0.233185760
     21.5199573              0.471267439
      7.40310130             0.356618546
SP   3   1.00
     20.8479528             -0.108506975            0.0716287243
      4.80830834            -0.146451658            0.3459121030
      1.34406986             1.128688580            0.7224699570
SP   1   1.00
      0.358151393            1.0000000              1.0000000
D    1   1.00
      3.5000000              1.0000000
D    1   1.00
      0.8750000              1.0000000
F    1   1.00
      1.8500000              1.0000000
****
Al     0
S    6   1.00
  13983.1000000              0.00194267
   2098.7500000              0.0148599
    477.7050000              0.0728494
    134.3600000              0.2468300
     42.8709000              0.4872580
     14.5189000              0.3234960
SP   6   1.00
    239.6680000             -0.00292619             0.00460285
     57.4419000             -0.0374080              0.0331990
     18.2859000             -0.1144870              0.1362820
      6.5991400              0.1156350              0.3304760
      2.4904900              0.6125950              0.4491460
      0.9445400              0.3937990              0.2657040
SP   3   1.00
      1.2779000             -0.2276060             -0.0175130
      0.3975900              0.00144583             0.2445330
      0.1600950              1.0927900              0.8049340
SP   1   1.00
      0.0556577              1.0000000              1.0000000
D    1   1.00
      0.6500000              1.0000000
D    1   1.00
      0.1625000              1.0000000
F    1   1.00
      0.2500000              1.0000000
****
Si     0
S    6   1.00
  16115.9000000              0.00195948
   2425.5800000              0.01492880
    553.8670000              0.07284780
    156.3400000              0.24613000
     50.0683000              0.48591400
     17.0178000              0.32500200
SP   6   1.00
    292.7180000             -0.00278094             0.00443826
     69.8731000             -0.03571460             0.03266790
     22.3363000             -0.11498500             0.13472100
      8.1503900              0.09356340             0.32867800
      3.1345800              0.60301700             0.44964000
      1.2254300              0.41895900             0.26137200
SP   3   1.00
      1.7273800             -0.24463000            -0.01779510
      0.5729220              0.00431572             0.25353900
      0.2221920              1.09818000             0.80066900
SP   1   1.00
      0.0778369              1.00000000             1.00000000
D    1   1.00
      0.9000000              1.0000000
D    1   1.00
      0.2250000              1.0000000
F    1   1.00
      0.3200000              1.0000000
****
P     0
S    6   1.00
  19413.3000000              0.0018516
   2909.4200000              0.0142062
    661.3640000              0.0699995
    185.7590000              0.2400790
     59.1943000              0.4847620
     20.0310000              0.3352000
SP   6   1.00
    339.4780000             -0.00278217             0.00456462
     81.0101000             -0.0360499              0.03369360
     25.8780000             -0.1166310              0.13975500
      9.4522100              0.0968328              0.33936200
      3.6656600              0.6144180              0.45092100
      1.4674600              0.4037980              0.23858600
SP   3   1.00
      2.1562300             -0.2529230             -0.01776530
      0.7489970              0.0328517              0.27405800
      0.2831450              1.0812500              0.78542100
SP   1   1.00
      0.0998317              1.0000000              1.00000000
D    1   1.00
      1.1000000              1.0000000
D    1   1.00
      0.2750000              1.0000000
F    1   1.00
      0.4500000              1.0000000
****
S     0
S    6   1.00
  21917.1000000              0.0018690
   3301.4900000              0.0142300
    754.1460000              0.0696960
    212.7110000              0.2384870
     67.9896000              0.4833070
     23.0515000              0.3380740
SP   6   1.00
    423.7350000             -0.0023767              0.0040610
    100.7100000             -0.0316930              0.0306810
     32.1599000             -0.1133170              0.1304520
     11.8079000              0.0560900              0.3272050
      4.6311000              0.5922550              0.4528510
      1.8702500              0.4550060              0.2560420
SP   3   1.00
      2.6158400             -0.2503740             -0.0145110
      0.9221670              0.0669570              0.3102630
      0.3412870              1.0545100              0.7544830
SP   1   1.00
      0.1171670              1.0000000              1.0000000
D    1   1.00
      1.3000000              1.0000000
D    1   1.00
      0.3250000              1.0000000
F    1   1.00
      0.5500000              1.0000000
****
Cl     0
S    6   1.00
  25180.1000000              0.0018330
   3780.3500000              0.0140340
    860.4740000              0.0690970
    242.1450000              0.2374520
     77.3349000              0.4830340
     26.2470000              0.3398560
SP   6   1.00
    491.7650000             -0.0022974              0.0039894
    116.9840000             -0.0307140              0.0303180
     37.4153000             -0.1125280              0.1298800
     13.7834000              0.0450160              0.3279510
      5.4521500              0.5893530              0.4535270
      2.2258800              0.4652060              0.2521540
SP   3   1.00
      3.1864900             -0.2518300             -0.0142990
      1.1442700              0.0615890              0.3235720
      0.4203770              1.0601800              0.7435070
SP   1   1.00
      0.1426570              1.0000000              1.0000000
D    1   1.00
      1.5000000              1.0000000
D    1   1.00
      0.3750000              1.0000000
F    1   1.00
      0.7000000              1.0000000
****
}

set {
reference uhf
freeze_core true
e_convergence 10
d_convergence 10
dft_spherical_points 1202
dft_radial_points 99
}

e = energy('b3lyp')

print_out('Grab this energy {0}'.format(e))
--------------------------------------------------------------------------

    Molecular point group: c1

    Geometry (in Bohr), charge = 0, multiplicity = 2:

       Center              X                  Y                   Z               Mass
    ------------   -----------------  -----------------  -----------------  -----------------
         C           -0.323338654965    -0.000209191404    -0.003979033098    12.000000000000
         C            0.060456094335    -1.400301086904    -2.425453857798    12.000000000000
         C            0.062131603635     2.801671941296     0.000258469502    12.000000000000
         C            0.060711813135    -1.401208131204     2.427546269002    12.000000000000
         H            2.085517709035    -1.641314971104    -2.843542682198     1.007825032230
         H           -0.767430476165    -0.389459090804    -4.025395079098     1.007825032230
         H           -0.765089585865    -3.293120321904    -2.347121398498     1.007825032230
         H            2.090032360335     3.294241875696     0.002374820302     1.007825032230
         H           -0.763169964765     3.677818590296     1.678481783002     1.007825032230
         H           -0.764837526865     3.676103083996    -1.674288372398     1.007825032230
         H            2.085106414535    -1.640971317204     2.847671872602     1.007825032230
         H           -0.766021383265    -3.292188531104     2.351063065202     1.007825032230
         H           -0.766685452265    -0.390556028804     4.030142122702     1.007825032230

  Charge       = 0
  Multiplicity = 2
  Basis Set: ANONYMOUS669C6A43
    Blend: 6-31G_2DFP_
  Basis Set: (ANONYMOUS669C6A43 AUX)
    Blend: DEF2-UNIVERSAL-JKFIT

    Orbital Energies [Eh]
    ---------------------

    Alpha Occupied:

       1A    -10.180342     2A    -10.167066     3A    -10.167010
       4A    -10.166969     5A     -0.797770     6A     -0.686378
       7A     -0.685996     8A     -0.530775     9A     -0.441132
      10A     -0.434899    11A     -0.434439    12A     -0.382851
      13A     -0.382348    14A     -0.363608    15A     -0.338540
      16A     -0.337456    17A     -0.168960

    Alpha Virtual:

      18A      0.076072    19A      0.134103    20A      0.134206
      21A      0.142356    22A      0.142897    23A      0.154880
      24A      0.178638    25A      0.178915    26A      0.203547
      27A      0.214802    28A      0.275695    29A      0.276274
      30A      0.399053    31A      0.399403    32A      0.403345
      33A      0.423995    34A      0.424201    35A      0.456594
      36A      0.495339    37A      0.495438    38A      0.512161
      39A      0.513980    40A      0.578578    41A      0.579038
      42A      0.591365    43A      0.591901    44A      0.602604
      45A      0.624752    46A      0.631749    47A      0.635983
      48A      0.636552    49A      0.663336    50A      0.663492
      51A      0.683728    52A      0.683976    53A      0.734993
      54A      0.825284    55A      0.825528    56A      0.853916
      57A      0.914685    58A      0.915355    59A      0.944110
      60A      0.944619    61A      0.961109    62A      0.961498
      63A      1.003452    64A      1.127600    65A      1.128578
      66A      1.142245    67A      1.162858    68A      1.163691
      69A      1.223329    70A      1.274007    71A      1.274963
      72A      1.279365    73A      1.324239    74A      1.324468
      75A      1.355977    76A      1.365789    77A      1.366336
      78A      1.392437    79A      1.403546    80A      1.404536
      81A      1.416655    82A      1.417555    83A      1.427940
      84A      1.491498    85A      1.499062    86A      1.542817
      87A      1.542862    88A      1.573963    89A      1.574945
      90A      1.669827    91A      1.739186    92A      1.739645
      93A      1.768325    94A      1.830890    95A      1.831902
      96A      1.971725    97A      2.018270    98A      2.018505
      99A      2.019631   100A      2.051945   101A      2.053351
     102A      2.738250   103A      2.738727   104A      2.790928
     105A      2.811426   106A      2.889358   107A      2.890511
     108A      2.894974   109A      2.928997   110A      2.929993
     111A      2.958986   112A      2.964146   113A      2.964622
     114A      3.033995   115A      3.070479   116A      3.072105
     117A      3.084350   118A      3.168496   119A      3.169020
     120A      3.180649   121A      3.284990   122A      3.285635
     123A      3.326206   124A      3.328116   125A      3.375605
     126A      3.488964   127A      3.491327   128A      3.514016
     129A      3.525343   130A      3.568061   131A      3.568570
     132A      3.575295   133A      3.665802   134A      3.666937
     135A      3.679669   136A      3.693468   137A      3.694747
     138A      3.776025   139A      3.777546   140A      3.789221
     141A      3.911754   142A      3.912709   143A      4.034429
     144A      4.111016   145A      4.111708   146A      4.147116
     147A      4.149105   148A      4.173263   149A      4.202089
     150A      4.202644   151A      4.204069   152A      4.210867
     153A      4.315352   154A      4.316585   155A      4.358981
     156A      4.424343   157A      4.424573   158A      4.443422
     159A      4.516169   160A      4.517482   161A      4.577913
     162A      4.578343   163A      4.617887   164A      4.709413
     165A      4.773801   166A      4.775432   167A      4.836901
     168A      4.962827   169A      5.002377   170A      5.003585
     171A      5.228067   172A      5.246266   173A      5.247372
     174A      5.354945   175A      5.356074   176A      5.479345

    Beta Occupied:

       1A    -10.167817     2A    -10.167766     3A    -10.167740
       4A    -10.166519     5A     -0.781095     6A     -0.684168
       7A     -0.683811     8A     -0.511747     9A     -0.431277
      10A     -0.430813    11A     -0.421820    12A     -0.376926
      13A     -0.376443    14A     -0.362592    15A     -0.333669
      16A     -0.332573

    Beta Virtual:

      17A     -0.025743    18A      0.077081    19A      0.135002
      20A      0.135086    21A      0.144251    22A      0.144745
      23A      0.163339    24A      0.182305    25A      0.182592
      26A      0.215032    27A      0.218929    28A      0.282077
      29A      0.282588    30A      0.400227    31A      0.400567
      32A      0.419792    33A      0.426804    34A      0.427014
      35A      0.468501    36A      0.497597    37A      0.497703
      38A      0.513897    39A      0.556321    40A      0.584108
      41A      0.584614    42A      0.597542    43A      0.598084
      44A      0.610022    45A      0.628128    46A      0.631915
      47A      0.639263    48A      0.639836    49A      0.666900
      50A      0.667055    51A      0.686377    52A      0.686597
      53A      0.757516    54A      0.830458    55A      0.830692
      56A      0.855269    57A      0.922671    58A      0.923312
      59A      0.945948    60A      0.953545    61A      0.966413
      62A      0.966807    63A      1.008692    64A      1.131696
      65A      1.132555    66A      1.155599    67A      1.167925
      68A      1.168777    69A      1.232301    70A      1.279663
      71A      1.280504    72A      1.285117    73A      1.329234
      74A      1.329451    75A      1.365378    76A      1.371082
      77A      1.371548    78A      1.393497    79A      1.406994
      80A      1.408015    81A      1.421706    82A      1.422587
      83A      1.428226    84A      1.492547    85A      1.509503
      86A      1.547128    87A      1.547374    88A      1.581744
      89A      1.582902    90A      1.674674    91A      1.744948
      92A      1.745408    93A      1.779103    94A      1.834742
      95A      1.835761    96A      1.972585    97A      2.024890
      98A      2.026015    99A      2.039671   100A      2.058668
     101A      2.060066   102A      2.746553   103A      2.747094
     104A      2.811838   105A      2.816063   106A      2.902131
     107A      2.903140   108A      2.924649   109A      2.931449
     110A      2.932510   111A      2.960055   112A      2.968690
     113A      2.969161   114A      3.041930   115A      3.080396
     116A      3.082005   117A      3.086167   118A      3.184140
     119A      3.184772   120A      3.188436   121A      3.289809
     122A      3.290413   123A      3.330019   124A      3.331912
     125A      3.383424   126A      3.491707   127A      3.494039
     128A      3.512386   129A      3.528388   130A      3.574885
     131A      3.581529   132A      3.582054   133A      3.670607
     134A      3.671627   135A      3.692956   136A      3.725321
     137A      3.726173   138A      3.780593   139A      3.782061
     140A      3.817720   141A      3.921575   142A      3.922527
     143A      4.045317   144A      4.117886   145A      4.118473
     146A      4.154341   147A      4.156295   148A      4.187320
     149A      4.208408   150A      4.209160   151A      4.211070
     152A      4.215347   153A      4.322739   154A      4.324079
     155A      4.362343   156A      4.432543   157A      4.432797
     158A      4.446313   159A      4.523959   160A      4.525274
     161A      4.588479   162A      4.588955   163A      4.625102
     164A      4.719758   165A      4.780708   166A      4.782434
     167A      4.839818   168A      4.967619   169A      5.006436
     170A      5.007606   171A      5.233782   172A      5.248052
     173A      5.249154   174A      5.361400   175A      5.362580
     176A      5.481666

    Final Occupation by Irrep:
              A
    DOCC [    16 ]
    SOCC [     1 ]

  @DF-UKS Final Energy:  -157.81305897376649

   => Energetics <=

    Nuclear Repulsion Energy =            125.3946963339864595
    One-Electron Energy =                -458.7490245963667803
    Two-Electron Energy =                 195.8484159343213378
    DFT Exchange-Correlation Energy =     -20.3071466457075189
    Empirical Dispersion Energy =           0.0000000000000000
    VV10 Nonlocal Energy =                  0.0000000000000000
    Total Energy =                       -157.8130589737664877

  UHF NO Occupations:
  HONO-2 :   15  A 1.9996008
  HONO-1 :   16  A 1.9989805
  HONO-0 :   17  A 1.0000000
  LUNO+0 :   18  A 0.0010195
  LUNO+1 :   19  A 0.0003992
  LUNO+2 :   20  A 0.0001986
  LUNO+3 :   21  A 0.0001965

Computation Completed

Properties will be evaluated at   0.000000,   0.000000,   0.000000 [a0]

Properties computed using the SCF density matrix

  Nuclear Dipole Moment: [e a0]
     X:     0.8272      Y:     0.0003      Z:     0.0096

  Electronic Dipole Moment: [e a0]
     X:    -0.7493      Y:    -0.0010      Z:    -0.0108

  Dipole Moment: [e a0]
     X:     0.0779      Y:    -0.0008      Z:    -0.0012     Total:     0.0779

  Dipole Moment: [D]
     X:     0.1980      Y:    -0.0019      Z:    -0.0031     Total:     0.1981

*** tstop() called on n089 at Fri Nov  5 13:57:43 2021
Module time:
	user time   =     514.91 seconds =       8.58 minutes
	system time =       4.62 seconds =       0.08 minutes
	total time  =        131 seconds =       2.18 minutes
Total time:
	user time   =     514.91 seconds =       8.58 minutes
	system time =       4.62 seconds =       0.08 minutes
	total time  =        131 seconds =       2.18 minutes
Grab this energy -157.8130589737665
    Psi4 stopped on: Friday, 05 November 2021 01:57PM
    Psi4 wall time for execution: 0:02:10.70

*** Psi4 exiting successfully. Buy a developer a beer!
