                               Psi4 1.4a2.dev629

  ==> Input File <==

--------------------------------------------------------------------------
import os
memory 14 GB

molecule {
 C   -0.3233385589    0.0010186750    0.0000005492
 C    0.0607673533   -1.4014916291   -2.4262532413
 C    0.0617695320    2.8013650155    0.0009664607
 C    0.0607656908   -1.4031647581    2.4252866392
 H    2.0869773548   -1.6412946220   -2.8490008261
 H   -0.7628094591   -0.3891823204   -4.0242014031
 H   -0.7679523165   -3.2936281695   -2.3486769453
 H    2.0867175444    3.2881988603    0.0026013953
 H   -0.7634964129    3.6798213073    1.6746451574
 H   -0.7682244410    3.6808384419   -1.6781661048
 H    2.0869779453   -1.6458021236    2.8464006984
 H   -0.7632288417   -3.2900680844    2.3495546705
 H   -0.7675332672   -0.3866349065    4.0268429499
units bohr
0 2
}

basis {

assign 6-31g_2dfp_

[ 6-31g_2dfp_ ]

spherical

!----------------------------------------------------------------------
! Basis Set Exchange
! Version v0.8.13
! https://www.basissetexchange.org
!----------------------------------------------------------------------
!   Basis set: 6-31G(2df,p)
! Description: 6-31G(2df,p)
!        Role: orbital
!     Version: 0  (Data from the original Basis Set Exchange)
!----------------------------------------------------------------------

****
H     0
S    3   1.00
     18.7311370              0.03349460
      2.8253937              0.23472695
      0.6401217              0.81375733
S    1   1.00
      0.1612778              1.00000000
P    1   1.00
      1.5000000              1.0000000
P    1   1.00
      0.3750000              1.0000000
****
B     0
S    6   1.00
   2068.8823000              0.0018663
    310.6495700              0.0142515
     70.6830330              0.0695516
     19.8610800              0.2325729
      6.2993048              0.4670787
      2.1270270              0.3634314
SP   3   1.00
      4.7279710             -0.1303938              0.0745976
      1.1903377             -0.1307889              0.3078467
      0.3594117              1.1309444              0.7434568
SP   1   1.00
      0.1267512              1.0000000              1.0000000
D    1   1.00
      0.8020000              1.0000000
D    1   1.00
      0.2005000              1.0000000
F    1   1.00
      0.5000000              1.0000000
****
C     0
S    6   1.00
   3047.5249000              0.0018347
    457.3695100              0.0140373
    103.9486900              0.0688426
     29.2101550              0.2321844
      9.2866630              0.4679413
      3.1639270              0.3623120
SP   3   1.00
      7.8682724             -0.1193324              0.0689991
      1.8812885             -0.1608542              0.3164240
      0.5442493              1.1434564              0.7443083
SP   1   1.00
      0.1687144              1.0000000              1.0000000
D    1   1.00
      1.2520000              1.0000000
D    1   1.00
      0.3130000              1.0000000
F    1   1.00
      0.8000000              1.0000000
****
N     0
S    6   1.00
   4173.5110000              0.0018348
    627.4579000              0.0139950
    142.9021000              0.0685870
     40.2343300              0.2322410
     12.8202100              0.4690700
      4.3904370              0.3604550
SP   3   1.00
     11.6263580             -0.1149610              0.0675800
      2.7162800             -0.1691180              0.3239070
      0.7722180              1.1458520              0.7408950
SP   1   1.00
      0.2120313              1.0000000              1.0000000
D    1   1.00
      1.8260000              1.0000000
D    1   1.00
      0.4565000              1.0000000
F    1   1.00
      1.0000000              1.0000000
****
O     0
S    6   1.00
   5484.6717000              0.0018311
    825.2349500              0.0139501
    188.0469600              0.0684451
     52.9645000              0.2327143
     16.8975700              0.4701930
      5.7996353              0.3585209
SP   3   1.00
     15.5396160             -0.1107775              0.0708743
      3.5999336             -0.1480263              0.3397528
      1.0137618              1.1307670              0.7271586
SP   1   1.00
      0.2700058              1.0000000              1.0000000
D    1   1.00
      2.5840000              1.0000000
D    1   1.00
      0.6460000              1.0000000
F    1   1.00
      1.4000000              1.0000000
****
F     0
S    6   1.00
   7001.7130900              0.0018196169
   1051.3660900              0.0139160796
    239.2856900              0.0684053245
     67.3974453              0.233185760
     21.5199573              0.471267439
      7.40310130             0.356618546
SP   3   1.00
     20.8479528             -0.108506975            0.0716287243
      4.80830834            -0.146451658            0.3459121030
      1.34406986             1.128688580            0.7224699570
SP   1   1.00
      0.358151393            1.0000000              1.0000000
D    1   1.00
      3.5000000              1.0000000
D    1   1.00
      0.8750000              1.0000000
F    1   1.00
      1.8500000              1.0000000
****
Al     0
S    6   1.00
  13983.1000000              0.00194267
   2098.7500000              0.0148599
    477.7050000              0.0728494
    134.3600000              0.2468300
     42.8709000              0.4872580
     14.5189000              0.3234960
SP   6   1.00
    239.6680000             -0.00292619             0.00460285
     57.4419000             -0.0374080              0.0331990
     18.2859000             -0.1144870              0.1362820
      6.5991400              0.1156350              0.3304760
      2.4904900              0.6125950              0.4491460
      0.9445400              0.3937990              0.2657040
SP   3   1.00
      1.2779000             -0.2276060             -0.0175130
      0.3975900              0.00144583             0.2445330
      0.1600950              1.0927900              0.8049340
SP   1   1.00
      0.0556577              1.0000000              1.0000000
D    1   1.00
      0.6500000              1.0000000
D    1   1.00
      0.1625000              1.0000000
F    1   1.00
      0.2500000              1.0000000
****
Si     0
S    6   1.00
  16115.9000000              0.00195948
   2425.5800000              0.01492880
    553.8670000              0.07284780
    156.3400000              0.24613000
     50.0683000              0.48591400
     17.0178000              0.32500200
SP   6   1.00
    292.7180000             -0.00278094             0.00443826
     69.8731000             -0.03571460             0.03266790
     22.3363000             -0.11498500             0.13472100
      8.1503900              0.09356340             0.32867800
      3.1345800              0.60301700             0.44964000
      1.2254300              0.41895900             0.26137200
SP   3   1.00
      1.7273800             -0.24463000            -0.01779510
      0.5729220              0.00431572             0.25353900
      0.2221920              1.09818000             0.80066900
SP   1   1.00
      0.0778369              1.00000000             1.00000000
D    1   1.00
      0.9000000              1.0000000
D    1   1.00
      0.2250000              1.0000000
F    1   1.00
      0.3200000              1.0000000
****
P     0
S    6   1.00
  19413.3000000              0.0018516
   2909.4200000              0.0142062
    661.3640000              0.0699995
    185.7590000              0.2400790
     59.1943000              0.4847620
     20.0310000              0.3352000
SP   6   1.00
    339.4780000             -0.00278217             0.00456462
     81.0101000             -0.0360499              0.03369360
     25.8780000             -0.1166310              0.13975500
      9.4522100              0.0968328              0.33936200
      3.6656600              0.6144180              0.45092100
      1.4674600              0.4037980              0.23858600
SP   3   1.00
      2.1562300             -0.2529230             -0.01776530
      0.7489970              0.0328517              0.27405800
      0.2831450              1.0812500              0.78542100
SP   1   1.00
      0.0998317              1.0000000              1.00000000
D    1   1.00
      1.1000000              1.0000000
D    1   1.00
      0.2750000              1.0000000
F    1   1.00
      0.4500000              1.0000000
****
S     0
S    6   1.00
  21917.1000000              0.0018690
   3301.4900000              0.0142300
    754.1460000              0.0696960
    212.7110000              0.2384870
     67.9896000              0.4833070
     23.0515000              0.3380740
SP   6   1.00
    423.7350000             -0.0023767              0.0040610
    100.7100000             -0.0316930              0.0306810
     32.1599000             -0.1133170              0.1304520
     11.8079000              0.0560900              0.3272050
      4.6311000              0.5922550              0.4528510
      1.8702500              0.4550060              0.2560420
SP   3   1.00
      2.6158400             -0.2503740             -0.0145110
      0.9221670              0.0669570              0.3102630
      0.3412870              1.0545100              0.7544830
SP   1   1.00
      0.1171670              1.0000000              1.0000000
D    1   1.00
      1.3000000              1.0000000
D    1   1.00
      0.3250000              1.0000000
F    1   1.00
      0.5500000              1.0000000
****
Cl     0
S    6   1.00
  25180.1000000              0.0018330
   3780.3500000              0.0140340
    860.4740000              0.0690970
    242.1450000              0.2374520
     77.3349000              0.4830340
     26.2470000              0.3398560
SP   6   1.00
    491.7650000             -0.0022974              0.0039894
    116.9840000             -0.0307140              0.0303180
     37.4153000             -0.1125280              0.1298800
     13.7834000              0.0450160              0.3279510
      5.4521500              0.5893530              0.4535270
      2.2258800              0.4652060              0.2521540
SP   3   1.00
      3.1864900             -0.2518300             -0.0142990
      1.1442700              0.0615890              0.3235720
      0.4203770              1.0601800              0.7435070
SP   1   1.00
      0.1426570              1.0000000              1.0000000
D    1   1.00
      1.5000000              1.0000000
D    1   1.00
      0.3750000              1.0000000
F    1   1.00
      0.7000000              1.0000000
****
}

set {
reference uhf
freeze_core true
e_convergence 10
d_convergence 10
dft_spherical_points 1202
dft_radial_points 99
}

e = energy('b3lyp')

print_out('Grab this energy {0}'.format(e))
--------------------------------------------------------------------------

    Molecular point group: c1

    Geometry (in Bohr), charge = 0, multiplicity = 2:

       Center              X                  Y                   Z               Mass
    ------------   -----------------  -----------------  -----------------  -----------------
         C           -0.323339329723     0.001456842116     0.000000470655    12.000000000000
         C            0.060766582477    -1.401053461984    -2.426253319845    12.000000000000
         C            0.061768761177     2.801803182616     0.000966382155    12.000000000000
         C            0.060764919977    -1.402726590984     2.425286560655    12.000000000000
         H            2.086976583977    -1.640856454884    -2.849000904645     1.007825032230
         H           -0.762810229923    -0.388744153284    -4.024201481645     1.007825032230
         H           -0.767953087323    -3.293190002384    -2.348677023845     1.007825032230
         H            2.086716773577     3.288637027416     0.002601316755     1.007825032230
         H           -0.763497183723     3.680259474416     1.674645078855     1.007825032230
         H           -0.768225211823     3.681276609016    -1.678166183345     1.007825032230
         H            2.086977174477    -1.645363956484     2.846400619855     1.007825032230
         H           -0.763229612523    -3.289629917284     2.349554591955     1.007825032230
         H           -0.767534038023    -0.386196739384     4.026842871355     1.007825032230

  Charge       = 0
  Multiplicity = 2
  Basis Set: ANONYMOUSFA4FFB17
    Blend: 6-31G_2DFP_
  Basis Set: (ANONYMOUSFA4FFB17 AUX)
    Blend: DEF2-UNIVERSAL-JKFIT

    Orbital Energies [Eh]
    ---------------------

    Alpha Occupied:

       1A    -10.180342     2A    -10.167052     3A    -10.167015
       4A    -10.166977     5A     -0.797766     6A     -0.686268
       7A     -0.686108     8A     -0.530778     9A     -0.441125
      10A     -0.434681    11A     -0.434662    12A     -0.382637
      13A     -0.382562    14A     -0.363608    15A     -0.338292
      16A     -0.337705    17A     -0.168961

    Alpha Virtual:

      18A      0.076071    19A      0.134108    20A      0.134182
      21A      0.142572    22A      0.142699    23A      0.154878
      24A      0.178731    25A      0.178830    26A      0.203545
      27A      0.214805    28A      0.275859    29A      0.276112
      30A      0.399122    31A      0.399336    32A      0.403342
      33A      0.424093    34A      0.424101    35A      0.456591
      36A      0.495354    37A      0.495426    38A      0.512159
      39A      0.513980    40A      0.578779    41A      0.578855
      42A      0.591614    43A      0.591652    44A      0.602570
      45A      0.624716    46A      0.631822    47A      0.636242
      48A      0.636247    49A      0.663323    50A      0.663501
      51A      0.683851    52A      0.683877    53A      0.734994
      54A      0.825405    55A      0.825408    56A      0.853915
      57A      0.914925    58A      0.915130    59A      0.944100
      60A      0.944639    61A      0.961218    62A      0.961360
      63A      1.003456    64A      1.128090    65A      1.128137
      66A      1.142208    67A      1.163247    68A      1.163294
      69A      1.223322    70A      1.274313    71A      1.274668
      72A      1.279352    73A      1.324285    74A      1.324404
      75A      1.355986    76A      1.365820    77A      1.366287
      78A      1.392450    79A      1.403822    80A      1.404294
      81A      1.416855    82A      1.417384    83A      1.427917
      84A      1.491457    85A      1.499104    86A      1.542651
      87A      1.542997    88A      1.574134    89A      1.574774
      90A      1.669826    91A      1.739307    92A      1.739500
      93A      1.768330    94A      1.831338    95A      1.831473
      96A      1.971695    97A      2.018130    98A      2.018830
      99A      2.019478   100A      2.052047   101A      2.053246
     102A      2.738435   103A      2.738532   104A      2.790922
     105A      2.811430   106A      2.889286   107A      2.890622
     108A      2.894936   109A      2.929331   110A      2.929659
     111A      2.958992   112A      2.964085   113A      2.964689
     114A      3.033996   115A      3.071152   116A      3.071429
     117A      3.084368   118A      3.168639   119A      3.168904
     120A      3.180611   121A      3.285087   122A      3.285523
     123A      3.327120   124A      3.327221   125A      3.375618
     126A      3.490115   127A      3.490214   128A      3.514006
     129A      3.525338   130A      3.568301   131A      3.568478
     132A      3.575139   133A      3.666184   134A      3.666551
     135A      3.679705   136A      3.694099   137A      3.694145
     138A      3.776790   139A      3.776824   140A      3.789114
     141A      3.911875   142A      3.912576   143A      4.034450
     144A      4.111085   145A      4.111530   146A      4.147990
     147A      4.148355   148A      4.173122   149A      4.202560
     150A      4.203065   151A      4.203173   152A      4.211007
     153A      4.315174   154A      4.316736   155A      4.358963
     156A      4.423896   157A      4.424989   158A      4.443473
     159A      4.516654   160A      4.517031   161A      4.577983
     162A      4.578566   163A      4.617528   164A      4.709461
     165A      4.774446   166A      4.774758   167A      4.836907
     168A      4.962876   169A      5.002680   170A      5.003227
     171A      5.228018   172A      5.246498   173A      5.246991
     174A      5.355566   175A      5.355614   176A      5.479384

    Beta Occupied:

       1A    -10.167809     2A    -10.167767     3A    -10.167748
       4A    -10.166519     5A     -0.781091     6A     -0.684068
       7A     -0.683913     8A     -0.511749     9A     -0.431058
      10A     -0.431028    11A     -0.421821    12A     -0.376730
      13A     -0.376640    14A     -0.362592    15A     -0.333415
      16A     -0.332829

    Beta Virtual:

      17A     -0.025742    18A      0.077080    19A      0.134985
      20A      0.135084    21A      0.144460    22A      0.144551
      23A      0.163337    24A      0.182413    25A      0.182489
      26A      0.215028    27A      0.218935    28A      0.282221
      29A      0.282446    30A      0.400291    31A      0.400505
      32A      0.419789    33A      0.426905    34A      0.426913
      35A      0.468499    36A      0.497617    37A      0.497683
      38A      0.513895    39A      0.556324    40A      0.584329
      41A      0.584405    42A      0.597784    43A      0.597841
      44A      0.609991    45A      0.628063    46A      0.632012
      47A      0.639527    48A      0.639531    49A      0.666884
      50A      0.667070    51A      0.686484    52A      0.686513
      53A      0.757518    54A      0.830574    55A      0.830576
      56A      0.855268    57A      0.922896    58A      0.923101
      59A      0.945959    60A      0.953545    61A      0.966534
      62A      0.966656    63A      1.008696    64A      1.132131
      65A      1.132153    66A      1.155580    67A      1.168317
      68A      1.168378    69A      1.232295    70A      1.279884
      71A      1.280289    72A      1.285107    73A      1.329263
      74A      1.329402    75A      1.365401    76A      1.371038
      77A      1.371556    78A      1.393510    79A      1.407276
      80A      1.407770    81A      1.421924    82A      1.422414
      83A      1.428188    84A      1.492518    85A      1.509534
      86A      1.547049    87A      1.547417    88A      1.582014
      89A      1.582635    90A      1.674672    91A      1.745069
      92A      1.745262    93A      1.779109    94A      1.835196
      95A      1.835327    96A      1.972569    97A      2.025033
      98A      2.025864    99A      2.039705   100A      2.058741
     101A      2.059981   102A      2.746777   103A      2.746861
     104A      2.811837   105A      2.816062   106A      2.901987
     107A      2.903295   108A      2.924643   109A      2.931778
     110A      2.932176   111A      2.960056   112A      2.968641
     113A      2.969219   114A      3.041927   115A      3.081056
     116A      3.081348   117A      3.086189   118A      3.184341
     119A      3.184677   120A      3.188315   121A      3.289916
     122A      3.290291   123A      3.330913   124A      3.331039
     125A      3.383436   126A      3.492829   127A      3.492960
     128A      3.512374   129A      3.528379   130A      3.574991
     131A      3.581685   132A      3.581784   133A      3.670839
     134A      3.671404   135A      3.692987   136A      3.725585
     137A      3.725921   138A      3.781291   139A      3.781375
     140A      3.817660   141A      3.921670   142A      3.922414
     143A      4.045338   144A      4.117896   145A      4.118338
     146A      4.155244   147A      4.155536   148A      4.187137
     149A      4.208988   150A      4.209039   151A      4.210585
     152A      4.215550   153A      4.322584   154A      4.324211
     155A      4.362325   156A      4.432114   157A      4.433189
     158A      4.446366   159A      4.524459   160A      4.524807
     161A      4.588607   162A      4.589145   163A      4.624720
     164A      4.719806   165A      4.781419   166A      4.781692
     167A      4.839823   168A      4.967671   169A      5.006719
     170A      5.007267   171A      5.233732   172A      5.248295
     173A      5.248773   174A      5.362027   175A      5.362105
     176A      5.481705

    Final Occupation by Irrep:
              A
    DOCC [    16 ]
    SOCC [     1 ]

  @DF-UKS Final Energy:  -157.81305907550154

   => Energetics <=

    Nuclear Repulsion Energy =            125.3946451983296271
    One-Electron Energy =                -458.7489240869539344
    Two-Electron Energy =                 195.8483657855281024
    DFT Exchange-Correlation Energy =     -20.3071459724053227
    Empirical Dispersion Energy =           0.0000000000000000
    VV10 Nonlocal Energy =                  0.0000000000000000
    Total Energy =                       -157.8130590755015419

  UHF NO Occupations:
  HONO-2 :   15  A 1.9996009
  HONO-1 :   16  A 1.9989805
  HONO-0 :   17  A 1.0000000
  LUNO+0 :   18  A 0.0010195
  LUNO+1 :   19  A 0.0003991
  LUNO+2 :   20  A 0.0001980
  LUNO+3 :   21  A 0.0001971

Computation Completed

Properties will be evaluated at   0.000000,   0.000000,   0.000000 [a0]

Properties computed using the SCF density matrix

  Nuclear Dipole Moment: [e a0]
     X:     0.8272      Y:     0.0031      Z:    -0.0000

  Electronic Dipole Moment: [e a0]
     X:    -0.7493      Y:    -0.0030      Z:    -0.0000

  Dipole Moment: [e a0]
     X:     0.0779      Y:     0.0001      Z:    -0.0000     Total:     0.0779

  Dipole Moment: [D]
     X:     0.1980      Y:     0.0001      Z:    -0.0000     Total:     0.1980

*** tstop() called on n079 at Fri Nov  5 11:50:23 2021
Module time:
	user time   =     497.00 seconds =       8.28 minutes
	system time =       4.67 seconds =       0.08 minutes
	total time  =        126 seconds =       2.10 minutes
Total time:
	user time   =     497.00 seconds =       8.28 minutes
	system time =       4.67 seconds =       0.08 minutes
	total time  =        126 seconds =       2.10 minutes
Grab this energy -157.81305907550154
    Psi4 stopped on: Friday, 05 November 2021 11:50AM
    Psi4 wall time for execution: 0:02:06.13

*** Psi4 exiting successfully. Buy a developer a beer!
