                               Psi4 1.4a2.dev629

  ==> Input File <==

--------------------------------------------------------------------------
import os
memory 14 GB

molecule {
 C   -0.3223169867    0.0004946082    0.0000000000
 C    0.0628868669   -1.4004890268   -2.4263718743
 C    0.0607037702    2.8017017647    0.0000000000
 C    0.0628868669   -1.4004890268    2.4263718743
 H    2.0815638127   -1.6438702240   -2.8473630758
 H   -0.7624554752   -0.3849703769   -4.0271559969
 H   -0.7646976179   -3.2959323700   -2.3474431860
 H    2.0876107916    3.2871912627    0.0000000000
 H   -0.7666003124    3.6805560230    1.6757240954
 H   -0.7666003124    3.6805560230   -1.6757240954
 H    2.0815638127   -1.6438702240    2.8473630758
 H   -0.7646976179   -3.2959323700    2.3474431861
 H   -0.7624554752   -0.3849703769    4.0271559969
units bohr
0 2
}

basis {

assign 6-31g_2dfp_

[ 6-31g_2dfp_ ]

spherical

!----------------------------------------------------------------------
! Basis Set Exchange
! Version v0.8.13
! https://www.basissetexchange.org
!----------------------------------------------------------------------
!   Basis set: 6-31G(2df,p)
! Description: 6-31G(2df,p)
!        Role: orbital
!     Version: 0  (Data from the original Basis Set Exchange)
!----------------------------------------------------------------------

****
H     0
S    3   1.00
     18.7311370              0.03349460
      2.8253937              0.23472695
      0.6401217              0.81375733
S    1   1.00
      0.1612778              1.00000000
P    1   1.00
      1.5000000              1.0000000
P    1   1.00
      0.3750000              1.0000000
****
B     0
S    6   1.00
   2068.8823000              0.0018663
    310.6495700              0.0142515
     70.6830330              0.0695516
     19.8610800              0.2325729
      6.2993048              0.4670787
      2.1270270              0.3634314
SP   3   1.00
      4.7279710             -0.1303938              0.0745976
      1.1903377             -0.1307889              0.3078467
      0.3594117              1.1309444              0.7434568
SP   1   1.00
      0.1267512              1.0000000              1.0000000
D    1   1.00
      0.8020000              1.0000000
D    1   1.00
      0.2005000              1.0000000
F    1   1.00
      0.5000000              1.0000000
****
C     0
S    6   1.00
   3047.5249000              0.0018347
    457.3695100              0.0140373
    103.9486900              0.0688426
     29.2101550              0.2321844
      9.2866630              0.4679413
      3.1639270              0.3623120
SP   3   1.00
      7.8682724             -0.1193324              0.0689991
      1.8812885             -0.1608542              0.3164240
      0.5442493              1.1434564              0.7443083
SP   1   1.00
      0.1687144              1.0000000              1.0000000
D    1   1.00
      1.2520000              1.0000000
D    1   1.00
      0.3130000              1.0000000
F    1   1.00
      0.8000000              1.0000000
****
N     0
S    6   1.00
   4173.5110000              0.0018348
    627.4579000              0.0139950
    142.9021000              0.0685870
     40.2343300              0.2322410
     12.8202100              0.4690700
      4.3904370              0.3604550
SP   3   1.00
     11.6263580             -0.1149610              0.0675800
      2.7162800             -0.1691180              0.3239070
      0.7722180              1.1458520              0.7408950
SP   1   1.00
      0.2120313              1.0000000              1.0000000
D    1   1.00
      1.8260000              1.0000000
D    1   1.00
      0.4565000              1.0000000
F    1   1.00
      1.0000000              1.0000000
****
O     0
S    6   1.00
   5484.6717000              0.0018311
    825.2349500              0.0139501
    188.0469600              0.0684451
     52.9645000              0.2327143
     16.8975700              0.4701930
      5.7996353              0.3585209
SP   3   1.00
     15.5396160             -0.1107775              0.0708743
      3.5999336             -0.1480263              0.3397528
      1.0137618              1.1307670              0.7271586
SP   1   1.00
      0.2700058              1.0000000              1.0000000
D    1   1.00
      2.5840000              1.0000000
D    1   1.00
      0.6460000              1.0000000
F    1   1.00
      1.4000000              1.0000000
****
F     0
S    6   1.00
   7001.7130900              0.0018196169
   1051.3660900              0.0139160796
    239.2856900              0.0684053245
     67.3974453              0.233185760
     21.5199573              0.471267439
      7.40310130             0.356618546
SP   3   1.00
     20.8479528             -0.108506975            0.0716287243
      4.80830834            -0.146451658            0.3459121030
      1.34406986             1.128688580            0.7224699570
SP   1   1.00
      0.358151393            1.0000000              1.0000000
D    1   1.00
      3.5000000              1.0000000
D    1   1.00
      0.8750000              1.0000000
F    1   1.00
      1.8500000              1.0000000
****
Al     0
S    6   1.00
  13983.1000000              0.00194267
   2098.7500000              0.0148599
    477.7050000              0.0728494
    134.3600000              0.2468300
     42.8709000              0.4872580
     14.5189000              0.3234960
SP   6   1.00
    239.6680000             -0.00292619             0.00460285
     57.4419000             -0.0374080              0.0331990
     18.2859000             -0.1144870              0.1362820
      6.5991400              0.1156350              0.3304760
      2.4904900              0.6125950              0.4491460
      0.9445400              0.3937990              0.2657040
SP   3   1.00
      1.2779000             -0.2276060             -0.0175130
      0.3975900              0.00144583             0.2445330
      0.1600950              1.0927900              0.8049340
SP   1   1.00
      0.0556577              1.0000000              1.0000000
D    1   1.00
      0.6500000              1.0000000
D    1   1.00
      0.1625000              1.0000000
F    1   1.00
      0.2500000              1.0000000
****
Si     0
S    6   1.00
  16115.9000000              0.00195948
   2425.5800000              0.01492880
    553.8670000              0.07284780
    156.3400000              0.24613000
     50.0683000              0.48591400
     17.0178000              0.32500200
SP   6   1.00
    292.7180000             -0.00278094             0.00443826
     69.8731000             -0.03571460             0.03266790
     22.3363000             -0.11498500             0.13472100
      8.1503900              0.09356340             0.32867800
      3.1345800              0.60301700             0.44964000
      1.2254300              0.41895900             0.26137200
SP   3   1.00
      1.7273800             -0.24463000            -0.01779510
      0.5729220              0.00431572             0.25353900
      0.2221920              1.09818000             0.80066900
SP   1   1.00
      0.0778369              1.00000000             1.00000000
D    1   1.00
      0.9000000              1.0000000
D    1   1.00
      0.2250000              1.0000000
F    1   1.00
      0.3200000              1.0000000
****
P     0
S    6   1.00
  19413.3000000              0.0018516
   2909.4200000              0.0142062
    661.3640000              0.0699995
    185.7590000              0.2400790
     59.1943000              0.4847620
     20.0310000              0.3352000
SP   6   1.00
    339.4780000             -0.00278217             0.00456462
     81.0101000             -0.0360499              0.03369360
     25.8780000             -0.1166310              0.13975500
      9.4522100              0.0968328              0.33936200
      3.6656600              0.6144180              0.45092100
      1.4674600              0.4037980              0.23858600
SP   3   1.00
      2.1562300             -0.2529230             -0.01776530
      0.7489970              0.0328517              0.27405800
      0.2831450              1.0812500              0.78542100
SP   1   1.00
      0.0998317              1.0000000              1.00000000
D    1   1.00
      1.1000000              1.0000000
D    1   1.00
      0.2750000              1.0000000
F    1   1.00
      0.4500000              1.0000000
****
S     0
S    6   1.00
  21917.1000000              0.0018690
   3301.4900000              0.0142300
    754.1460000              0.0696960
    212.7110000              0.2384870
     67.9896000              0.4833070
     23.0515000              0.3380740
SP   6   1.00
    423.7350000             -0.0023767              0.0040610
    100.7100000             -0.0316930              0.0306810
     32.1599000             -0.1133170              0.1304520
     11.8079000              0.0560900              0.3272050
      4.6311000              0.5922550              0.4528510
      1.8702500              0.4550060              0.2560420
SP   3   1.00
      2.6158400             -0.2503740             -0.0145110
      0.9221670              0.0669570              0.3102630
      0.3412870              1.0545100              0.7544830
SP   1   1.00
      0.1171670              1.0000000              1.0000000
D    1   1.00
      1.3000000              1.0000000
D    1   1.00
      0.3250000              1.0000000
F    1   1.00
      0.5500000              1.0000000
****
Cl     0
S    6   1.00
  25180.1000000              0.0018330
   3780.3500000              0.0140340
    860.4740000              0.0690970
    242.1450000              0.2374520
     77.3349000              0.4830340
     26.2470000              0.3398560
SP   6   1.00
    491.7650000             -0.0022974              0.0039894
    116.9840000             -0.0307140              0.0303180
     37.4153000             -0.1125280              0.1298800
     13.7834000              0.0450160              0.3279510
      5.4521500              0.5893530              0.4535270
      2.2258800              0.4652060              0.2521540
SP   3   1.00
      3.1864900             -0.2518300             -0.0142990
      1.1442700              0.0615890              0.3235720
      0.4203770              1.0601800              0.7435070
SP   1   1.00
      0.1426570              1.0000000              1.0000000
D    1   1.00
      1.5000000              1.0000000
D    1   1.00
      0.3750000              1.0000000
F    1   1.00
      0.7000000              1.0000000
****
}

set {
reference uhf
freeze_core true
e_convergence 10
d_convergence 10
dft_spherical_points 1202
dft_radial_points 99
}

e = energy('b3lyp')

print_out('Grab this energy {0}'.format(e))
--------------------------------------------------------------------------

    Molecular point group: cs

    Geometry (in Bohr), charge = 0, multiplicity = 2:

       Center              X                  Y                   Z               Mass
    ------------   -----------------  -----------------  -----------------  -----------------
         C           -0.323126033668     0.000260380493     0.000000000000    12.000000000000
         C            0.062077819932    -1.400723254507    -2.426371874300    12.000000000000
         C            0.059894723232     2.801467536993     0.000000000000    12.000000000000
         C            0.062077819932    -1.400723254507     2.426371874300    12.000000000000
         H            2.080754765732    -1.644104451707    -2.847363075800     1.007825032230
         H           -0.763264522168    -0.385204604607    -4.027155996900     1.007825032230
         H           -0.765506664868    -3.296166597707    -2.347443186050     1.007825032230
         H            2.086801744632     3.286957034993     0.000000000000     1.007825032230
         H           -0.767409359368     3.680321795293     1.675724095400     1.007825032230
         H           -0.767409359368     3.680321795293    -1.675724095400     1.007825032230
         H            2.080754765732    -1.644104451707     2.847363075800     1.007825032230
         H           -0.765506664868    -3.296166597707     2.347443186050     1.007825032230
         H           -0.763264522168    -0.385204604607     4.027155996900     1.007825032230

  Charge       = 0
  Multiplicity = 2
  Basis Set: ANONYMOUS6E34A1C0
    Blend: 6-31G_2DFP_
  Basis Set: (ANONYMOUS6E34A1C0 AUX)
    Blend: DEF2-UNIVERSAL-JKFIT

    Orbital Energies [Eh]
    ---------------------

    Alpha Occupied:

       1Ap   -10.180284     2Ap   -10.167045     1App  -10.167013
       3Ap   -10.166975     4Ap    -0.797804     2App   -0.686196
       5Ap    -0.686193     6Ap    -0.530789     7Ap    -0.441222
       3App   -0.434653     8Ap    -0.434602     4App   -0.382755
       9Ap    -0.382712     5App   -0.363433    10Ap    -0.337978
       6App   -0.337913    11Ap    -0.168924

    Alpha Virtual:

      12Ap     0.075985    13Ap     0.133979     7App    0.134314
      14Ap     0.142503     8App    0.142618    15Ap     0.155046
      16Ap     0.178869     9App    0.179045    17Ap     0.203590
      10App    0.214529    11App    0.275935    18Ap     0.276087
      12App    0.399317    19Ap     0.399378    20Ap     0.403427
      21Ap     0.423825    13App    0.423993    22Ap     0.456669
      14App    0.495067    23Ap     0.495353    15App    0.512279
      24Ap     0.514135    25Ap     0.578807    16App    0.579151
      26Ap     0.591741    17App    0.592059    27Ap     0.603332
      28Ap     0.624261    18App    0.631370    29Ap     0.635771
      19App    0.635996    30Ap     0.663540    20App    0.664290
      21App    0.683432    31Ap     0.683780    32Ap     0.734934
      22App    0.825412    33Ap     0.825456    23App    0.854201
      34Ap     0.915036    24App    0.915459    25App    0.943839
      35Ap     0.944467    36Ap     0.961279    26App    0.961515
      37Ap     1.003638    38Ap     1.127806    27App    1.127914
      39Ap     1.142933    40Ap     1.162878    28App    1.163132
      41Ap     1.222913    42Ap     1.274567    29App    1.274882
      43Ap     1.279532    44Ap     1.324521    30App    1.324610
      45Ap     1.355421    46Ap     1.366103    31App    1.366124
      32App    1.392500    47Ap     1.404635    33App    1.405512
      34App    1.415638    48Ap     1.416668    35App    1.428124
      36App    1.491510    49Ap     1.500029    50Ap     1.542753
      37App    1.543674    38App    1.573915    51Ap     1.574229
      52Ap     1.668554    53Ap     1.740073    39App    1.740428
      54Ap     1.770203    40App    1.829197    55Ap     1.830802
      41App    1.970695    56Ap     2.018062    57Ap     2.018847
      42App    2.019372    58Ap     2.053063    43App    2.054991
      59Ap     2.737757    44App    2.738578    60Ap     2.791318
      45App    2.810968    61Ap     2.890309    46App    2.890325
      62Ap     2.895301    63Ap     2.929278    47App    2.929302
      48App    2.959136    64Ap     2.964465    49App    2.965140
      65Ap     3.034718    66Ap     3.071304    50App    3.071318
      51App    3.082971    52App    3.168701    67Ap     3.169111
      68Ap     3.180656    53App    3.285088    69Ap     3.285739
      54App    3.326326    70Ap     3.326736    71Ap     3.375446
      55App    3.490225    72Ap     3.490561    56App    3.515228
      73Ap     3.524140    57App    3.568659    74Ap     3.568925
      58App    3.575985    75Ap     3.666045    59App    3.667483
      76Ap     3.679036    60App    3.693787    77Ap     3.694105
      78Ap     3.776381    61App    3.776391    79Ap     3.789913
      62App    3.911579    80Ap     3.911765    81Ap     4.033967
      82Ap     4.110944    63App    4.111839    64App    4.148107
      83Ap     4.149227    84Ap     4.174899    65App    4.201401
      85Ap     4.202251    86Ap     4.203607    66App    4.212035
      87Ap     4.315594    67App    4.317325    68App    4.357769
      69App    4.424867    88Ap     4.425528    70App    4.443197
      89Ap     4.516796    71App    4.518221    72App    4.577463
      90Ap     4.577703    91Ap     4.617653    92Ap     4.710008
      93Ap     4.774023    73App    4.774950    74App    4.835532
      94Ap     4.962564    95Ap     5.003512    75App    5.004988
      96Ap     5.230756    97Ap     5.241759    76App    5.245854
      98Ap     5.356310    77App    5.358751    78App    5.477429

    Beta Occupied:

       1Ap   -10.167801     1App  -10.167764     2Ap   -10.167744
       3Ap   -10.166456     4Ap    -0.781122     5Ap    -0.683989
       2App   -0.683982     6Ap    -0.511711     3App   -0.430992
       7Ap    -0.430960     8Ap    -0.421974     4App   -0.376888
       9Ap    -0.376800     5App   -0.362408    10Ap    -0.333097
       6App   -0.333047

    Beta Virtual:

      11Ap    -0.025616    12Ap     0.076979    13Ap     0.134813
       7App    0.135127    14Ap     0.144422     8App    0.144485
      15Ap     0.163483    16Ap     0.182551     9App    0.182763
      10App    0.214766    17Ap     0.218974    11App    0.282275
      18Ap     0.282433    12App    0.400485    19Ap     0.400544
      20Ap     0.419778    21Ap     0.426637    13App    0.426804
      22Ap     0.468676    14App    0.497311    23Ap     0.497613
      15App    0.514007    24Ap     0.556517    25Ap     0.584345
      16App    0.584657    26Ap     0.597908    17App    0.598272
      27Ap     0.610614    28Ap     0.627778    18App    0.631535
      29Ap     0.639096    19App    0.639310    30Ap     0.667105
      20App    0.667793    21App    0.686098    31Ap     0.686409
      32Ap     0.757460    22App    0.830557    33Ap     0.830605
      23App    0.855546    34Ap     0.923003    24App    0.923397
      25App    0.945685    35Ap     0.953346    36Ap     0.966590
      26App    0.966884    37Ap     1.008918    27App    1.131846
      38Ap     1.131857    39Ap     1.156229    40Ap     1.167945
      28App    1.168265    41Ap     1.231902    42Ap     1.280172
      29App    1.280514    43Ap     1.285344    44Ap     1.329465
      30App    1.329550    45Ap     1.364851    31App    1.371253
      46Ap     1.371327    32App    1.393542    47Ap     1.408115
      33App    1.409063    34App    1.420713    48Ap     1.421773
      35App    1.428385    36App    1.492584    49Ap     1.510464
      50Ap     1.547141    37App    1.548034    38App    1.581820
      51Ap     1.582107    52Ap     1.673351    53Ap     1.745847
      39App    1.746194    54Ap     1.780989    40App    1.833043
      55Ap     1.834665    41App    1.971569    56Ap     2.025016
      42App    2.025947    57Ap     2.039774    58Ap     2.059705
      43App    2.061544    59Ap     2.746094    44App    2.746896
      45App    2.811377    60Ap     2.816492    46App    2.902986
      61Ap     2.903099    62Ap     2.925181    63Ap     2.931725
      47App    2.931811    48App    2.960201    64Ap     2.969036
      49App    2.969734    65Ap     3.042439    66Ap     3.081133
      50App    3.081302    51App    3.084821    52App    3.184328
      67Ap     3.184940    68Ap     3.188364    53App    3.289846
      69Ap     3.290515    54App    3.330143    70Ap     3.330603
      71Ap     3.383289    55App    3.493034    72Ap     3.493293
      56App    3.513595    73Ap     3.527200    57App    3.575832
      58App    3.581798    74Ap     3.582135    75Ap     3.670836
      59App    3.672389    76Ap     3.692357    60App    3.725393
      77Ap     3.725748    78Ap     3.780910    61App    3.781053
      79Ap     3.818428    62App    3.921317    80Ap     3.921546
      81Ap     4.044792    82Ap     4.117776    63App    4.118629
      64App    4.155376    83Ap     4.156398    84Ap     4.188919
      65App    4.207180    85Ap     4.208734    86Ap     4.211045
      66App    4.216383    87Ap     4.323096    67App    4.324821
      68App    4.361176    69App    4.433083    88Ap     4.433744
      70App    4.446127    89Ap     4.524550    71App    4.525977
      72App    4.588095    90Ap     4.588356    91Ap     4.624941
      92Ap     4.720235    93Ap     4.781026    73App    4.781954
      74App    4.838460    94Ap     4.967348    95Ap     5.007545
      75App    5.008984    96Ap     5.236501    97Ap     5.243574
      76App    5.247642    98Ap     5.362807    77App    5.365267
      78App    5.479763

    Final Occupation by Irrep:
             Ap   App
    DOCC [    10,    6 ]
    SOCC [     1,    0 ]

  @DF-UKS Final Energy:  -157.81304925744158

   => Energetics <=

    Nuclear Repulsion Energy =            125.4000385016727535
    One-Electron Energy =                -458.7597020663400826
    Two-Electron Energy =                 195.8538744478365459
    DFT Exchange-Correlation Energy =     -20.3072601406107687
    Empirical Dispersion Energy =           0.0000000000000000
    VV10 Nonlocal Energy =                  0.0000000000000000
    Total Energy =                       -157.8130492574415769

  UHF NO Occupations:
  HONO-2 :    9 Ap 1.9996032
  HONO-1 :   10 Ap 1.9989813
  HONO-0 :   11 Ap 1.0000000
  LUNO+0 :   12 Ap 0.0010187
  LUNO+1 :   13 Ap 0.0003968
  LUNO+2 :    7App 0.0001975
  LUNO+3 :   14 Ap 0.0001975

Computation Completed

Properties will be evaluated at   0.000000,   0.000000,   0.000000 [a0]

Properties computed using the SCF density matrix

  Nuclear Dipole Moment: [e a0]
     X:     0.8215      Y:    -0.0017      Z:     0.0000

  Electronic Dipole Moment: [e a0]
     X:    -0.7404      Y:     0.0023      Z:     0.0000

  Dipole Moment: [e a0]
     X:     0.0811      Y:     0.0007      Z:     0.0000     Total:     0.0811

  Dipole Moment: [D]
     X:     0.2061      Y:     0.0017      Z:     0.0000     Total:     0.2061

*** tstop() called on n071 at Fri Nov  5 14:14:49 2021
Module time:
	user time   =     574.52 seconds =       9.58 minutes
	system time =      13.29 seconds =       0.22 minutes
	total time  =        148 seconds =       2.47 minutes
Total time:
	user time   =     574.52 seconds =       9.58 minutes
	system time =      13.29 seconds =       0.22 minutes
	total time  =        148 seconds =       2.47 minutes
Grab this energy -157.81304925744158
    Psi4 stopped on: Friday, 05 November 2021 02:14PM
    Psi4 wall time for execution: 0:02:28.06

*** Psi4 exiting successfully. Buy a developer a beer!
