                               Psi4 1.4a2.dev629

  ==> Input File <==

--------------------------------------------------------------------------
import os
memory 14 GB

molecule {
 C   -0.3233399809   -0.0010237534   -0.0004977260
 C    0.0603202368   -1.3993045804   -2.4271585113
 C    0.0602726498    2.8021529101   -0.0003837829
 C    0.0627055026   -1.3995523440    2.4268197260
 H    2.0904656393   -1.6443603292   -2.8468515129
 H   -0.7666904666   -0.3909092393   -4.0238400003
 H   -0.7678031215   -3.2900743601   -2.3503721390
 H    2.0868813516    3.2880053783   -0.0001821634
 H   -0.7666312419    3.6806389321    1.6768975010
 H   -0.7642359230    3.6797109002   -1.6762912081
 H    2.0833247050   -1.6449275078    2.8474976484
 H   -0.7632901957   -3.2942293936    2.3473337075
 H   -0.7645870321   -0.3861509264    4.0270284609
units bohr
0 2
}

basis {

assign 6-31g_2dfp_

[ 6-31g_2dfp_ ]

spherical

!----------------------------------------------------------------------
! Basis Set Exchange
! Version v0.8.13
! https://www.basissetexchange.org
!----------------------------------------------------------------------
!   Basis set: 6-31G(2df,p)
! Description: 6-31G(2df,p)
!        Role: orbital
!     Version: 0  (Data from the original Basis Set Exchange)
!----------------------------------------------------------------------

****
H     0
S    3   1.00
     18.7311370              0.03349460
      2.8253937              0.23472695
      0.6401217              0.81375733
S    1   1.00
      0.1612778              1.00000000
P    1   1.00
      1.5000000              1.0000000
P    1   1.00
      0.3750000              1.0000000
****
B     0
S    6   1.00
   2068.8823000              0.0018663
    310.6495700              0.0142515
     70.6830330              0.0695516
     19.8610800              0.2325729
      6.2993048              0.4670787
      2.1270270              0.3634314
SP   3   1.00
      4.7279710             -0.1303938              0.0745976
      1.1903377             -0.1307889              0.3078467
      0.3594117              1.1309444              0.7434568
SP   1   1.00
      0.1267512              1.0000000              1.0000000
D    1   1.00
      0.8020000              1.0000000
D    1   1.00
      0.2005000              1.0000000
F    1   1.00
      0.5000000              1.0000000
****
C     0
S    6   1.00
   3047.5249000              0.0018347
    457.3695100              0.0140373
    103.9486900              0.0688426
     29.2101550              0.2321844
      9.2866630              0.4679413
      3.1639270              0.3623120
SP   3   1.00
      7.8682724             -0.1193324              0.0689991
      1.8812885             -0.1608542              0.3164240
      0.5442493              1.1434564              0.7443083
SP   1   1.00
      0.1687144              1.0000000              1.0000000
D    1   1.00
      1.2520000              1.0000000
D    1   1.00
      0.3130000              1.0000000
F    1   1.00
      0.8000000              1.0000000
****
N     0
S    6   1.00
   4173.5110000              0.0018348
    627.4579000              0.0139950
    142.9021000              0.0685870
     40.2343300              0.2322410
     12.8202100              0.4690700
      4.3904370              0.3604550
SP   3   1.00
     11.6263580             -0.1149610              0.0675800
      2.7162800             -0.1691180              0.3239070
      0.7722180              1.1458520              0.7408950
SP   1   1.00
      0.2120313              1.0000000              1.0000000
D    1   1.00
      1.8260000              1.0000000
D    1   1.00
      0.4565000              1.0000000
F    1   1.00
      1.0000000              1.0000000
****
O     0
S    6   1.00
   5484.6717000              0.0018311
    825.2349500              0.0139501
    188.0469600              0.0684451
     52.9645000              0.2327143
     16.8975700              0.4701930
      5.7996353              0.3585209
SP   3   1.00
     15.5396160             -0.1107775              0.0708743
      3.5999336             -0.1480263              0.3397528
      1.0137618              1.1307670              0.7271586
SP   1   1.00
      0.2700058              1.0000000              1.0000000
D    1   1.00
      2.5840000              1.0000000
D    1   1.00
      0.6460000              1.0000000
F    1   1.00
      1.4000000              1.0000000
****
F     0
S    6   1.00
   7001.7130900              0.0018196169
   1051.3660900              0.0139160796
    239.2856900              0.0684053245
     67.3974453              0.233185760
     21.5199573              0.471267439
      7.40310130             0.356618546
SP   3   1.00
     20.8479528             -0.108506975            0.0716287243
      4.80830834            -0.146451658            0.3459121030
      1.34406986             1.128688580            0.7224699570
SP   1   1.00
      0.358151393            1.0000000              1.0000000
D    1   1.00
      3.5000000              1.0000000
D    1   1.00
      0.8750000              1.0000000
F    1   1.00
      1.8500000              1.0000000
****
Al     0
S    6   1.00
  13983.1000000              0.00194267
   2098.7500000              0.0148599
    477.7050000              0.0728494
    134.3600000              0.2468300
     42.8709000              0.4872580
     14.5189000              0.3234960
SP   6   1.00
    239.6680000             -0.00292619             0.00460285
     57.4419000             -0.0374080              0.0331990
     18.2859000             -0.1144870              0.1362820
      6.5991400              0.1156350              0.3304760
      2.4904900              0.6125950              0.4491460
      0.9445400              0.3937990              0.2657040
SP   3   1.00
      1.2779000             -0.2276060             -0.0175130
      0.3975900              0.00144583             0.2445330
      0.1600950              1.0927900              0.8049340
SP   1   1.00
      0.0556577              1.0000000              1.0000000
D    1   1.00
      0.6500000              1.0000000
D    1   1.00
      0.1625000              1.0000000
F    1   1.00
      0.2500000              1.0000000
****
Si     0
S    6   1.00
  16115.9000000              0.00195948
   2425.5800000              0.01492880
    553.8670000              0.07284780
    156.3400000              0.24613000
     50.0683000              0.48591400
     17.0178000              0.32500200
SP   6   1.00
    292.7180000             -0.00278094             0.00443826
     69.8731000             -0.03571460             0.03266790
     22.3363000             -0.11498500             0.13472100
      8.1503900              0.09356340             0.32867800
      3.1345800              0.60301700             0.44964000
      1.2254300              0.41895900             0.26137200
SP   3   1.00
      1.7273800             -0.24463000            -0.01779510
      0.5729220              0.00431572             0.25353900
      0.2221920              1.09818000             0.80066900
SP   1   1.00
      0.0778369              1.00000000             1.00000000
D    1   1.00
      0.9000000              1.0000000
D    1   1.00
      0.2250000              1.0000000
F    1   1.00
      0.3200000              1.0000000
****
P     0
S    6   1.00
  19413.3000000              0.0018516
   2909.4200000              0.0142062
    661.3640000              0.0699995
    185.7590000              0.2400790
     59.1943000              0.4847620
     20.0310000              0.3352000
SP   6   1.00
    339.4780000             -0.00278217             0.00456462
     81.0101000             -0.0360499              0.03369360
     25.8780000             -0.1166310              0.13975500
      9.4522100              0.0968328              0.33936200
      3.6656600              0.6144180              0.45092100
      1.4674600              0.4037980              0.23858600
SP   3   1.00
      2.1562300             -0.2529230             -0.01776530
      0.7489970              0.0328517              0.27405800
      0.2831450              1.0812500              0.78542100
SP   1   1.00
      0.0998317              1.0000000              1.00000000
D    1   1.00
      1.1000000              1.0000000
D    1   1.00
      0.2750000              1.0000000
F    1   1.00
      0.4500000              1.0000000
****
S     0
S    6   1.00
  21917.1000000              0.0018690
   3301.4900000              0.0142300
    754.1460000              0.0696960
    212.7110000              0.2384870
     67.9896000              0.4833070
     23.0515000              0.3380740
SP   6   1.00
    423.7350000             -0.0023767              0.0040610
    100.7100000             -0.0316930              0.0306810
     32.1599000             -0.1133170              0.1304520
     11.8079000              0.0560900              0.3272050
      4.6311000              0.5922550              0.4528510
      1.8702500              0.4550060              0.2560420
SP   3   1.00
      2.6158400             -0.2503740             -0.0145110
      0.9221670              0.0669570              0.3102630
      0.3412870              1.0545100              0.7544830
SP   1   1.00
      0.1171670              1.0000000              1.0000000
D    1   1.00
      1.3000000              1.0000000
D    1   1.00
      0.3250000              1.0000000
F    1   1.00
      0.5500000              1.0000000
****
Cl     0
S    6   1.00
  25180.1000000              0.0018330
   3780.3500000              0.0140340
    860.4740000              0.0690970
    242.1450000              0.2374520
     77.3349000              0.4830340
     26.2470000              0.3398560
SP   6   1.00
    491.7650000             -0.0022974              0.0039894
    116.9840000             -0.0307140              0.0303180
     37.4153000             -0.1125280              0.1298800
     13.7834000              0.0450160              0.3279510
      5.4521500              0.5893530              0.4535270
      2.2258800              0.4652060              0.2521540
SP   3   1.00
      3.1864900             -0.2518300             -0.0142990
      1.1442700              0.0615890              0.3235720
      0.4203770              1.0601800              0.7435070
SP   1   1.00
      0.1426570              1.0000000              1.0000000
D    1   1.00
      1.5000000              1.0000000
D    1   1.00
      0.3750000              1.0000000
F    1   1.00
      0.7000000              1.0000000
****
}

set {
reference uhf
freeze_core true
e_convergence 10
d_convergence 10
dft_spherical_points 1202
dft_radial_points 99
}

e = energy('b3lyp')

print_out('Grab this energy {0}'.format(e))
--------------------------------------------------------------------------

    Molecular point group: c1

    Geometry (in Bohr), charge = 0, multiplicity = 2:

       Center              X                  Y                   Z               Mass
    ------------   -----------------  -----------------  -----------------  -----------------
         C           -0.323339671410    -0.001460972347    -0.000262688546    12.000000000000
         C            0.060320546290    -1.399741799347    -2.426923473846    12.000000000000
         C            0.060272959290     2.801715691153    -0.000148745446    12.000000000000
         C            0.062705812090    -1.399989562947     2.427054763454    12.000000000000
         H            2.090465948790    -1.644797548147    -2.846616475446     1.007825032230
         H           -0.766690157110    -0.391346458247    -4.023604962846     1.007825032230
         H           -0.767802812010    -3.290511579047    -2.350137101546     1.007825032230
         H            2.086881661090     3.287568159353     0.000052874054     1.007825032230
         H           -0.766630932410     3.680201713153     1.677132538454     1.007825032230
         H           -0.764235613510     3.679273681253    -1.676056170646     1.007825032230
         H            2.083325014490    -1.645364726747     2.847732685854     1.007825032230
         H           -0.763289886210    -3.294666612547     2.347568744954     1.007825032230
         H           -0.764586722610    -0.386588145347     4.027263498354     1.007825032230

  Charge       = 0
  Multiplicity = 2
  Basis Set: ANONYMOUSDA50C8AB
    Blend: 6-31G_2DFP_
  Basis Set: (ANONYMOUSDA50C8AB AUX)
    Blend: DEF2-UNIVERSAL-JKFIT

    Orbital Energies [Eh]
    ---------------------

    Alpha Occupied:

       1A    -10.180342     2A    -10.167058     3A    -10.167014
       4A    -10.166972     5A     -0.797766     6A     -0.686268
       7A     -0.686108     8A     -0.530778     9A     -0.441128
      10A     -0.434695    11A     -0.434645    12A     -0.382643
      13A     -0.382554    14A     -0.363609    15A     -0.338294
      16A     -0.337704    17A     -0.168961

    Alpha Virtual:

      18A      0.076071    19A      0.133984    20A      0.134324
      21A      0.142537    22A      0.142716    23A      0.154881
      24A      0.178679    25A      0.178879    26A      0.203548
      27A      0.214803    28A      0.275840    29A      0.276132
      30A      0.399112    31A      0.399344    32A      0.403342
      33A      0.424012    34A      0.424184    35A      0.456592
      36A      0.495239    37A      0.495537    38A      0.512161
      39A      0.513981    40A      0.578635    41A      0.578997
      42A      0.591484    43A      0.591774    44A      0.602581
      45A      0.624760    46A      0.631749    47A      0.636167
      48A      0.636354    49A      0.663033    50A      0.663802
      51A      0.683682    52A      0.684029    53A      0.734995
      54A      0.825384    55A      0.825421    56A      0.853921
      57A      0.914785    58A      0.915265    59A      0.944126
      60A      0.944610    61A      0.961155    62A      0.961436
      63A      1.003452    64A      1.128059    65A      1.128161
      66A      1.142203    67A      1.163157    68A      1.163393
      69A      1.223326    70A      1.274256    71A      1.274703
      72A      1.279373    73A      1.324285    74A      1.324431
      75A      1.355960    76A      1.365808    77A      1.366292
      78A      1.392434    79A      1.403541    80A      1.404587
      81A      1.416529    82A      1.417707    83A      1.427918
      84A      1.491490    85A      1.499078    86A      1.542345
      87A      1.543332    88A      1.574095    89A      1.574800
      90A      1.669810    91A      1.739188    92A      1.739599
      93A      1.768371    94A      1.830599    95A      1.832201
      96A      1.971710    97A      2.018026    98A      2.018573
      99A      2.019799   100A      2.051540   101A      2.053770
     102A      2.738073   103A      2.738898   104A      2.790924
     105A      2.811425   106A      2.889283   107A      2.890592
     108A      2.894970   109A      2.929328   110A      2.929667
     111A      2.958995   112A      2.963948   113A      2.964811
     114A      3.034017   115A      3.071148   116A      3.071412
     117A      3.084365   118A      3.168506   119A      3.169033
     120A      3.180621   121A      3.284922   122A      3.285707
     123A      3.326952   124A      3.327363   125A      3.375628
     126A      3.489988   127A      3.490321   128A      3.514016
     129A      3.525326   130A      3.568227   131A      3.568551
     132A      3.575159   133A      3.665604   134A      3.667142
     135A      3.679678   136A      3.693985   137A      3.694279
     138A      3.776787   139A      3.776822   140A      3.789125
     141A      3.911850   142A      3.912598   143A      4.034442
     144A      4.110859   145A      4.111860   146A      4.147484
     147A      4.148711   148A      4.173234   149A      4.201769
     150A      4.202989   151A      4.204002   152A      4.210917
     153A      4.314815   154A      4.317163   155A      4.358974
     156A      4.423783   157A      4.425112   158A      4.443456
     159A      4.516123   160A      4.517571   161A      4.577969
     162A      4.578561   163A      4.617554   164A      4.709459
     165A      4.774116   166A      4.775074   167A      4.836906
     168A      4.962866   169A      5.002145   170A      5.003743
     171A      5.228000   172A      5.244724   173A      5.248899
     174A      5.354317   175A      5.356757   176A      5.479380

    Beta Occupied:

       1A    -10.167816     2A    -10.167768     3A    -10.167739
       4A    -10.166519     5A     -0.781091     6A     -0.684068
       7A     -0.683913     8A     -0.511749     9A     -0.431064
      10A     -0.431024    11A     -0.421818    12A     -0.376747
      13A     -0.376620    14A     -0.362593    15A     -0.333416
      16A     -0.332828

    Beta Virtual:

      17A     -0.025743    18A      0.077080    19A      0.134881
      20A      0.135209    21A      0.144439    22A      0.144555
      23A      0.163337    24A      0.182339    25A      0.182562
      26A      0.215033    27A      0.218930    28A      0.282198
      29A      0.282470    30A      0.400282    31A      0.400513
      32A      0.419788    33A      0.426824    34A      0.426996
      35A      0.468500    36A      0.497494    37A      0.497805
      38A      0.513896    39A      0.556326    40A      0.584200
      41A      0.584532    42A      0.597640    43A      0.597981
      44A      0.610001    45A      0.628137    46A      0.631917
      47A      0.639441    48A      0.639639    49A      0.666628
      50A      0.667338    51A      0.686335    52A      0.686645
      53A      0.757518    54A      0.830550    55A      0.830591
      56A      0.855275    57A      0.922768    58A      0.923224
      59A      0.945963    60A      0.953539    61A      0.966437
      62A      0.966766    63A      1.008692    64A      1.132128
      65A      1.132148    66A      1.155571    67A      1.168205
      68A      1.168503    69A      1.232298    70A      1.279825
      71A      1.280325    72A      1.285131    73A      1.329266
      74A      1.329428    75A      1.365371    76A      1.371028
      77A      1.371560    78A      1.393495    79A      1.406962
      80A      1.408097    81A      1.421572    82A      1.422762
      83A      1.428190    84A      1.492538    85A      1.509521
      86A      1.546760    87A      1.547730    88A      1.581980
      89A      1.582660    90A      1.674658    91A      1.744957
      92A      1.745361    93A      1.779141    94A      1.834447
      95A      1.836064    96A      1.972571    97A      2.024831
      98A      2.026060    99A      2.039675   100A      2.058289
     101A      2.060459   102A      2.746419   103A      2.747224
     104A      2.811837   105A      2.816060   106A      2.901982
     107A      2.903295   108A      2.924645   109A      2.931773
     110A      2.932187   111A      2.960059   112A      2.968492
     113A      2.969359   114A      3.041950   115A      3.080991
     116A      3.081370   117A      3.086202   118A      3.184113
     119A      3.184889   120A      3.188341   121A      3.289728
     122A      3.290498   123A      3.330732   124A      3.331195
     125A      3.383445   126A      3.492751   127A      3.493018
     128A      3.512382   129A      3.528372   130A      3.574983
     131A      3.581581   132A      3.581909   133A      3.670287
     134A      3.671971   135A      3.692966   136A      3.725517
     137A      3.725997   138A      3.781254   139A      3.781414
     140A      3.817665   141A      3.921640   142A      3.922442
     143A      4.045329   144A      4.117692   145A      4.118656
     146A      4.154761   147A      4.155860   148A      4.187285
     149A      4.208013   150A      4.209651   151A      4.210950
     152A      4.215390   153A      4.322231   154A      4.324624
     155A      4.362336   156A      4.431988   157A      4.433326
     158A      4.446349   159A      4.523915   160A      4.525359
     161A      4.588586   162A      4.589146   163A      4.624748
     164A      4.719804   165A      4.781075   166A      4.782022
     167A      4.839823   168A      4.967661   169A      5.006201
     170A      5.007765   171A      5.233713   172A      5.246520
     173A      5.250673   174A      5.360786   175A      5.363248
     176A      5.481701

    Final Occupation by Irrep:
              A
    DOCC [    16 ]
    SOCC [     1 ]

  @DF-UKS Final Energy:  -157.81306068586736

   => Energetics <=

    Nuclear Repulsion Energy =            125.3946417660224171
    One-Electron Energy =                -458.7489212605250373
    Two-Electron Energy =                 195.8483643153368234
    DFT Exchange-Correlation Energy =     -20.3071455067015307
    Empirical Dispersion Energy =           0.0000000000000000
    VV10 Nonlocal Energy =                  0.0000000000000000
    Total Energy =                       -157.8130606858673559

  UHF NO Occupations:
  HONO-2 :   15  A 1.9996009
  HONO-1 :   16  A 1.9989805
  HONO-0 :   17  A 1.0000000
  LUNO+0 :   18  A 0.0010195
  LUNO+1 :   19  A 0.0003991
  LUNO+2 :   20  A 0.0001980
  LUNO+3 :   21  A 0.0001971

Computation Completed

Properties will be evaluated at   0.000000,   0.000000,   0.000000 [a0]

Properties computed using the SCF density matrix

  Nuclear Dipole Moment: [e a0]
     X:     0.8272      Y:    -0.0031      Z:     0.0017

  Electronic Dipole Moment: [e a0]
     X:    -0.7493      Y:     0.0030      Z:    -0.0023

  Dipole Moment: [e a0]
     X:     0.0779      Y:    -0.0000      Z:    -0.0006     Total:     0.0779

  Dipole Moment: [D]
     X:     0.1980      Y:    -0.0001      Z:    -0.0016     Total:     0.1980

*** tstop() called on n067 at Fri Nov  5 11:48:36 2021
Module time:
	user time   =     541.59 seconds =       9.03 minutes
	system time =      12.01 seconds =       0.20 minutes
	total time  =        139 seconds =       2.32 minutes
Total time:
	user time   =     541.59 seconds =       9.03 minutes
	system time =      12.01 seconds =       0.20 minutes
	total time  =        139 seconds =       2.32 minutes
Grab this energy -157.81306068586736
    Psi4 stopped on: Friday, 05 November 2021 11:48AM
    Psi4 wall time for execution: 0:02:19.23

*** Psi4 exiting successfully. Buy a developer a beer!
