                               Psi4 1.4a2.dev629

  ==> Input File <==

--------------------------------------------------------------------------
import os
memory 14 GB

molecule {
 C   -0.3233382619   -0.0053456793   -0.0002575010
 C    0.0592913900   -1.4020606264   -2.4257371983
 C    0.0611681903    2.8017035279    0.0007692570
 C    0.0628417554   -1.4013861749    2.4261064238
 H    2.0872310721   -1.6430919494   -2.8476658082
 H   -0.7640298978   -0.3874355926   -4.0262964339
 H   -0.7657786926   -3.2911451576   -2.3481790701
 H    2.0865609039    3.2887060270   -0.0002344463
 H   -0.7658367086    3.6811279180    1.6759461631
 H   -0.7655657483    3.6810406216   -1.6762740343
 H    2.0868812294   -1.6433016994    2.8475549907
 H   -0.7667527603   -3.2909359103    2.3482184034
 H   -0.7652803483   -0.3878996181    4.0260492539
units bohr
0 2
}

basis {

assign 6-31g_2dfp_

[ 6-31g_2dfp_ ]

spherical

!----------------------------------------------------------------------
! Basis Set Exchange
! Version v0.8.13
! https://www.basissetexchange.org
!----------------------------------------------------------------------
!   Basis set: 6-31G(2df,p)
! Description: 6-31G(2df,p)
!        Role: orbital
!     Version: 0  (Data from the original Basis Set Exchange)
!----------------------------------------------------------------------

****
H     0
S    3   1.00
     18.7311370              0.03349460
      2.8253937              0.23472695
      0.6401217              0.81375733
S    1   1.00
      0.1612778              1.00000000
P    1   1.00
      1.5000000              1.0000000
P    1   1.00
      0.3750000              1.0000000
****
B     0
S    6   1.00
   2068.8823000              0.0018663
    310.6495700              0.0142515
     70.6830330              0.0695516
     19.8610800              0.2325729
      6.2993048              0.4670787
      2.1270270              0.3634314
SP   3   1.00
      4.7279710             -0.1303938              0.0745976
      1.1903377             -0.1307889              0.3078467
      0.3594117              1.1309444              0.7434568
SP   1   1.00
      0.1267512              1.0000000              1.0000000
D    1   1.00
      0.8020000              1.0000000
D    1   1.00
      0.2005000              1.0000000
F    1   1.00
      0.5000000              1.0000000
****
C     0
S    6   1.00
   3047.5249000              0.0018347
    457.3695100              0.0140373
    103.9486900              0.0688426
     29.2101550              0.2321844
      9.2866630              0.4679413
      3.1639270              0.3623120
SP   3   1.00
      7.8682724             -0.1193324              0.0689991
      1.8812885             -0.1608542              0.3164240
      0.5442493              1.1434564              0.7443083
SP   1   1.00
      0.1687144              1.0000000              1.0000000
D    1   1.00
      1.2520000              1.0000000
D    1   1.00
      0.3130000              1.0000000
F    1   1.00
      0.8000000              1.0000000
****
N     0
S    6   1.00
   4173.5110000              0.0018348
    627.4579000              0.0139950
    142.9021000              0.0685870
     40.2343300              0.2322410
     12.8202100              0.4690700
      4.3904370              0.3604550
SP   3   1.00
     11.6263580             -0.1149610              0.0675800
      2.7162800             -0.1691180              0.3239070
      0.7722180              1.1458520              0.7408950
SP   1   1.00
      0.2120313              1.0000000              1.0000000
D    1   1.00
      1.8260000              1.0000000
D    1   1.00
      0.4565000              1.0000000
F    1   1.00
      1.0000000              1.0000000
****
O     0
S    6   1.00
   5484.6717000              0.0018311
    825.2349500              0.0139501
    188.0469600              0.0684451
     52.9645000              0.2327143
     16.8975700              0.4701930
      5.7996353              0.3585209
SP   3   1.00
     15.5396160             -0.1107775              0.0708743
      3.5999336             -0.1480263              0.3397528
      1.0137618              1.1307670              0.7271586
SP   1   1.00
      0.2700058              1.0000000              1.0000000
D    1   1.00
      2.5840000              1.0000000
D    1   1.00
      0.6460000              1.0000000
F    1   1.00
      1.4000000              1.0000000
****
F     0
S    6   1.00
   7001.7130900              0.0018196169
   1051.3660900              0.0139160796
    239.2856900              0.0684053245
     67.3974453              0.233185760
     21.5199573              0.471267439
      7.40310130             0.356618546
SP   3   1.00
     20.8479528             -0.108506975            0.0716287243
      4.80830834            -0.146451658            0.3459121030
      1.34406986             1.128688580            0.7224699570
SP   1   1.00
      0.358151393            1.0000000              1.0000000
D    1   1.00
      3.5000000              1.0000000
D    1   1.00
      0.8750000              1.0000000
F    1   1.00
      1.8500000              1.0000000
****
Al     0
S    6   1.00
  13983.1000000              0.00194267
   2098.7500000              0.0148599
    477.7050000              0.0728494
    134.3600000              0.2468300
     42.8709000              0.4872580
     14.5189000              0.3234960
SP   6   1.00
    239.6680000             -0.00292619             0.00460285
     57.4419000             -0.0374080              0.0331990
     18.2859000             -0.1144870              0.1362820
      6.5991400              0.1156350              0.3304760
      2.4904900              0.6125950              0.4491460
      0.9445400              0.3937990              0.2657040
SP   3   1.00
      1.2779000             -0.2276060             -0.0175130
      0.3975900              0.00144583             0.2445330
      0.1600950              1.0927900              0.8049340
SP   1   1.00
      0.0556577              1.0000000              1.0000000
D    1   1.00
      0.6500000              1.0000000
D    1   1.00
      0.1625000              1.0000000
F    1   1.00
      0.2500000              1.0000000
****
Si     0
S    6   1.00
  16115.9000000              0.00195948
   2425.5800000              0.01492880
    553.8670000              0.07284780
    156.3400000              0.24613000
     50.0683000              0.48591400
     17.0178000              0.32500200
SP   6   1.00
    292.7180000             -0.00278094             0.00443826
     69.8731000             -0.03571460             0.03266790
     22.3363000             -0.11498500             0.13472100
      8.1503900              0.09356340             0.32867800
      3.1345800              0.60301700             0.44964000
      1.2254300              0.41895900             0.26137200
SP   3   1.00
      1.7273800             -0.24463000            -0.01779510
      0.5729220              0.00431572             0.25353900
      0.2221920              1.09818000             0.80066900
SP   1   1.00
      0.0778369              1.00000000             1.00000000
D    1   1.00
      0.9000000              1.0000000
D    1   1.00
      0.2250000              1.0000000
F    1   1.00
      0.3200000              1.0000000
****
P     0
S    6   1.00
  19413.3000000              0.0018516
   2909.4200000              0.0142062
    661.3640000              0.0699995
    185.7590000              0.2400790
     59.1943000              0.4847620
     20.0310000              0.3352000
SP   6   1.00
    339.4780000             -0.00278217             0.00456462
     81.0101000             -0.0360499              0.03369360
     25.8780000             -0.1166310              0.13975500
      9.4522100              0.0968328              0.33936200
      3.6656600              0.6144180              0.45092100
      1.4674600              0.4037980              0.23858600
SP   3   1.00
      2.1562300             -0.2529230             -0.01776530
      0.7489970              0.0328517              0.27405800
      0.2831450              1.0812500              0.78542100
SP   1   1.00
      0.0998317              1.0000000              1.00000000
D    1   1.00
      1.1000000              1.0000000
D    1   1.00
      0.2750000              1.0000000
F    1   1.00
      0.4500000              1.0000000
****
S     0
S    6   1.00
  21917.1000000              0.0018690
   3301.4900000              0.0142300
    754.1460000              0.0696960
    212.7110000              0.2384870
     67.9896000              0.4833070
     23.0515000              0.3380740
SP   6   1.00
    423.7350000             -0.0023767              0.0040610
    100.7100000             -0.0316930              0.0306810
     32.1599000             -0.1133170              0.1304520
     11.8079000              0.0560900              0.3272050
      4.6311000              0.5922550              0.4528510
      1.8702500              0.4550060              0.2560420
SP   3   1.00
      2.6158400             -0.2503740             -0.0145110
      0.9221670              0.0669570              0.3102630
      0.3412870              1.0545100              0.7544830
SP   1   1.00
      0.1171670              1.0000000              1.0000000
D    1   1.00
      1.3000000              1.0000000
D    1   1.00
      0.3250000              1.0000000
F    1   1.00
      0.5500000              1.0000000
****
Cl     0
S    6   1.00
  25180.1000000              0.0018330
   3780.3500000              0.0140340
    860.4740000              0.0690970
    242.1450000              0.2374520
     77.3349000              0.4830340
     26.2470000              0.3398560
SP   6   1.00
    491.7650000             -0.0022974              0.0039894
    116.9840000             -0.0307140              0.0303180
     37.4153000             -0.1125280              0.1298800
     13.7834000              0.0450160              0.3279510
      5.4521500              0.5893530              0.4535270
      2.2258800              0.4652060              0.2521540
SP   3   1.00
      3.1864900             -0.2518300             -0.0142990
      1.1442700              0.0615890              0.3235720
      0.4203770              1.0601800              0.7435070
SP   1   1.00
      0.1426570              1.0000000              1.0000000
D    1   1.00
      1.5000000              1.0000000
D    1   1.00
      0.3750000              1.0000000
F    1   1.00
      0.7000000              1.0000000
****
}

set {
reference uhf
freeze_core true
e_convergence 10
d_convergence 10
dft_spherical_points 1202
dft_radial_points 99
}

e = energy('b3lyp')

print_out('Grab this energy {0}'.format(e))
--------------------------------------------------------------------------

    Molecular point group: c1

    Geometry (in Bohr), charge = 0, multiplicity = 2:

       Center              X                  Y                   Z               Mass
    ------------   -----------------  -----------------  -----------------  -----------------
         C           -0.323338851017    -0.003979866591    -0.000427184379    12.000000000000
         C            0.059290800883    -1.400694813691    -2.425906881679    12.000000000000
         C            0.061167601183     2.803069340609     0.000599573621    12.000000000000
         C            0.062841166283    -1.400020362191     2.425936740421    12.000000000000
         H            2.087230482983    -1.641726136691    -2.847835491579     1.007825032230
         H           -0.764030486917    -0.386069779891    -4.026466117279     1.007825032230
         H           -0.765779281717    -3.289779344891    -2.348348753479     1.007825032230
         H            2.086560314783     3.290071839709    -0.000404129679     1.007825032230
         H           -0.765837297717     3.682493730709     1.675776479721     1.007825032230
         H           -0.765566337417     3.682406434309    -1.676443717679     1.007825032230
         H            2.086880640283    -1.641935886691     2.847385307321     1.007825032230
         H           -0.766753349417    -3.289570097591     2.348048720021     1.007825032230
         H           -0.765280937417    -0.386533805391     4.025879570521     1.007825032230

  Charge       = 0
  Multiplicity = 2
  Basis Set: ANONYMOUSB6AE14B5
    Blend: 6-31G_2DFP_
  Basis Set: (ANONYMOUSB6AE14B5 AUX)
    Blend: DEF2-UNIVERSAL-JKFIT

    Orbital Energies [Eh]
    ---------------------

    Alpha Occupied:

       1A    -10.180341     2A    -10.167056     3A    -10.167026
       4A    -10.166962     5A     -0.797769     6A     -0.686379
       7A     -0.685994     8A     -0.530775     9A     -0.441133
      10A     -0.434901    11A     -0.434435    12A     -0.382790
      13A     -0.382411    14A     -0.363609    15A     -0.338525
      16A     -0.337470    17A     -0.168960

    Alpha Virtual:

      18A      0.076072    19A      0.134119    20A      0.134191
      21A      0.142441    22A      0.142812    23A      0.154880
      24A      0.178665    25A      0.178893    26A      0.203544
      27A      0.214802    28A      0.275693    29A      0.276277
      30A      0.399026    31A      0.399429    32A      0.403348
      33A      0.424050    34A      0.424144    35A      0.456593
      36A      0.495333    37A      0.495446    38A      0.512161
      39A      0.513977    40A      0.578598    41A      0.579031
      42A      0.591524    43A      0.591758    44A      0.602575
      45A      0.624750    46A      0.631773    47A      0.636073
      48A      0.636437    49A      0.663233    50A      0.663595
      51A      0.683695    52A      0.684009    53A      0.734994
      54A      0.825299    55A      0.825515    56A      0.853916
      57A      0.914908    58A      0.915135    59A      0.944126
      60A      0.944620    61A      0.961108    62A      0.961475
      63A      1.003453    64A      1.127795    65A      1.128384
      66A      1.142261    67A      1.162862    68A      1.163675
      69A      1.223327    70A      1.274002    71A      1.274981
      72A      1.279354    73A      1.324084    74A      1.324627
      75A      1.355987    76A      1.365655    77A      1.366459
      78A      1.392438    79A      1.403913    80A      1.404184
      81A      1.416687    82A      1.417545    83A      1.427925
      84A      1.491490    85A      1.499081    86A      1.542786
      87A      1.542873    88A      1.574290    89A      1.574606
      90A      1.669825    91A      1.738970    92A      1.739871
      93A      1.768321    94A      1.831069    95A      1.831714
      96A      1.971733    97A      2.018053    98A      2.018437
      99A      2.019909   100A      2.052000   101A      2.053292
     102A      2.738244   103A      2.738726   104A      2.790927
     105A      2.811423   106A      2.889328   107A      2.890573
     108A      2.894940   109A      2.929104   110A      2.929892
     111A      2.958991   112A      2.964200   113A      2.964557
     114A      3.034001   115A      3.070775   116A      3.071800
     117A      3.084356   118A      3.168646   119A      3.168863
     120A      3.180657   121A      3.285013   122A      3.285612
     123A      3.326749   124A      3.327565   125A      3.375606
     126A      3.489554   127A      3.490742   128A      3.514027
     129A      3.525334   130A      3.568127   131A      3.568647
     132A      3.575146   133A      3.665964   134A      3.666810
     135A      3.679657   136A      3.694094   137A      3.694135
     138A      3.776027   139A      3.777558   140A      3.789168
     141A      3.911756   142A      3.912693   143A      4.034436
     144A      4.111034   145A      4.111702   146A      4.147145
     147A      4.149097   148A      4.173259   149A      4.201982
     150A      4.203223   151A      4.203573   152A      4.210878
     153A      4.315240   154A      4.316687   155A      4.358990
     156A      4.424312   157A      4.424579   158A      4.443431
     159A      4.515786   160A      4.517904   161A      4.577933
     162A      4.578320   163A      4.617838   164A      4.709459
     165A      4.773852   166A      4.775358   167A      4.836900
     168A      4.962824   169A      5.002432   170A      5.003511
     171A      5.228050   172A      5.246784   173A      5.246852
     174A      5.354881   175A      5.356133   176A      5.479348

    Beta Occupied:

       1A    -10.167808     2A    -10.167787     3A    -10.167728
       4A    -10.166519     5A     -0.781094     6A     -0.684170
       7A     -0.683809     8A     -0.511747     9A     -0.431283
      10A     -0.430807    11A     -0.421818    12A     -0.376861
      13A     -0.376511    14A     -0.362592    15A     -0.333658
      16A     -0.332583

    Beta Virtual:

      17A     -0.025742    18A      0.077081    19A      0.135020
      20A      0.135070    21A      0.144323    22A      0.144673
      23A      0.163338    24A      0.182333    25A      0.182567
      26A      0.215032    27A      0.218926    28A      0.282075
      29A      0.282590    30A      0.400197    31A      0.400599
      32A      0.419791    33A      0.426857    34A      0.426959
      35A      0.468500    36A      0.497593    37A      0.497706
      38A      0.513896    39A      0.556320    40A      0.584131
      41A      0.584602    42A      0.597699    43A      0.597941
      44A      0.609999    45A      0.628124    46A      0.631930
      47A      0.639349    48A      0.639734    49A      0.666813
      50A      0.667142    51A      0.686327    52A      0.686647
      53A      0.757517    54A      0.830472    55A      0.830679
      56A      0.855269    57A      0.922853    58A      0.923132
      59A      0.945963    60A      0.953548    61A      0.966405
      62A      0.966791    63A      1.008693    64A      1.131847
      65A      1.132406    66A      1.155623    67A      1.167949
      68A      1.168732    69A      1.232299    70A      1.279649
      71A      1.280530    72A      1.285105    73A      1.329068
      74A      1.329622    75A      1.365402    76A      1.370930
      77A      1.371673    78A      1.393498    79A      1.407341
      80A      1.407684    81A      1.421751    82A      1.422579
      83A      1.428197    84A      1.492538    85A      1.509524
      86A      1.547209    87A      1.547267    88A      1.582217
      89A      1.582423    90A      1.674672    91A      1.744737
      92A      1.745628    93A      1.779099    94A      1.834912
      95A      1.835581    96A      1.972592    97A      2.024598
      98A      2.026291    99A      2.039684   100A      2.058744
     101A      2.059983   102A      2.746550   103A      2.747091
     104A      2.811836   105A      2.816062   106A      2.902098
     107A      2.903179   108A      2.924646   109A      2.931532
     110A      2.932427   111A      2.960056   112A      2.968746
     113A      2.969097   114A      3.041936   115A      3.080749
     116A      3.081634   117A      3.086181   118A      3.184326
     119A      3.184563   120A      3.188461   121A      3.289852
     122A      3.290370   123A      3.330545   124A      3.331377
     125A      3.383425   126A      3.492276   127A      3.493474
     128A      3.512396   129A      3.528380   130A      3.574994
     131A      3.581538   132A      3.581932   133A      3.670803
     134A      3.671457   135A      3.692953   136A      3.725546
     137A      3.725953   138A      3.780585   139A      3.782074
     140A      3.817683   141A      3.921577   142A      3.922512
     143A      4.045323   144A      4.117907   145A      4.118462
     146A      4.154373   147A      4.156284   148A      4.187319
     149A      4.208374   150A      4.209409   151A      4.210831
     152A      4.215356   153A      4.322612   154A      4.324193
     155A      4.362356   156A      4.432541   157A      4.432772
     158A      4.446322   159A      4.523573   160A      4.525697
     161A      4.588537   162A      4.588895   163A      4.625053
     164A      4.719806   165A      4.780791   166A      4.782327
     167A      4.839817   168A      4.967616   169A      5.006494
     170A      5.007529   171A      5.233766   172A      5.248572
     173A      5.248633   174A      5.361338   175A      5.362636
     176A      5.481670

    Final Occupation by Irrep:
              A
    DOCC [    16 ]
    SOCC [     1 ]

  @DF-UKS Final Energy:  -157.81306320950111

   => Energetics <=

    Nuclear Repulsion Energy =            125.3946872460533655
    One-Electron Energy =                -458.7490206433581079
    Two-Electron Energy =                 195.8484160030672854
    DFT Exchange-Correlation Energy =     -20.3071458152636559
    Empirical Dispersion Energy =           0.0000000000000000
    VV10 Nonlocal Energy =                  0.0000000000000000
    Total Energy =                       -157.8130632095011094

  UHF NO Occupations:
  HONO-2 :   15  A 1.9996008
  HONO-1 :   16  A 1.9989805
  HONO-0 :   17  A 1.0000000
  LUNO+0 :   18  A 0.0010195
  LUNO+1 :   19  A 0.0003992
  LUNO+2 :   20  A 0.0001986
  LUNO+3 :   21  A 0.0001965

Computation Completed

Properties will be evaluated at   0.000000,   0.000000,   0.000000 [a0]

Properties computed using the SCF density matrix

  Nuclear Dipole Moment: [e a0]
     X:     0.8272      Y:     0.0096      Z:    -0.0012

  Electronic Dipole Moment: [e a0]
     X:    -0.7493      Y:    -0.0108      Z:     0.0011

  Dipole Moment: [e a0]
     X:     0.0779      Y:    -0.0012      Z:    -0.0001     Total:     0.0779

  Dipole Moment: [D]
     X:     0.1980      Y:    -0.0031      Z:    -0.0003     Total:     0.1981

*** tstop() called on n051 at Fri Nov  5 12:16:52 2021
Module time:
	user time   =     543.08 seconds =       9.05 minutes
	system time =      11.81 seconds =       0.20 minutes
	total time  =        140 seconds =       2.33 minutes
Total time:
	user time   =     543.08 seconds =       9.05 minutes
	system time =      11.81 seconds =       0.20 minutes
	total time  =        140 seconds =       2.33 minutes
Grab this energy -157.8130632095011
    Psi4 stopped on: Friday, 05 November 2021 12:16PM
    Psi4 wall time for execution: 0:02:19.52

*** Psi4 exiting successfully. Buy a developer a beer!
