                               Psi4 1.4a2.dev629

  ==> Input File <==

--------------------------------------------------------------------------
import os
memory 14 GB

molecule {
 C   -0.3233632137   -0.0000025604   -0.0019978209
 C    0.0609130232   -1.3996818549   -2.4254647852
 C    0.0609262279    2.8011004068   -0.0011551564
 C    0.0611802569   -1.4014150477    2.4261564201
 H    2.0902839759   -1.6401514807   -2.8447101980
 H   -0.7671773466   -0.3883330422   -4.0291218530
 H   -0.7659682136   -3.2929743122   -2.3456302108
 H    2.0899485394    3.2877455288   -0.0041003586
 H   -0.7657950070    3.6748214175    1.6800786188
 H   -0.7685449074    3.6860838790   -1.6784823661
 H    2.0898921049   -1.6476811139    2.8495510723
 H   -0.7682220650   -3.2960541592    2.3499051058
 H   -0.7666812519   -0.3834819744    4.0249715320
units bohr
0 2
}

basis {

assign 6-31g_2dfp_

[ 6-31g_2dfp_ ]

spherical

!----------------------------------------------------------------------
! Basis Set Exchange
! Version v0.8.13
! https://www.basissetexchange.org
!----------------------------------------------------------------------
!   Basis set: 6-31G(2df,p)
! Description: 6-31G(2df,p)
!        Role: orbital
!     Version: 0  (Data from the original Basis Set Exchange)
!----------------------------------------------------------------------

****
H     0
S    3   1.00
     18.7311370              0.03349460
      2.8253937              0.23472695
      0.6401217              0.81375733
S    1   1.00
      0.1612778              1.00000000
P    1   1.00
      1.5000000              1.0000000
P    1   1.00
      0.3750000              1.0000000
****
B     0
S    6   1.00
   2068.8823000              0.0018663
    310.6495700              0.0142515
     70.6830330              0.0695516
     19.8610800              0.2325729
      6.2993048              0.4670787
      2.1270270              0.3634314
SP   3   1.00
      4.7279710             -0.1303938              0.0745976
      1.1903377             -0.1307889              0.3078467
      0.3594117              1.1309444              0.7434568
SP   1   1.00
      0.1267512              1.0000000              1.0000000
D    1   1.00
      0.8020000              1.0000000
D    1   1.00
      0.2005000              1.0000000
F    1   1.00
      0.5000000              1.0000000
****
C     0
S    6   1.00
   3047.5249000              0.0018347
    457.3695100              0.0140373
    103.9486900              0.0688426
     29.2101550              0.2321844
      9.2866630              0.4679413
      3.1639270              0.3623120
SP   3   1.00
      7.8682724             -0.1193324              0.0689991
      1.8812885             -0.1608542              0.3164240
      0.5442493              1.1434564              0.7443083
SP   1   1.00
      0.1687144              1.0000000              1.0000000
D    1   1.00
      1.2520000              1.0000000
D    1   1.00
      0.3130000              1.0000000
F    1   1.00
      0.8000000              1.0000000
****
N     0
S    6   1.00
   4173.5110000              0.0018348
    627.4579000              0.0139950
    142.9021000              0.0685870
     40.2343300              0.2322410
     12.8202100              0.4690700
      4.3904370              0.3604550
SP   3   1.00
     11.6263580             -0.1149610              0.0675800
      2.7162800             -0.1691180              0.3239070
      0.7722180              1.1458520              0.7408950
SP   1   1.00
      0.2120313              1.0000000              1.0000000
D    1   1.00
      1.8260000              1.0000000
D    1   1.00
      0.4565000              1.0000000
F    1   1.00
      1.0000000              1.0000000
****
O     0
S    6   1.00
   5484.6717000              0.0018311
    825.2349500              0.0139501
    188.0469600              0.0684451
     52.9645000              0.2327143
     16.8975700              0.4701930
      5.7996353              0.3585209
SP   3   1.00
     15.5396160             -0.1107775              0.0708743
      3.5999336             -0.1480263              0.3397528
      1.0137618              1.1307670              0.7271586
SP   1   1.00
      0.2700058              1.0000000              1.0000000
D    1   1.00
      2.5840000              1.0000000
D    1   1.00
      0.6460000              1.0000000
F    1   1.00
      1.4000000              1.0000000
****
F     0
S    6   1.00
   7001.7130900              0.0018196169
   1051.3660900              0.0139160796
    239.2856900              0.0684053245
     67.3974453              0.233185760
     21.5199573              0.471267439
      7.40310130             0.356618546
SP   3   1.00
     20.8479528             -0.108506975            0.0716287243
      4.80830834            -0.146451658            0.3459121030
      1.34406986             1.128688580            0.7224699570
SP   1   1.00
      0.358151393            1.0000000              1.0000000
D    1   1.00
      3.5000000              1.0000000
D    1   1.00
      0.8750000              1.0000000
F    1   1.00
      1.8500000              1.0000000
****
Al     0
S    6   1.00
  13983.1000000              0.00194267
   2098.7500000              0.0148599
    477.7050000              0.0728494
    134.3600000              0.2468300
     42.8709000              0.4872580
     14.5189000              0.3234960
SP   6   1.00
    239.6680000             -0.00292619             0.00460285
     57.4419000             -0.0374080              0.0331990
     18.2859000             -0.1144870              0.1362820
      6.5991400              0.1156350              0.3304760
      2.4904900              0.6125950              0.4491460
      0.9445400              0.3937990              0.2657040
SP   3   1.00
      1.2779000             -0.2276060             -0.0175130
      0.3975900              0.00144583             0.2445330
      0.1600950              1.0927900              0.8049340
SP   1   1.00
      0.0556577              1.0000000              1.0000000
D    1   1.00
      0.6500000              1.0000000
D    1   1.00
      0.1625000              1.0000000
F    1   1.00
      0.2500000              1.0000000
****
Si     0
S    6   1.00
  16115.9000000              0.00195948
   2425.5800000              0.01492880
    553.8670000              0.07284780
    156.3400000              0.24613000
     50.0683000              0.48591400
     17.0178000              0.32500200
SP   6   1.00
    292.7180000             -0.00278094             0.00443826
     69.8731000             -0.03571460             0.03266790
     22.3363000             -0.11498500             0.13472100
      8.1503900              0.09356340             0.32867800
      3.1345800              0.60301700             0.44964000
      1.2254300              0.41895900             0.26137200
SP   3   1.00
      1.7273800             -0.24463000            -0.01779510
      0.5729220              0.00431572             0.25353900
      0.2221920              1.09818000             0.80066900
SP   1   1.00
      0.0778369              1.00000000             1.00000000
D    1   1.00
      0.9000000              1.0000000
D    1   1.00
      0.2250000              1.0000000
F    1   1.00
      0.3200000              1.0000000
****
P     0
S    6   1.00
  19413.3000000              0.0018516
   2909.4200000              0.0142062
    661.3640000              0.0699995
    185.7590000              0.2400790
     59.1943000              0.4847620
     20.0310000              0.3352000
SP   6   1.00
    339.4780000             -0.00278217             0.00456462
     81.0101000             -0.0360499              0.03369360
     25.8780000             -0.1166310              0.13975500
      9.4522100              0.0968328              0.33936200
      3.6656600              0.6144180              0.45092100
      1.4674600              0.4037980              0.23858600
SP   3   1.00
      2.1562300             -0.2529230             -0.01776530
      0.7489970              0.0328517              0.27405800
      0.2831450              1.0812500              0.78542100
SP   1   1.00
      0.0998317              1.0000000              1.00000000
D    1   1.00
      1.1000000              1.0000000
D    1   1.00
      0.2750000              1.0000000
F    1   1.00
      0.4500000              1.0000000
****
S     0
S    6   1.00
  21917.1000000              0.0018690
   3301.4900000              0.0142300
    754.1460000              0.0696960
    212.7110000              0.2384870
     67.9896000              0.4833070
     23.0515000              0.3380740
SP   6   1.00
    423.7350000             -0.0023767              0.0040610
    100.7100000             -0.0316930              0.0306810
     32.1599000             -0.1133170              0.1304520
     11.8079000              0.0560900              0.3272050
      4.6311000              0.5922550              0.4528510
      1.8702500              0.4550060              0.2560420
SP   3   1.00
      2.6158400             -0.2503740             -0.0145110
      0.9221670              0.0669570              0.3102630
      0.3412870              1.0545100              0.7544830
SP   1   1.00
      0.1171670              1.0000000              1.0000000
D    1   1.00
      1.3000000              1.0000000
D    1   1.00
      0.3250000              1.0000000
F    1   1.00
      0.5500000              1.0000000
****
Cl     0
S    6   1.00
  25180.1000000              0.0018330
   3780.3500000              0.0140340
    860.4740000              0.0690970
    242.1450000              0.2374520
     77.3349000              0.4830340
     26.2470000              0.3398560
SP   6   1.00
    491.7650000             -0.0022974              0.0039894
    116.9840000             -0.0307140              0.0303180
     37.4153000             -0.1125280              0.1298800
     13.7834000              0.0450160              0.3279510
      5.4521500              0.5893530              0.4535270
      2.2258800              0.4652060              0.2521540
SP   3   1.00
      3.1864900             -0.2518300             -0.0142990
      1.1442700              0.0615890              0.3235720
      0.4203770              1.0601800              0.7435070
SP   1   1.00
      0.1426570              1.0000000              1.0000000
D    1   1.00
      1.5000000              1.0000000
D    1   1.00
      0.3750000              1.0000000
F    1   1.00
      0.7000000              1.0000000
****
}

set {
reference uhf
freeze_core true
e_convergence 10
d_convergence 10
dft_spherical_points 1202
dft_radial_points 99
}

e = energy('b3lyp')

print_out('Grab this energy {0}'.format(e))
--------------------------------------------------------------------------

    Molecular point group: c1

    Geometry (in Bohr), charge = 0, multiplicity = 2:

       Center              X                  Y                   Z               Mass
    ------------   -----------------  -----------------  -----------------  -----------------
         C           -0.323304714870    -0.000002312823    -0.001523748626    12.000000000000
         C            0.060971522030    -1.399681607323    -2.424990712926    12.000000000000
         C            0.060984726730     2.801100654377    -0.000681084126    12.000000000000
         C            0.061238755730    -1.401414800123     2.426630492374    12.000000000000
         H            2.090342474730    -1.640151233123    -2.844236125726     1.007825032230
         H           -0.767118847770    -0.388332794623    -4.028647780726     1.007825032230
         H           -0.765909714770    -3.292974064623    -2.345156138526     1.007825032230
         H            2.090007038230     3.287745776377    -0.003626286326     1.007825032230
         H           -0.765736508170     3.674821665077     1.680552691074     1.007825032230
         H           -0.768486408570     3.686084126577    -1.678008293826     1.007825032230
         H            2.089950603730    -1.647680866323     2.850025144574     1.007825032230
         H           -0.768163566170    -3.296053911623     2.350379178074     1.007825032230
         H           -0.766622753070    -0.383481726823     4.025445604274     1.007825032230

  Charge       = 0
  Multiplicity = 2
  Basis Set: ANONYMOUSBFA13ACA
    Blend: 6-31G_2DFP_
  Basis Set: (ANONYMOUSBFA13ACA AUX)
    Blend: DEF2-UNIVERSAL-JKFIT

    Orbital Energies [Eh]
    ---------------------

    Alpha Occupied:

       1A    -10.180410     2A    -10.167710     3A    -10.167551
       4A    -10.167390     5A     -0.797807     6A     -0.685950
       7A     -0.685706     8A     -0.530465     9A     -0.441028
      10A     -0.434600    11A     -0.434461    12A     -0.382375
      13A     -0.382305    14A     -0.363296    15A     -0.338059
      16A     -0.337927    17A     -0.169023

    Alpha Virtual:

      18A      0.075740    19A      0.133757    20A      0.133818
      21A      0.142157    22A      0.142277    23A      0.154581
      24A      0.178231    25A      0.178311    26A      0.203658
      27A      0.214349    28A      0.275694    29A      0.276231
      30A      0.399243    31A      0.399316    32A      0.403144
      33A      0.423768    34A      0.423880    35A      0.456459
      36A      0.495107    37A      0.495226    38A      0.511890
      39A      0.513846    40A      0.578194    41A      0.578767
      42A      0.590736    43A      0.591323    44A      0.601927
      45A      0.623786    46A      0.631077    47A      0.635650
      48A      0.635733    49A      0.663045    50A      0.663111
      51A      0.683278    52A      0.683335    53A      0.734684
      54A      0.824373    55A      0.824806    56A      0.853399
      57A      0.914170    58A      0.914446    59A      0.943500
      60A      0.943823    61A      0.959955    62A      0.961330
      63A      1.003363    64A      1.127473    65A      1.127893
      66A      1.141348    67A      1.162911    68A      1.163132
      69A      1.222882    70A      1.273799    71A      1.274109
      72A      1.279799    73A      1.323644    74A      1.323647
      75A      1.355142    76A      1.365389    77A      1.365710
      78A      1.391872    79A      1.402717    80A      1.403336
      81A      1.415780    82A      1.416568    83A      1.427155
      84A      1.490606    85A      1.497720    86A      1.542042
      87A      1.542585    88A      1.574272    89A      1.574287
      90A      1.667668    91A      1.737616    92A      1.738359
      93A      1.766799    94A      1.828434    95A      1.829416
      96A      1.970099    97A      2.016921    98A      2.017843
      99A      2.018149   100A      2.050753   101A      2.052367
     102A      2.737229   103A      2.737786   104A      2.790718
     105A      2.810905   106A      2.889108   107A      2.889640
     108A      2.894910   109A      2.929098   110A      2.929137
     111A      2.958376   112A      2.963577   113A      2.963883
     114A      3.033109   115A      3.070209   116A      3.070468
     117A      3.083430   118A      3.169248   119A      3.169657
     120A      3.180288   121A      3.285308   122A      3.285398
     123A      3.327344   124A      3.327996   125A      3.376315
     126A      3.490971   127A      3.491311   128A      3.514319
     129A      3.525933   130A      3.567868   131A      3.568484
     132A      3.576896   133A      3.665483   134A      3.665756
     135A      3.677801   136A      3.692954   137A      3.693709
     138A      3.775041   139A      3.777480   140A      3.788592
     141A      3.911040   142A      3.911539   143A      4.032098
     144A      4.107647   145A      4.110133   146A      4.143910
     147A      4.145676   148A      4.170332   149A      4.201238
     150A      4.201623   151A      4.201732   152A      4.207179
     153A      4.312913   154A      4.314500   155A      4.356619
     156A      4.421629   157A      4.422135   158A      4.441421
     159A      4.513994   160A      4.514815   161A      4.576455
     162A      4.577103   163A      4.616839   164A      4.707435
     165A      4.771764   166A      4.773878   167A      4.834599
     168A      4.962085   169A      5.001517   170A      5.002216
     171A      5.222747   172A      5.241044   173A      5.241990
     174A      5.350192   175A      5.351640   176A      5.476138

    Beta Occupied:

       1A    -10.168470     2A    -10.168312     3A    -10.168153
       4A    -10.166602     5A     -0.781105     6A     -0.683747
       7A     -0.683518     8A     -0.511494     9A     -0.430957
      10A     -0.430836    11A     -0.421683    12A     -0.376447
      13A     -0.376387    14A     -0.362277    15A     -0.333187
      16A     -0.333063

    Beta Virtual:

      17A     -0.025976    18A      0.076753    19A      0.134647
      20A      0.134692    21A      0.144054    22A      0.144177
      23A      0.163104    24A      0.181931    25A      0.181973
      26A      0.214580    27A      0.219020    28A      0.282043
      29A      0.282559    30A      0.400421    31A      0.400493
      32A      0.419567    33A      0.426577    34A      0.426691
      35A      0.468384    36A      0.497372    37A      0.497485
      38A      0.513631    39A      0.556132    40A      0.583726
      41A      0.584302    42A      0.596910    43A      0.597468
      44A      0.609362    45A      0.627175    46A      0.631239
      47A      0.638938    48A      0.639061    49A      0.666602
      50A      0.666671    51A      0.685927    52A      0.686028
      53A      0.757182    54A      0.829522    55A      0.829998
      56A      0.854776    57A      0.922190    58A      0.922396
      59A      0.945339    60A      0.952724    61A      0.965327
      62A      0.966591    63A      1.008592    64A      1.131441
      65A      1.132009    66A      1.154738    67A      1.168035
      68A      1.168093    69A      1.231872    70A      1.279409
      71A      1.279717    72A      1.285565    73A      1.328593
      74A      1.328623    75A      1.364535    76A      1.370664
      77A      1.370925    78A      1.392937    79A      1.406158
      80A      1.406830    81A      1.420836    82A      1.421614
      83A      1.427435    84A      1.491648    85A      1.508163
      86A      1.546578    87A      1.547126    88A      1.582038
      89A      1.582047    90A      1.672441    91A      1.743363
      92A      1.744123    93A      1.777634    94A      1.832322
      95A      1.833300    96A      1.970963    97A      2.024200
      98A      2.024320    99A      2.038629   100A      2.057442
     101A      2.059110   102A      2.745569   103A      2.746095
     104A      2.811315   105A      2.815825   106A      2.901824
     107A      2.902239   108A      2.924551   109A      2.931641
     110A      2.931656   111A      2.959432   112A      2.968097
     113A      2.968369   114A      3.041124   115A      3.080071
     116A      3.080310   117A      3.085241   118A      3.185014
     119A      3.185488   120A      3.187908   121A      3.290137
     122A      3.290276   123A      3.331158   124A      3.331775
     125A      3.384110   126A      3.493673   127A      3.493976
     128A      3.512680   129A      3.528971   130A      3.576554
     131A      3.581236   132A      3.581943   133A      3.670072
     134A      3.670187   135A      3.691034   136A      3.724992
     137A      3.725184   138A      3.779628   139A      3.781975
     140A      3.817110   141A      3.920889   142A      3.921352
     143A      4.042862   144A      4.114497   145A      4.116760
     146A      4.151136   147A      4.152953   148A      4.184527
     149A      4.207536   150A      4.207669   151A      4.209303
     152A      4.211683   153A      4.320408   154A      4.322040
     155A      4.359997   156A      4.429920   157A      4.430332
     158A      4.444323   159A      4.521805   160A      4.522606
     161A      4.587090   162A      4.587733   163A      4.624043
     164A      4.717784   165A      4.778764   166A      4.780792
     167A      4.837513   168A      4.966906   169A      5.005567
     170A      5.006285   171A      5.228488   172A      5.242827
     173A      5.243788   174A      5.356679   175A      5.358169
     176A      5.478472

    Final Occupation by Irrep:
              A
    DOCC [    16 ]
    SOCC [     1 ]

  @DF-UKS Final Energy:  -157.81308865635901

   => Energetics <=

    Nuclear Repulsion Energy =            125.3573008888215696
    One-Electron Energy =                -458.6781242096095639
    Two-Electron Energy =                 195.8108579090525438
    DFT Exchange-Correlation Energy =     -20.3031232446235386
    Empirical Dispersion Energy =           0.0000000000000000
    VV10 Nonlocal Energy =                  0.0000000000000000
    Total Energy =                       -157.8130886563590138

  UHF NO Occupations:
  HONO-2 :   15  A 1.9995983
  HONO-1 :   16  A 1.9989811
  HONO-0 :   17  A 1.0000000
  LUNO+0 :   18  A 0.0010189
  LUNO+1 :   19  A 0.0004017
  LUNO+2 :   20  A 0.0001975
  LUNO+3 :   21  A 0.0001969

Computation Completed

Properties will be evaluated at   0.000000,   0.000000,   0.000000 [a0]

Properties computed using the SCF density matrix

  Nuclear Dipole Moment: [e a0]
     X:     0.8276      Y:    -0.0000      Z:     0.0033

  Electronic Dipole Moment: [e a0]
     X:    -0.7503      Y:     0.0000      Z:    -0.0034

  Dipole Moment: [e a0]
     X:     0.0773      Y:    -0.0000      Z:    -0.0000     Total:     0.0773

  Dipole Moment: [D]
     X:     0.1964      Y:    -0.0000      Z:    -0.0001     Total:     0.1964

*** tstop() called on n089 at Fri Nov  5 14:58:27 2021
Module time:
	user time   =     512.35 seconds =       8.54 minutes
	system time =       4.61 seconds =       0.08 minutes
	total time  =        130 seconds =       2.17 minutes
Total time:
	user time   =     512.35 seconds =       8.54 minutes
	system time =       4.61 seconds =       0.08 minutes
	total time  =        130 seconds =       2.17 minutes
Grab this energy -157.813088656359
    Psi4 stopped on: Friday, 05 November 2021 02:58PM
    Psi4 wall time for execution: 0:02:09.98

*** Psi4 exiting successfully. Buy a developer a beer!
