                               Psi4 1.4a2.dev629

  ==> Input File <==

--------------------------------------------------------------------------
import os
memory 14 GB

molecule {
 C   -0.3233395446    0.0002443792    0.0002471131
 C    0.0626602684   -1.4008397200   -2.4262060834
 C    0.0599099473    2.8018832123   -0.0001474234
 C    0.0607334036   -1.4010756155    2.4263196711
 H    2.0913543216   -1.6488550396   -2.8543213929
 H   -0.7628057731   -0.3856461813   -4.0211204510
 H   -0.7636760213   -3.2896671906   -2.3456845468
 H    2.0835461852    3.2820145298   -0.0018514396
 H   -0.7663212881    3.6821699451    1.6771860761
 H   -0.7682445999    3.6850054385   -1.6760345516
 H    2.0857477705   -1.6451756154    2.8442453658
 H   -0.7674828991   -3.2929337682    2.3520947917
 H   -0.7646896473   -0.3871486881    4.0252728710
units bohr
0 2
}

basis {

assign 6-31g_2dfp_

[ 6-31g_2dfp_ ]

spherical

!----------------------------------------------------------------------
! Basis Set Exchange
! Version v0.8.13
! https://www.basissetexchange.org
!----------------------------------------------------------------------
!   Basis set: 6-31G(2df,p)
! Description: 6-31G(2df,p)
!        Role: orbital
!     Version: 0  (Data from the original Basis Set Exchange)
!----------------------------------------------------------------------

****
H     0
S    3   1.00
     18.7311370              0.03349460
      2.8253937              0.23472695
      0.6401217              0.81375733
S    1   1.00
      0.1612778              1.00000000
P    1   1.00
      1.5000000              1.0000000
P    1   1.00
      0.3750000              1.0000000
****
B     0
S    6   1.00
   2068.8823000              0.0018663
    310.6495700              0.0142515
     70.6830330              0.0695516
     19.8610800              0.2325729
      6.2993048              0.4670787
      2.1270270              0.3634314
SP   3   1.00
      4.7279710             -0.1303938              0.0745976
      1.1903377             -0.1307889              0.3078467
      0.3594117              1.1309444              0.7434568
SP   1   1.00
      0.1267512              1.0000000              1.0000000
D    1   1.00
      0.8020000              1.0000000
D    1   1.00
      0.2005000              1.0000000
F    1   1.00
      0.5000000              1.0000000
****
C     0
S    6   1.00
   3047.5249000              0.0018347
    457.3695100              0.0140373
    103.9486900              0.0688426
     29.2101550              0.2321844
      9.2866630              0.4679413
      3.1639270              0.3623120
SP   3   1.00
      7.8682724             -0.1193324              0.0689991
      1.8812885             -0.1608542              0.3164240
      0.5442493              1.1434564              0.7443083
SP   1   1.00
      0.1687144              1.0000000              1.0000000
D    1   1.00
      1.2520000              1.0000000
D    1   1.00
      0.3130000              1.0000000
F    1   1.00
      0.8000000              1.0000000
****
N     0
S    6   1.00
   4173.5110000              0.0018348
    627.4579000              0.0139950
    142.9021000              0.0685870
     40.2343300              0.2322410
     12.8202100              0.4690700
      4.3904370              0.3604550
SP   3   1.00
     11.6263580             -0.1149610              0.0675800
      2.7162800             -0.1691180              0.3239070
      0.7722180              1.1458520              0.7408950
SP   1   1.00
      0.2120313              1.0000000              1.0000000
D    1   1.00
      1.8260000              1.0000000
D    1   1.00
      0.4565000              1.0000000
F    1   1.00
      1.0000000              1.0000000
****
O     0
S    6   1.00
   5484.6717000              0.0018311
    825.2349500              0.0139501
    188.0469600              0.0684451
     52.9645000              0.2327143
     16.8975700              0.4701930
      5.7996353              0.3585209
SP   3   1.00
     15.5396160             -0.1107775              0.0708743
      3.5999336             -0.1480263              0.3397528
      1.0137618              1.1307670              0.7271586
SP   1   1.00
      0.2700058              1.0000000              1.0000000
D    1   1.00
      2.5840000              1.0000000
D    1   1.00
      0.6460000              1.0000000
F    1   1.00
      1.4000000              1.0000000
****
F     0
S    6   1.00
   7001.7130900              0.0018196169
   1051.3660900              0.0139160796
    239.2856900              0.0684053245
     67.3974453              0.233185760
     21.5199573              0.471267439
      7.40310130             0.356618546
SP   3   1.00
     20.8479528             -0.108506975            0.0716287243
      4.80830834            -0.146451658            0.3459121030
      1.34406986             1.128688580            0.7224699570
SP   1   1.00
      0.358151393            1.0000000              1.0000000
D    1   1.00
      3.5000000              1.0000000
D    1   1.00
      0.8750000              1.0000000
F    1   1.00
      1.8500000              1.0000000
****
Al     0
S    6   1.00
  13983.1000000              0.00194267
   2098.7500000              0.0148599
    477.7050000              0.0728494
    134.3600000              0.2468300
     42.8709000              0.4872580
     14.5189000              0.3234960
SP   6   1.00
    239.6680000             -0.00292619             0.00460285
     57.4419000             -0.0374080              0.0331990
     18.2859000             -0.1144870              0.1362820
      6.5991400              0.1156350              0.3304760
      2.4904900              0.6125950              0.4491460
      0.9445400              0.3937990              0.2657040
SP   3   1.00
      1.2779000             -0.2276060             -0.0175130
      0.3975900              0.00144583             0.2445330
      0.1600950              1.0927900              0.8049340
SP   1   1.00
      0.0556577              1.0000000              1.0000000
D    1   1.00
      0.6500000              1.0000000
D    1   1.00
      0.1625000              1.0000000
F    1   1.00
      0.2500000              1.0000000
****
Si     0
S    6   1.00
  16115.9000000              0.00195948
   2425.5800000              0.01492880
    553.8670000              0.07284780
    156.3400000              0.24613000
     50.0683000              0.48591400
     17.0178000              0.32500200
SP   6   1.00
    292.7180000             -0.00278094             0.00443826
     69.8731000             -0.03571460             0.03266790
     22.3363000             -0.11498500             0.13472100
      8.1503900              0.09356340             0.32867800
      3.1345800              0.60301700             0.44964000
      1.2254300              0.41895900             0.26137200
SP   3   1.00
      1.7273800             -0.24463000            -0.01779510
      0.5729220              0.00431572             0.25353900
      0.2221920              1.09818000             0.80066900
SP   1   1.00
      0.0778369              1.00000000             1.00000000
D    1   1.00
      0.9000000              1.0000000
D    1   1.00
      0.2250000              1.0000000
F    1   1.00
      0.3200000              1.0000000
****
P     0
S    6   1.00
  19413.3000000              0.0018516
   2909.4200000              0.0142062
    661.3640000              0.0699995
    185.7590000              0.2400790
     59.1943000              0.4847620
     20.0310000              0.3352000
SP   6   1.00
    339.4780000             -0.00278217             0.00456462
     81.0101000             -0.0360499              0.03369360
     25.8780000             -0.1166310              0.13975500
      9.4522100              0.0968328              0.33936200
      3.6656600              0.6144180              0.45092100
      1.4674600              0.4037980              0.23858600
SP   3   1.00
      2.1562300             -0.2529230             -0.01776530
      0.7489970              0.0328517              0.27405800
      0.2831450              1.0812500              0.78542100
SP   1   1.00
      0.0998317              1.0000000              1.00000000
D    1   1.00
      1.1000000              1.0000000
D    1   1.00
      0.2750000              1.0000000
F    1   1.00
      0.4500000              1.0000000
****
S     0
S    6   1.00
  21917.1000000              0.0018690
   3301.4900000              0.0142300
    754.1460000              0.0696960
    212.7110000              0.2384870
     67.9896000              0.4833070
     23.0515000              0.3380740
SP   6   1.00
    423.7350000             -0.0023767              0.0040610
    100.7100000             -0.0316930              0.0306810
     32.1599000             -0.1133170              0.1304520
     11.8079000              0.0560900              0.3272050
      4.6311000              0.5922550              0.4528510
      1.8702500              0.4550060              0.2560420
SP   3   1.00
      2.6158400             -0.2503740             -0.0145110
      0.9221670              0.0669570              0.3102630
      0.3412870              1.0545100              0.7544830
SP   1   1.00
      0.1171670              1.0000000              1.0000000
D    1   1.00
      1.3000000              1.0000000
D    1   1.00
      0.3250000              1.0000000
F    1   1.00
      0.5500000              1.0000000
****
Cl     0
S    6   1.00
  25180.1000000              0.0018330
   3780.3500000              0.0140340
    860.4740000              0.0690970
    242.1450000              0.2374520
     77.3349000              0.4830340
     26.2470000              0.3398560
SP   6   1.00
    491.7650000             -0.0022974              0.0039894
    116.9840000             -0.0307140              0.0303180
     37.4153000             -0.1125280              0.1298800
     13.7834000              0.0450160              0.3279510
      5.4521500              0.5893530              0.4535270
      2.2258800              0.4652060              0.2521540
SP   3   1.00
      3.1864900             -0.2518300             -0.0142990
      1.1442700              0.0615890              0.3235720
      0.4203770              1.0601800              0.7435070
SP   1   1.00
      0.1426570              1.0000000              1.0000000
D    1   1.00
      1.5000000              1.0000000
D    1   1.00
      0.3750000              1.0000000
F    1   1.00
      0.7000000              1.0000000
****
}

set {
reference uhf
freeze_core true
e_convergence 10
d_convergence 10
dft_spherical_points 1202
dft_radial_points 99
}

e = energy('b3lyp')

print_out('Grab this energy {0}'.format(e))
--------------------------------------------------------------------------

    Molecular point group: c1

    Geometry (in Bohr), charge = 0, multiplicity = 2:

       Center              X                  Y                   Z               Mass
    ------------   -----------------  -----------------  -----------------  -----------------
         C           -0.323340326496     0.000203926531     0.000206034335    12.000000000000
         C            0.062659486504    -1.400880172669    -2.426247162165    12.000000000000
         C            0.059909165404     2.801842759631    -0.000188502165    12.000000000000
         C            0.060732621704    -1.401116068169     2.426278592335    12.000000000000
         H            2.091353539704    -1.648895492269    -2.854362471665     1.007825032230
         H           -0.762806554996    -0.385686633969    -4.021161529765     1.007825032230
         H           -0.763676803196    -3.289707643269    -2.345725625565     1.007825032230
         H            2.083545403304     3.281974077131    -0.001892518365     1.007825032230
         H           -0.766322069996     3.682129492431     1.677144997335     1.007825032230
         H           -0.768245381796     3.684964985831    -1.676075630365     1.007825032230
         H            2.085746988604    -1.645216068069     2.844204287035     1.007825032230
         H           -0.767483680996    -3.292974220869     2.352053712935     1.007825032230
         H           -0.764690429196    -0.387189140769     4.025231792235     1.007825032230

  Charge       = 0
  Multiplicity = 2
  Basis Set: ANONYMOUSEBE1CEE1
    Blend: 6-31G_2DFP_
  Basis Set: (ANONYMOUSEBE1CEE1 AUX)
    Blend: DEF2-UNIVERSAL-JKFIT

    Orbital Energies [Eh]
    ---------------------

    Alpha Occupied:

       1A    -10.180343     2A    -10.167057     3A    -10.167027
       4A    -10.166961     5A     -0.797767     6A     -0.686229
       7A     -0.686146     8A     -0.530775     9A     -0.441127
      10A     -0.434795    11A     -0.434549    12A     -0.382917
      13A     -0.382278    14A     -0.363610    15A     -0.338215
      16A     -0.337783    17A     -0.168961

    Alpha Virtual:

      18A      0.076073    19A      0.134085    20A      0.134223
      21A      0.142336    22A      0.142918    23A      0.154881
      24A      0.178580    25A      0.178969    26A      0.203554
      27A      0.214802    28A      0.275955    29A      0.276015
      30A      0.399049    31A      0.399405    32A      0.403344
      33A      0.423953    34A      0.424243    35A      0.456596
      36A      0.495373    37A      0.495404    38A      0.512163
      39A      0.513984    40A      0.578628    41A      0.578983
      42A      0.591237    43A      0.591995    44A      0.602631
      45A      0.624764    46A      0.631725    47A      0.635944
      48A      0.636603    49A      0.663356    50A      0.663472
      51A      0.683690    52A      0.684013    53A      0.734992
      54A      0.825320    55A      0.825491    56A      0.853915
      57A      0.914568    58A      0.915477    59A      0.944092
      60A      0.944613    61A      0.961187    62A      0.961443
      63A      1.003450    64A      1.127532    65A      1.128685
      66A      1.142188    67A      1.163042    68A      1.163521
      69A      1.223326    70A      1.274341    71A      1.274610
      72A      1.279387    73A      1.324257    74A      1.324446
      75A      1.355958    76A      1.366049    77A      1.366086
      78A      1.392446    79A      1.403349    80A      1.404732
      81A      1.416626    82A      1.417565    83A      1.427941
      84A      1.491509    85A      1.499044    86A      1.542810
      87A      1.542876    88A      1.573768    89A      1.575155
      90A      1.669833    91A      1.739264    92A      1.739544
      93A      1.768342    94A      1.830793    95A      1.832013
      96A      1.971716    97A      2.018298    98A      2.018940
      99A      2.019169   100A      2.051994   101A      2.053290
     102A      2.738475   103A      2.738504   104A      2.790929
     105A      2.811431   106A      2.889714   107A      2.890131
     108A      2.895012   109A      2.929064   110A      2.929922
     111A      2.958983   112A      2.964132   113A      2.964639
     114A      3.033997   115A      3.070375   116A      3.072198
     117A      3.084352   118A      3.168462   119A      3.169110
     120A      3.180573   121A      3.285151   122A      3.285480
     123A      3.325925   124A      3.328415   125A      3.375617
     126A      3.488642   127A      3.491672   128A      3.514000
     129A      3.525341   130A      3.568020   131A      3.568479
     132A      3.575430   133A      3.665703   134A      3.667017
     135A      3.679670   136A      3.693171   137A      3.695047
     138A      3.776691   139A      3.776892   140A      3.789224
     141A      3.912048   142A      3.912421   143A      4.034441
     144A      4.111183   145A      4.111542   146A      4.148060
     147A      4.148152   148A      4.173249   149A      4.202074
     150A      4.202706   151A      4.204049   152A      4.210829
     153A      4.315697   154A      4.316225   155A      4.358978
     156A      4.424342   157A      4.424616   158A      4.443390
     159A      4.515883   160A      4.517737   161A      4.578267
     162A      4.578301   163A      4.617630   164A      4.709348
     165A      4.773806   166A      4.775418   167A      4.836921
     168A      4.962866   169A      5.002180   170A      5.003732
     171A      5.228091   172A      5.246036   173A      5.247589
     174A      5.355436   175A      5.355592   176A      5.479343

    Beta Occupied:

       1A    -10.167808     2A    -10.167785     3A    -10.167731
       4A    -10.166520     5A     -0.781092     6A     -0.684025
       7A     -0.683956     8A     -0.511747     9A     -0.431182
      10A     -0.430904    11A     -0.421825    12A     -0.377011
      13A     -0.376353    14A     -0.362594    15A     -0.333322
      16A     -0.332922

    Beta Virtual:

      17A     -0.025743    18A      0.077082    19A      0.134985
      20A      0.135103    21A      0.144239    22A      0.144757
      23A      0.163340    24A      0.182247    25A      0.182647
      26A      0.215031    27A      0.218934    28A      0.282296
      29A      0.282370    30A      0.400224    31A      0.400569
      32A      0.419792    33A      0.426762    34A      0.427056
      35A      0.468503    36A      0.497632    37A      0.497669
      38A      0.513898    39A      0.556326    40A      0.584171
      41A      0.584544    42A      0.597416    43A      0.598181
      44A      0.610043    45A      0.628141    46A      0.631900
      47A      0.639231    48A      0.639868    49A      0.666907
      50A      0.667048    51A      0.686348    52A      0.686626
      53A      0.757515    54A      0.830493    55A      0.830655
      56A      0.855268    57A      0.922577    58A      0.923413
      59A      0.945932    60A      0.953536    61A      0.966514
      62A      0.966728    63A      1.008690    64A      1.131624
      65A      1.132648    66A      1.155554    67A      1.168070
      68A      1.168654    69A      1.232297    70A      1.279957
      71A      1.280193    72A      1.285138    73A      1.329239
      74A      1.329442    75A      1.365346    76A      1.371272
      77A      1.371380    78A      1.393505    79A      1.406805
      80A      1.408203    81A      1.421678    82A      1.422582
      83A      1.428239    84A      1.492557    85A      1.509481
      86A      1.547086    87A      1.547432    88A      1.581507
      89A      1.583150    90A      1.674680    91A      1.745033
      92A      1.745302    93A      1.779119    94A      1.834655
      95A      1.835863    96A      1.972577    97A      2.025371
      98A      2.025543    99A      2.039666   100A      2.058696
     101A      2.060022   102A      2.746794   103A      2.746856
     104A      2.811843   105A      2.816064   106A      2.902376
     107A      2.902899   108A      2.924659   109A      2.931570
     110A      2.932386   111A      2.960056   112A      2.968669
     113A      2.969182   114A      3.041932   115A      3.080225
     116A      3.082167   117A      3.086170   118A      3.184215
     119A      3.184865   120A      3.188247   121A      3.289897
     122A      3.290331   123A      3.329744   124A      3.332204
     125A      3.383435   126A      3.491405   127A      3.494370
     128A      3.512367   129A      3.528386   130A      3.574783
     131A      3.581555   132A      3.582127   133A      3.670487
     134A      3.671739   135A      3.692950   136A      3.725163
     137A      3.726343   138A      3.781257   139A      3.781396
     140A      3.817737   141A      3.921856   142A      3.922245
     143A      4.045330   144A      4.118040   145A      4.118321
     146A      4.155152   147A      4.155475   148A      4.187305
     149A      4.208452   150A      4.209153   151A      4.211068
     152A      4.215302   153A      4.323178   154A      4.323627
     155A      4.362338   156A      4.432541   157A      4.432847
     158A      4.446273   159A      4.523685   160A      4.525516
     161A      4.588844   162A      4.588925   163A      4.624823
     164A      4.719690   165A      4.780720   166A      4.782414
     167A      4.839839   168A      4.967661   169A      5.006242
     170A      5.007750   171A      5.233806   172A      5.247823
     173A      5.249370   174A      5.361927   175A      5.362062
     176A      5.481664

    Final Occupation by Irrep:
              A
    DOCC [    16 ]
    SOCC [     1 ]

  @DF-UKS Final Energy:  -157.81306131179042

   => Energetics <=

    Nuclear Repulsion Energy =            125.3946225352643751
    One-Electron Energy =                -458.7488824661512581
    Two-Electron Energy =                 195.8483427466845797
    DFT Exchange-Correlation Energy =     -20.3071441275881241
    Empirical Dispersion Energy =           0.0000000000000000
    VV10 Nonlocal Energy =                  0.0000000000000000
    Total Energy =                       -157.8130613117904204

  UHF NO Occupations:
  HONO-2 :   15  A 1.9996008
  HONO-1 :   16  A 1.9989805
  HONO-0 :   17  A 1.0000000
  LUNO+0 :   18  A 0.0010195
  LUNO+1 :   19  A 0.0003992
  LUNO+2 :   20  A 0.0001978
  LUNO+3 :   21  A 0.0001973

Computation Completed

Properties will be evaluated at   0.000000,   0.000000,   0.000000 [a0]

Properties computed using the SCF density matrix

  Nuclear Dipole Moment: [e a0]
     X:     0.8272      Y:    -0.0003      Z:    -0.0003

  Electronic Dipole Moment: [e a0]
     X:    -0.7493      Y:     0.0011      Z:     0.0011

  Dipole Moment: [e a0]
     X:     0.0779      Y:     0.0008      Z:     0.0008     Total:     0.0779

  Dipole Moment: [D]
     X:     0.1980      Y:     0.0019      Z:     0.0020     Total:     0.1980

*** tstop() called on n079 at Fri Nov  5 15:16:02 2021
Module time:
	user time   =     589.09 seconds =       9.82 minutes
	system time =       5.36 seconds =       0.09 minutes
	total time  =        150 seconds =       2.50 minutes
Total time:
	user time   =     589.09 seconds =       9.82 minutes
	system time =       5.36 seconds =       0.09 minutes
	total time  =        150 seconds =       2.50 minutes
Grab this energy -157.81306131179042
    Psi4 stopped on: Friday, 05 November 2021 03:16PM
    Psi4 wall time for execution: 0:02:29.40

*** Psi4 exiting successfully. Buy a developer a beer!
