                               Psi4 1.4a2.dev629

  ==> Input File <==

--------------------------------------------------------------------------
import os
memory 14 GB

molecule {
 C   -0.3233547969    0.0000050605   -0.0049989519
 C    0.0605257580   -1.4066625300   -2.4301844163
 C    0.0609263352    2.8010868026    0.0062261498
 C    0.0615713555   -1.3944169473    2.4214269080
 H    2.0894169587   -1.6527050026   -2.8512064413
 H   -0.7664653366   -0.3951697051   -4.0339979943
 H   -0.7693945204   -3.3002648544   -2.3479686316
 H    2.0899478157    3.2877194553    0.0111436589
 H   -0.7699368921    3.6728266499    1.6887120769
 H   -0.7644160206    3.6880337083   -1.6698278734
 H    2.0907658285   -1.6351210206    2.8430376552
 H   -0.7648009758   -3.2887337220    2.3475585809
 H   -0.7673933859   -0.3766222083    4.0200792790
units bohr
0 2
}

basis {

assign 6-31g_2dfp_

[ 6-31g_2dfp_ ]

spherical

!----------------------------------------------------------------------
! Basis Set Exchange
! Version v0.8.13
! https://www.basissetexchange.org
!----------------------------------------------------------------------
!   Basis set: 6-31G(2df,p)
! Description: 6-31G(2df,p)
!        Role: orbital
!     Version: 0  (Data from the original Basis Set Exchange)
!----------------------------------------------------------------------

****
H     0
S    3   1.00
     18.7311370              0.03349460
      2.8253937              0.23472695
      0.6401217              0.81375733
S    1   1.00
      0.1612778              1.00000000
P    1   1.00
      1.5000000              1.0000000
P    1   1.00
      0.3750000              1.0000000
****
B     0
S    6   1.00
   2068.8823000              0.0018663
    310.6495700              0.0142515
     70.6830330              0.0695516
     19.8610800              0.2325729
      6.2993048              0.4670787
      2.1270270              0.3634314
SP   3   1.00
      4.7279710             -0.1303938              0.0745976
      1.1903377             -0.1307889              0.3078467
      0.3594117              1.1309444              0.7434568
SP   1   1.00
      0.1267512              1.0000000              1.0000000
D    1   1.00
      0.8020000              1.0000000
D    1   1.00
      0.2005000              1.0000000
F    1   1.00
      0.5000000              1.0000000
****
C     0
S    6   1.00
   3047.5249000              0.0018347
    457.3695100              0.0140373
    103.9486900              0.0688426
     29.2101550              0.2321844
      9.2866630              0.4679413
      3.1639270              0.3623120
SP   3   1.00
      7.8682724             -0.1193324              0.0689991
      1.8812885             -0.1608542              0.3164240
      0.5442493              1.1434564              0.7443083
SP   1   1.00
      0.1687144              1.0000000              1.0000000
D    1   1.00
      1.2520000              1.0000000
D    1   1.00
      0.3130000              1.0000000
F    1   1.00
      0.8000000              1.0000000
****
N     0
S    6   1.00
   4173.5110000              0.0018348
    627.4579000              0.0139950
    142.9021000              0.0685870
     40.2343300              0.2322410
     12.8202100              0.4690700
      4.3904370              0.3604550
SP   3   1.00
     11.6263580             -0.1149610              0.0675800
      2.7162800             -0.1691180              0.3239070
      0.7722180              1.1458520              0.7408950
SP   1   1.00
      0.2120313              1.0000000              1.0000000
D    1   1.00
      1.8260000              1.0000000
D    1   1.00
      0.4565000              1.0000000
F    1   1.00
      1.0000000              1.0000000
****
O     0
S    6   1.00
   5484.6717000              0.0018311
    825.2349500              0.0139501
    188.0469600              0.0684451
     52.9645000              0.2327143
     16.8975700              0.4701930
      5.7996353              0.3585209
SP   3   1.00
     15.5396160             -0.1107775              0.0708743
      3.5999336             -0.1480263              0.3397528
      1.0137618              1.1307670              0.7271586
SP   1   1.00
      0.2700058              1.0000000              1.0000000
D    1   1.00
      2.5840000              1.0000000
D    1   1.00
      0.6460000              1.0000000
F    1   1.00
      1.4000000              1.0000000
****
F     0
S    6   1.00
   7001.7130900              0.0018196169
   1051.3660900              0.0139160796
    239.2856900              0.0684053245
     67.3974453              0.233185760
     21.5199573              0.471267439
      7.40310130             0.356618546
SP   3   1.00
     20.8479528             -0.108506975            0.0716287243
      4.80830834            -0.146451658            0.3459121030
      1.34406986             1.128688580            0.7224699570
SP   1   1.00
      0.358151393            1.0000000              1.0000000
D    1   1.00
      3.5000000              1.0000000
D    1   1.00
      0.8750000              1.0000000
F    1   1.00
      1.8500000              1.0000000
****
Al     0
S    6   1.00
  13983.1000000              0.00194267
   2098.7500000              0.0148599
    477.7050000              0.0728494
    134.3600000              0.2468300
     42.8709000              0.4872580
     14.5189000              0.3234960
SP   6   1.00
    239.6680000             -0.00292619             0.00460285
     57.4419000             -0.0374080              0.0331990
     18.2859000             -0.1144870              0.1362820
      6.5991400              0.1156350              0.3304760
      2.4904900              0.6125950              0.4491460
      0.9445400              0.3937990              0.2657040
SP   3   1.00
      1.2779000             -0.2276060             -0.0175130
      0.3975900              0.00144583             0.2445330
      0.1600950              1.0927900              0.8049340
SP   1   1.00
      0.0556577              1.0000000              1.0000000
D    1   1.00
      0.6500000              1.0000000
D    1   1.00
      0.1625000              1.0000000
F    1   1.00
      0.2500000              1.0000000
****
Si     0
S    6   1.00
  16115.9000000              0.00195948
   2425.5800000              0.01492880
    553.8670000              0.07284780
    156.3400000              0.24613000
     50.0683000              0.48591400
     17.0178000              0.32500200
SP   6   1.00
    292.7180000             -0.00278094             0.00443826
     69.8731000             -0.03571460             0.03266790
     22.3363000             -0.11498500             0.13472100
      8.1503900              0.09356340             0.32867800
      3.1345800              0.60301700             0.44964000
      1.2254300              0.41895900             0.26137200
SP   3   1.00
      1.7273800             -0.24463000            -0.01779510
      0.5729220              0.00431572             0.25353900
      0.2221920              1.09818000             0.80066900
SP   1   1.00
      0.0778369              1.00000000             1.00000000
D    1   1.00
      0.9000000              1.0000000
D    1   1.00
      0.2250000              1.0000000
F    1   1.00
      0.3200000              1.0000000
****
P     0
S    6   1.00
  19413.3000000              0.0018516
   2909.4200000              0.0142062
    661.3640000              0.0699995
    185.7590000              0.2400790
     59.1943000              0.4847620
     20.0310000              0.3352000
SP   6   1.00
    339.4780000             -0.00278217             0.00456462
     81.0101000             -0.0360499              0.03369360
     25.8780000             -0.1166310              0.13975500
      9.4522100              0.0968328              0.33936200
      3.6656600              0.6144180              0.45092100
      1.4674600              0.4037980              0.23858600
SP   3   1.00
      2.1562300             -0.2529230             -0.01776530
      0.7489970              0.0328517              0.27405800
      0.2831450              1.0812500              0.78542100
SP   1   1.00
      0.0998317              1.0000000              1.00000000
D    1   1.00
      1.1000000              1.0000000
D    1   1.00
      0.2750000              1.0000000
F    1   1.00
      0.4500000              1.0000000
****
S     0
S    6   1.00
  21917.1000000              0.0018690
   3301.4900000              0.0142300
    754.1460000              0.0696960
    212.7110000              0.2384870
     67.9896000              0.4833070
     23.0515000              0.3380740
SP   6   1.00
    423.7350000             -0.0023767              0.0040610
    100.7100000             -0.0316930              0.0306810
     32.1599000             -0.1133170              0.1304520
     11.8079000              0.0560900              0.3272050
      4.6311000              0.5922550              0.4528510
      1.8702500              0.4550060              0.2560420
SP   3   1.00
      2.6158400             -0.2503740             -0.0145110
      0.9221670              0.0669570              0.3102630
      0.3412870              1.0545100              0.7544830
SP   1   1.00
      0.1171670              1.0000000              1.0000000
D    1   1.00
      1.3000000              1.0000000
D    1   1.00
      0.3250000              1.0000000
F    1   1.00
      0.5500000              1.0000000
****
Cl     0
S    6   1.00
  25180.1000000              0.0018330
   3780.3500000              0.0140340
    860.4740000              0.0690970
    242.1450000              0.2374520
     77.3349000              0.4830340
     26.2470000              0.3398560
SP   6   1.00
    491.7650000             -0.0022974              0.0039894
    116.9840000             -0.0307140              0.0303180
     37.4153000             -0.1125280              0.1298800
     13.7834000              0.0450160              0.3279510
      5.4521500              0.5893530              0.4535270
      2.2258800              0.4652060              0.2521540
SP   3   1.00
      3.1864900             -0.2518300             -0.0142990
      1.1442700              0.0615890              0.3235720
      0.4203770              1.0601800              0.7435070
SP   1   1.00
      0.1426570              1.0000000              1.0000000
D    1   1.00
      1.5000000              1.0000000
D    1   1.00
      0.3750000              1.0000000
F    1   1.00
      0.7000000              1.0000000
****
}

set {
reference uhf
freeze_core true
e_convergence 10
d_convergence 10
dft_spherical_points 1202
dft_radial_points 99
}

e = energy('b3lyp')

print_out('Grab this energy {0}'.format(e))
--------------------------------------------------------------------------

    Molecular point group: c1

    Geometry (in Bohr), charge = 0, multiplicity = 2:

       Center              X                  Y                   Z               Mass
    ------------   -----------------  -----------------  -----------------  -----------------
         C           -0.323298678219     0.000003104269    -0.003548559877    12.000000000000
         C            0.060581876681    -1.406664486231    -2.428734024277    12.000000000000
         C            0.060982453881     2.801084846369     0.007676541823    12.000000000000
         C            0.061627474181    -1.394418903531     2.422877300023    12.000000000000
         H            2.089473077381    -1.652706958831    -2.849756049277     1.007825032230
         H           -0.766409217919    -0.395171661331    -4.032547602277     1.007825032230
         H           -0.769338401719    -3.300266810631    -2.346518239577     1.007825032230
         H            2.090003934381     3.287717499069     0.012594050923     1.007825032230
         H           -0.769880773419     3.672824693669     1.690162468923     1.007825032230
         H           -0.764359901919     3.688031752069    -1.668377481377     1.007825032230
         H            2.090821947181    -1.635122976831     2.844488047223     1.007825032230
         H           -0.764744857119    -3.288735678231     2.349008972923     1.007825032230
         H           -0.767337267219    -0.376624164531     4.021529671023     1.007825032230

  Charge       = 0
  Multiplicity = 2
  Basis Set: ANONYMOUS8851C151
    Blend: 6-31G_2DFP_
  Basis Set: (ANONYMOUS8851C151 AUX)
    Blend: DEF2-UNIVERSAL-JKFIT

    Orbital Energies [Eh]
    ---------------------

    Alpha Occupied:

       1A    -10.180410     2A    -10.167822     3A    -10.167551
       4A    -10.167279     5A     -0.797809     6A     -0.686048
       7A     -0.685605     8A     -0.530465     9A     -0.441026
      10A     -0.434797    11A     -0.434267    12A     -0.382485
      13A     -0.382194    14A     -0.363295    15A     -0.338266
      16A     -0.337718    17A     -0.169023

    Alpha Virtual:

      18A      0.075739    19A      0.133546    20A      0.134029
      21A      0.142080    22A      0.142356    23A      0.154582
      24A      0.178048    25A      0.178496    26A      0.203654
      27A      0.214352    28A      0.275794    29A      0.276132
      30A      0.399106    31A      0.399391    32A      0.403210
      33A      0.423694    34A      0.423963    35A      0.456461
      36A      0.494762    37A      0.495562    38A      0.511903
      39A      0.513854    40A      0.578218    41A      0.578719
      42A      0.591017    43A      0.591054    44A      0.601925
      45A      0.623796    46A      0.631069    47A      0.635468
      48A      0.635911    49A      0.662862    50A      0.663298
      51A      0.683062    52A      0.683555    53A      0.734683
      54A      0.823763    55A      0.825405    56A      0.853397
      57A      0.914071    58A      0.914561    59A      0.943429
      60A      0.943728    61A      0.960481    62A      0.961003
      63A      1.003370    64A      1.126530    65A      1.128871
      66A      1.141341    67A      1.162526    68A      1.163495
      69A      1.222889    70A      1.273443    71A      1.274483
      72A      1.279800    73A      1.323557    74A      1.323727
      75A      1.355139    76A      1.364795    77A      1.366252
      78A      1.391850    79A      1.402254    80A      1.403868
      81A      1.415686    82A      1.416678    83A      1.427173
      84A      1.490547    85A      1.497707    86A      1.541999
      87A      1.542640    88A      1.572435    89A      1.576233
      90A      1.667657    91A      1.736916    92A      1.739018
      93A      1.766836    94A      1.828413    95A      1.829443
      96A      1.970096    97A      2.016403    98A      2.017201
      99A      2.019274   100A      2.049055   101A      2.054161
     102A      2.737241   103A      2.737777   104A      2.790710
     105A      2.810928   106A      2.889289   107A      2.889479
     108A      2.894869   109A      2.928951   110A      2.929276
     111A      2.958370   112A      2.962837   113A      2.964655
     114A      3.033111   115A      3.069331   116A      3.071320
     117A      3.083463   118A      3.168699   119A      3.170240
     120A      3.180263   121A      3.284635   122A      3.286056
     123A      3.326726   124A      3.328632   125A      3.376359
     126A      3.490633   127A      3.491600   128A      3.514329
     129A      3.525930   130A      3.567028   131A      3.569285
     132A      3.576998   133A      3.665516   134A      3.665776
     135A      3.677828   136A      3.692832   137A      3.693746
     138A      3.775404   139A      3.777024   140A      3.788728
     141A      3.909872   142A      3.912702   143A      4.032123
     144A      4.107546   145A      4.110278   146A      4.143158
     147A      4.146423   148A      4.170280   149A      4.199922
     150A      4.201284   151A      4.203301   152A      4.207326
     153A      4.313689   154A      4.313742   155A      4.356589
     156A      4.421686   157A      4.421958   158A      4.441511
     159A      4.513594   160A      4.515261   161A      4.575720
     162A      4.577856   163A      4.616849   164A      4.707422
     165A      4.771501   166A      4.774155   167A      4.834590
     168A      4.962086   169A      5.000884   170A      5.002863
     171A      5.222736   172A      5.241364   173A      5.241690
     174A      5.350213   175A      5.351620   176A      5.476113

    Beta Occupied:

       1A    -10.168581     2A    -10.168312     3A    -10.168043
       4A    -10.166601     5A     -0.781107     6A     -0.683856
       7A     -0.683406     8A     -0.511494     9A     -0.431168
      10A     -0.430621    11A     -0.421687    12A     -0.376572
      13A     -0.376261    14A     -0.362276    15A     -0.333403
      16A     -0.332847

    Beta Virtual:

      17A     -0.025977    18A      0.076752    19A      0.134418
      20A      0.134921    21A      0.143984    22A      0.144249
      23A      0.163104    24A      0.181719    25A      0.182187
      26A      0.214584    27A      0.219017    28A      0.282121
      29A      0.282483    30A      0.400337    31A      0.400570
      32A      0.419577    33A      0.426487    34A      0.426788
      35A      0.468390    36A      0.497022    37A      0.497829
      38A      0.513644    39A      0.556137    40A      0.583782
      41A      0.584223    42A      0.597161    43A      0.597226
      44A      0.609358    45A      0.627189    46A      0.631233
      47A      0.638759    48A      0.639234    49A      0.666395
      50A      0.666880    51A      0.685680    52A      0.686280
      53A      0.757181    54A      0.828923    55A      0.830585
      56A      0.854775    57A      0.922043    58A      0.922559
      59A      0.945289    60A      0.952621    61A      0.965743
      62A      0.966365    63A      1.008596    64A      1.130580
      65A      1.132907    66A      1.154724    67A      1.167540
      68A      1.168574    69A      1.231876    70A      1.279049
      71A      1.280096    72A      1.285566    73A      1.328505
      74A      1.328706    75A      1.364532    76A      1.369934
      77A      1.371595    78A      1.392917    79A      1.405757
      80A      1.407309    81A      1.420731    82A      1.421724
      83A      1.427457    84A      1.491593    85A      1.508149
      86A      1.546438    87A      1.547274    88A      1.580340
      89A      1.583856    90A      1.672430    91A      1.742676
      92A      1.744770    93A      1.777670    94A      1.832281
      95A      1.833346    96A      1.970962    97A      2.022768
      98A      2.025754    99A      2.038580   100A      2.055866
     101A      2.060790   102A      2.745520   103A      2.746147
     104A      2.811337   105A      2.815819   106A      2.901969
     107A      2.902084   108A      2.924537   109A      2.931579
     110A      2.931716   111A      2.959432   112A      2.967368
     113A      2.969125   114A      3.041126   115A      3.079029
     116A      3.081201   117A      3.085410   118A      3.184599
     119A      3.185910   120A      3.187897   121A      3.289557
     122A      3.290846   123A      3.330515   124A      3.332438
     125A      3.384152   126A      3.493321   127A      3.494273
     128A      3.512699   129A      3.528969   130A      3.576346
     131A      3.580617   132A      3.582839   133A      3.669988
     134A      3.670281   135A      3.691063   136A      3.724658
     137A      3.725463   138A      3.779963   139A      3.781623
     140A      3.817168   141A      3.919703   142A      3.922533
     143A      4.042887   144A      4.114290   145A      4.117006
     146A      4.150461   147A      4.153621   148A      4.184483
     149A      4.205835   150A      4.209109   151A      4.209412
     152A      4.211897   153A      4.321195   154A      4.321279
     155A      4.359961   156A      4.429923   157A      4.430168
     158A      4.444456   159A      4.521491   160A      4.522960
     161A      4.586275   162A      4.588570   163A      4.624050
     164A      4.717772   165A      4.778421   166A      4.781148
     167A      4.837504   168A      4.966906   169A      5.004944
     170A      5.006921   171A      5.228474   172A      5.243150
     173A      5.243487   174A      5.356702   175A      5.358146
     176A      5.478446

    Final Occupation by Irrep:
              A
    DOCC [    16 ]
    SOCC [     1 ]

  @DF-UKS Final Energy:  -157.81308442058940

   => Energetics <=

    Nuclear Repulsion Energy =            125.3575248073155706
    One-Electron Energy =                -458.6785625025053150
    Two-Electron Energy =                 195.8110789772599389
    DFT Exchange-Correlation Energy =     -20.3031257026596279
    Empirical Dispersion Energy =           0.0000000000000000
    VV10 Nonlocal Energy =                  0.0000000000000000
    Total Energy =                       -157.8130844205894050

  UHF NO Occupations:
  HONO-2 :   15  A 1.9995983
  HONO-1 :   16  A 1.9989811
  HONO-0 :   17  A 1.0000000
  LUNO+0 :   18  A 0.0010189
  LUNO+1 :   19  A 0.0004017
  LUNO+2 :   20  A 0.0001975
  LUNO+3 :   21  A 0.0001968

Computation Completed

Properties will be evaluated at   0.000000,   0.000000,   0.000000 [a0]

Properties computed using the SCF density matrix

  Nuclear Dipole Moment: [e a0]
     X:     0.8276      Y:    -0.0000      Z:     0.0102

  Electronic Dipole Moment: [e a0]
     X:    -0.7503      Y:     0.0000      Z:    -0.0110

  Dipole Moment: [e a0]
     X:     0.0773      Y:    -0.0000      Z:    -0.0008     Total:     0.0773

  Dipole Moment: [D]
     X:     0.1964      Y:    -0.0000      Z:    -0.0019     Total:     0.1964

*** tstop() called on n082 at Fri Nov  5 15:01:24 2021
Module time:
	user time   =     499.10 seconds =       8.32 minutes
	system time =       4.60 seconds =       0.08 minutes
	total time  =        127 seconds =       2.12 minutes
Total time:
	user time   =     499.10 seconds =       8.32 minutes
	system time =       4.60 seconds =       0.08 minutes
	total time  =        127 seconds =       2.12 minutes
Grab this energy -157.8130844205894
    Psi4 stopped on: Friday, 05 November 2021 03:01PM
    Psi4 wall time for execution: 0:02:06.70

*** Psi4 exiting successfully. Buy a developer a beer!
