                               Psi4 1.4a2.dev629

  ==> Input File <==

--------------------------------------------------------------------------
import os
memory 14 GB

molecule {
 C   -0.3233401224   -0.0000012027    0.0004972111
 C    0.0623320068   -1.4001642361   -2.4266949176
 C    0.0610218896    2.8017601827    0.0013501411
 C    0.0599477789   -1.4015893393    2.4260660942
 H    2.0833663568   -1.6421366200   -2.8490577186
 H   -0.7619884851   -0.3871114764   -4.0257533329
 H   -0.7656785995   -3.2958548777   -2.3470242024
 H    2.0868002551    3.2881030489    0.0027838589
 H   -0.7620873798    3.6792791782    1.6744353599
 H   -0.7692094142    3.6812252311   -1.6785628168
 H    2.0905081582   -1.6460617278    2.8458124240
 H   -0.7654580151   -3.2881413598    2.3509388958
 H   -0.7688223058   -0.3893311146    4.0252090034
units bohr
0 2
}

basis {

assign 6-31g_2dfp_

[ 6-31g_2dfp_ ]

spherical

!----------------------------------------------------------------------
! Basis Set Exchange
! Version v0.8.13
! https://www.basissetexchange.org
!----------------------------------------------------------------------
!   Basis set: 6-31G(2df,p)
! Description: 6-31G(2df,p)
!        Role: orbital
!     Version: 0  (Data from the original Basis Set Exchange)
!----------------------------------------------------------------------

****
H     0
S    3   1.00
     18.7311370              0.03349460
      2.8253937              0.23472695
      0.6401217              0.81375733
S    1   1.00
      0.1612778              1.00000000
P    1   1.00
      1.5000000              1.0000000
P    1   1.00
      0.3750000              1.0000000
****
B     0
S    6   1.00
   2068.8823000              0.0018663
    310.6495700              0.0142515
     70.6830330              0.0695516
     19.8610800              0.2325729
      6.2993048              0.4670787
      2.1270270              0.3634314
SP   3   1.00
      4.7279710             -0.1303938              0.0745976
      1.1903377             -0.1307889              0.3078467
      0.3594117              1.1309444              0.7434568
SP   1   1.00
      0.1267512              1.0000000              1.0000000
D    1   1.00
      0.8020000              1.0000000
D    1   1.00
      0.2005000              1.0000000
F    1   1.00
      0.5000000              1.0000000
****
C     0
S    6   1.00
   3047.5249000              0.0018347
    457.3695100              0.0140373
    103.9486900              0.0688426
     29.2101550              0.2321844
      9.2866630              0.4679413
      3.1639270              0.3623120
SP   3   1.00
      7.8682724             -0.1193324              0.0689991
      1.8812885             -0.1608542              0.3164240
      0.5442493              1.1434564              0.7443083
SP   1   1.00
      0.1687144              1.0000000              1.0000000
D    1   1.00
      1.2520000              1.0000000
D    1   1.00
      0.3130000              1.0000000
F    1   1.00
      0.8000000              1.0000000
****
N     0
S    6   1.00
   4173.5110000              0.0018348
    627.4579000              0.0139950
    142.9021000              0.0685870
     40.2343300              0.2322410
     12.8202100              0.4690700
      4.3904370              0.3604550
SP   3   1.00
     11.6263580             -0.1149610              0.0675800
      2.7162800             -0.1691180              0.3239070
      0.7722180              1.1458520              0.7408950
SP   1   1.00
      0.2120313              1.0000000              1.0000000
D    1   1.00
      1.8260000              1.0000000
D    1   1.00
      0.4565000              1.0000000
F    1   1.00
      1.0000000              1.0000000
****
O     0
S    6   1.00
   5484.6717000              0.0018311
    825.2349500              0.0139501
    188.0469600              0.0684451
     52.9645000              0.2327143
     16.8975700              0.4701930
      5.7996353              0.3585209
SP   3   1.00
     15.5396160             -0.1107775              0.0708743
      3.5999336             -0.1480263              0.3397528
      1.0137618              1.1307670              0.7271586
SP   1   1.00
      0.2700058              1.0000000              1.0000000
D    1   1.00
      2.5840000              1.0000000
D    1   1.00
      0.6460000              1.0000000
F    1   1.00
      1.4000000              1.0000000
****
F     0
S    6   1.00
   7001.7130900              0.0018196169
   1051.3660900              0.0139160796
    239.2856900              0.0684053245
     67.3974453              0.233185760
     21.5199573              0.471267439
      7.40310130             0.356618546
SP   3   1.00
     20.8479528             -0.108506975            0.0716287243
      4.80830834            -0.146451658            0.3459121030
      1.34406986             1.128688580            0.7224699570
SP   1   1.00
      0.358151393            1.0000000              1.0000000
D    1   1.00
      3.5000000              1.0000000
D    1   1.00
      0.8750000              1.0000000
F    1   1.00
      1.8500000              1.0000000
****
Al     0
S    6   1.00
  13983.1000000              0.00194267
   2098.7500000              0.0148599
    477.7050000              0.0728494
    134.3600000              0.2468300
     42.8709000              0.4872580
     14.5189000              0.3234960
SP   6   1.00
    239.6680000             -0.00292619             0.00460285
     57.4419000             -0.0374080              0.0331990
     18.2859000             -0.1144870              0.1362820
      6.5991400              0.1156350              0.3304760
      2.4904900              0.6125950              0.4491460
      0.9445400              0.3937990              0.2657040
SP   3   1.00
      1.2779000             -0.2276060             -0.0175130
      0.3975900              0.00144583             0.2445330
      0.1600950              1.0927900              0.8049340
SP   1   1.00
      0.0556577              1.0000000              1.0000000
D    1   1.00
      0.6500000              1.0000000
D    1   1.00
      0.1625000              1.0000000
F    1   1.00
      0.2500000              1.0000000
****
Si     0
S    6   1.00
  16115.9000000              0.00195948
   2425.5800000              0.01492880
    553.8670000              0.07284780
    156.3400000              0.24613000
     50.0683000              0.48591400
     17.0178000              0.32500200
SP   6   1.00
    292.7180000             -0.00278094             0.00443826
     69.8731000             -0.03571460             0.03266790
     22.3363000             -0.11498500             0.13472100
      8.1503900              0.09356340             0.32867800
      3.1345800              0.60301700             0.44964000
      1.2254300              0.41895900             0.26137200
SP   3   1.00
      1.7273800             -0.24463000            -0.01779510
      0.5729220              0.00431572             0.25353900
      0.2221920              1.09818000             0.80066900
SP   1   1.00
      0.0778369              1.00000000             1.00000000
D    1   1.00
      0.9000000              1.0000000
D    1   1.00
      0.2250000              1.0000000
F    1   1.00
      0.3200000              1.0000000
****
P     0
S    6   1.00
  19413.3000000              0.0018516
   2909.4200000              0.0142062
    661.3640000              0.0699995
    185.7590000              0.2400790
     59.1943000              0.4847620
     20.0310000              0.3352000
SP   6   1.00
    339.4780000             -0.00278217             0.00456462
     81.0101000             -0.0360499              0.03369360
     25.8780000             -0.1166310              0.13975500
      9.4522100              0.0968328              0.33936200
      3.6656600              0.6144180              0.45092100
      1.4674600              0.4037980              0.23858600
SP   3   1.00
      2.1562300             -0.2529230             -0.01776530
      0.7489970              0.0328517              0.27405800
      0.2831450              1.0812500              0.78542100
SP   1   1.00
      0.0998317              1.0000000              1.00000000
D    1   1.00
      1.1000000              1.0000000
D    1   1.00
      0.2750000              1.0000000
F    1   1.00
      0.4500000              1.0000000
****
S     0
S    6   1.00
  21917.1000000              0.0018690
   3301.4900000              0.0142300
    754.1460000              0.0696960
    212.7110000              0.2384870
     67.9896000              0.4833070
     23.0515000              0.3380740
SP   6   1.00
    423.7350000             -0.0023767              0.0040610
    100.7100000             -0.0316930              0.0306810
     32.1599000             -0.1133170              0.1304520
     11.8079000              0.0560900              0.3272050
      4.6311000              0.5922550              0.4528510
      1.8702500              0.4550060              0.2560420
SP   3   1.00
      2.6158400             -0.2503740             -0.0145110
      0.9221670              0.0669570              0.3102630
      0.3412870              1.0545100              0.7544830
SP   1   1.00
      0.1171670              1.0000000              1.0000000
D    1   1.00
      1.3000000              1.0000000
D    1   1.00
      0.3250000              1.0000000
F    1   1.00
      0.5500000              1.0000000
****
Cl     0
S    6   1.00
  25180.1000000              0.0018330
   3780.3500000              0.0140340
    860.4740000              0.0690970
    242.1450000              0.2374520
     77.3349000              0.4830340
     26.2470000              0.3398560
SP   6   1.00
    491.7650000             -0.0022974              0.0039894
    116.9840000             -0.0307140              0.0303180
     37.4153000             -0.1125280              0.1298800
     13.7834000              0.0450160              0.3279510
      5.4521500              0.5893530              0.4535270
      2.2258800              0.4652060              0.2521540
SP   3   1.00
      3.1864900             -0.2518300             -0.0142990
      1.1442700              0.0615890              0.3235720
      0.4203770              1.0601800              0.7435070
SP   1   1.00
      0.1426570              1.0000000              1.0000000
D    1   1.00
      1.5000000              1.0000000
D    1   1.00
      0.3750000              1.0000000
F    1   1.00
      0.7000000              1.0000000
****
}

set {
reference uhf
freeze_core true
e_convergence 10
d_convergence 10
dft_spherical_points 1202
dft_radial_points 99
}

e = energy('b3lyp')

print_out('Grab this energy {0}'.format(e))
--------------------------------------------------------------------------

    Molecular point group: c1

    Geometry (in Bohr), charge = 0, multiplicity = 2:

       Center              X                  Y                   Z               Mass
    ------------   -----------------  -----------------  -----------------  -----------------
         C           -0.323340418584    -0.000001814305     0.000262513675    12.000000000000
         C            0.062331710616    -1.400164847705    -2.426929615025    12.000000000000
         C            0.061021593416     2.801759571095     0.001115443675    12.000000000000
         C            0.059947482716    -1.401589950905     2.425831396775    12.000000000000
         H            2.083366060616    -1.642137231605    -2.849292416025     1.007825032230
         H           -0.761988781284    -0.387112088005    -4.025988030325     1.007825032230
         H           -0.765678895684    -3.295855489305    -2.347258899825     1.007825032230
         H            2.086799958916     3.288102437295     0.002549161475     1.007825032230
         H           -0.762087675984     3.679278566595     1.674200662475     1.007825032230
         H           -0.769209710384     3.681224619495    -1.678797514225     1.007825032230
         H            2.090507862016    -1.646062339405     2.845577726575     1.007825032230
         H           -0.765458311284    -3.288141971405     2.350704198375     1.007825032230
         H           -0.768822601984    -0.389331726205     4.024974305975     1.007825032230

  Charge       = 0
  Multiplicity = 2
  Basis Set: ANONYMOUS09C3FC9C
    Blend: 6-31G_2DFP_
  Basis Set: (ANONYMOUS09C3FC9C AUX)
    Blend: DEF2-UNIVERSAL-JKFIT

    Orbital Energies [Eh]
    ---------------------

    Alpha Occupied:

       1A    -10.180342     2A    -10.167046     3A    -10.167021
       4A    -10.166978     5A     -0.797766     6A     -0.686190
       7A     -0.686188     8A     -0.530780     9A     -0.441126
      10A     -0.434692    11A     -0.434649    12A     -0.382622
      13A     -0.382575    14A     -0.363610    15A     -0.338031
      16A     -0.337966    17A     -0.168961

    Alpha Virtual:

      18A      0.076070    19A      0.133977    20A      0.134310
      21A      0.142572    22A      0.142694    23A      0.154879
      24A      0.178696    25A      0.178867    26A      0.203546
      27A      0.214805    28A      0.275910    29A      0.276062
      30A      0.399195    31A      0.399262    32A      0.403343
      33A      0.424012    34A      0.424182    35A      0.456590
      36A      0.495244    37A      0.495533    38A      0.512159
      39A      0.513982    40A      0.578641    41A      0.578990
      42A      0.591481    43A      0.591777    44A      0.602579
      45A      0.624718    46A      0.631809    47A      0.636145
      48A      0.636355    49A      0.663046    50A      0.663791
      51A      0.683691    52A      0.684040    53A      0.734995
      54A      0.825383    55A      0.825421    56A      0.853921
      57A      0.914812    58A      0.915240    59A      0.944099
      60A      0.944637    61A      0.961164    62A      0.961422
      63A      1.003456    64A      1.128062    65A      1.128161
      66A      1.142209    67A      1.163148    68A      1.163396
      69A      1.223323    70A      1.274335    71A      1.274632
      72A      1.279367    73A      1.324298    74A      1.324388
      75A      1.355953    76A      1.366022    77A      1.366077
      78A      1.392467    79A      1.403598    80A      1.404519
      81A      1.416594    82A      1.417653    83A      1.427911
      84A      1.491453    85A      1.499100    86A      1.542372
      87A      1.543295    88A      1.574293    89A      1.574608
      90A      1.669830    91A      1.739237    92A      1.739540
      93A      1.768348    94A      1.830602    95A      1.832207
      96A      1.971685    97A      2.018108    98A      2.018778
      99A      2.019556   100A      2.051716   101A      2.053605
     102A      2.738074   103A      2.738893   104A      2.790923
     105A      2.811427   106A      2.889926   107A      2.889954
     108A      2.894965   109A      2.929485   110A      2.929505
     111A      2.958996   112A      2.964057   113A      2.964711
     114A      3.034003   115A      3.071264   116A      3.071305
     117A      3.084384   118A      3.168560   119A      3.169000
     120A      3.180606   121A      3.284981   122A      3.285632
     123A      3.326964   124A      3.327377   125A      3.375624
     126A      3.490002   127A      3.490324   128A      3.514004
     129A      3.525336   130A      3.568276   131A      3.568508
     132A      3.575147   133A      3.665666   134A      3.667099
     135A      3.679666   136A      3.693978   137A      3.694277
     138A      3.776785   139A      3.776824   140A      3.789124
     141A      3.912129   142A      3.912335   143A      4.034429
     144A      4.110844   145A      4.111741   146A      4.147572
     147A      4.148718   148A      4.173104   149A      4.201894
     150A      4.202780   151A      4.204090   152A      4.211078
     153A      4.315137   154A      4.316835   155A      4.358973
     156A      4.424148   157A      4.424798   158A      4.443437
     159A      4.516154   160A      4.517548   161A      4.578144
     162A      4.578387   163A      4.617558   164A      4.709456
     165A      4.774150   166A      4.775060   167A      4.836895
     168A      4.962882   169A      5.002207   170A      5.003697
     171A      5.227992   172A      5.244666   173A      5.248796
     174A      5.354410   175A      5.356835   176A      5.479409

    Beta Occupied:

       1A    -10.167802     2A    -10.167776     3A    -10.167745
       4A    -10.166520     5A     -0.781092     6A     -0.683996
       7A     -0.683987     8A     -0.511751     9A     -0.431059
      10A     -0.431029    11A     -0.421819    12A     -0.376728
      13A     -0.376638    14A     -0.362594    15A     -0.333147
      16A     -0.333097

    Beta Virtual:

      17A     -0.025743    18A      0.077079    19A      0.134878
      20A      0.135191    21A      0.144469    22A      0.144540
      23A      0.163337    24A      0.182349    25A      0.182556
      26A      0.215028    27A      0.218936    28A      0.282255
      29A      0.282413    30A      0.400366    31A      0.400430
      32A      0.419790    33A      0.426824    34A      0.426993
      35A      0.468498    36A      0.497498    37A      0.497802
      38A      0.513896    39A      0.556325    40A      0.584206
      41A      0.584524    42A      0.597639    43A      0.597982
      44A      0.609998    45A      0.628064    46A      0.632005
      47A      0.639425    48A      0.639636    49A      0.666643
      50A      0.667325    51A      0.686343    52A      0.686656
      53A      0.757518    54A      0.830549    55A      0.830592
      56A      0.855275    57A      0.922797    58A      0.923197
      59A      0.945959    60A      0.953543    61A      0.966441
      62A      0.966756    63A      1.008696    64A      1.132127
      65A      1.132151    66A      1.155585    67A      1.168187
      68A      1.168507    69A      1.232296    70A      1.279919
      71A      1.280239    72A      1.285123    73A      1.329288
      74A      1.329374    75A      1.365362    76A      1.371270
      77A      1.371319    78A      1.393527    79A      1.407022
      80A      1.408028    81A      1.421627    82A      1.422722
      83A      1.428180    84A      1.492515    85A      1.509530
      86A      1.546794    87A      1.547688    88A      1.582178
      89A      1.582465    90A      1.674675    91A      1.745003
      92A      1.745304    93A      1.779122    94A      1.834451
      95A      1.836071    96A      1.972560    97A      2.024973
      98A      2.025924    99A      2.039701   100A      2.058477
     101A      2.060280   102A      2.746419   103A      2.747220
     104A      2.811835   105A      2.816063   106A      2.902579
     107A      2.902699   108A      2.924648   109A      2.931934
     110A      2.932016   111A      2.960060   112A      2.968591
     113A      2.969271   114A      3.041933   115A      3.081071
     116A      3.081300   117A      3.086226   118A      3.184198
     119A      3.184853   120A      3.188296   121A      3.289769
     122A      3.290440   123A      3.330747   124A      3.331206
     125A      3.383441   126A      3.492772   127A      3.493017
     128A      3.512373   129A      3.528377   130A      3.574990
     131A      3.581580   132A      3.581900   133A      3.670365
     134A      3.671900   135A      3.692958   136A      3.725597
     137A      3.725917   138A      3.781280   139A      3.781385
     140A      3.817666   141A      3.921923   142A      3.922173
     143A      4.045316   144A      4.117673   145A      4.118530
     146A      4.154845   147A      4.155887   148A      4.187108
     149A      4.208103   150A      4.209520   151A      4.210966
     152A      4.215619   153A      4.322577   154A      4.324277
     155A      4.362335   156A      4.432362   157A      4.433014
     158A      4.446317   159A      4.523942   160A      4.525341
     161A      4.588732   162A      4.589000   163A      4.624752
     164A      4.719800   165A      4.781102   166A      4.782013
     167A      4.839812   168A      4.967677   169A      5.006265
     170A      5.007718   171A      5.233706   172A      5.246467
     173A      5.250574   174A      5.360875   175A      5.363321
     176A      5.481730

    Final Occupation by Irrep:
              A
    DOCC [    16 ]
    SOCC [     1 ]

  @DF-UKS Final Energy:  -157.81305076451707

   => Energetics <=

    Nuclear Repulsion Energy =            125.3946678290717642
    One-Electron Energy =                -458.7489432966236791
    Two-Electron Energy =                 195.8483737429752694
    DFT Exchange-Correlation Energy =     -20.3071490399404269
    Empirical Dispersion Energy =           0.0000000000000000
    VV10 Nonlocal Energy =                  0.0000000000000000
    Total Energy =                       -157.8130507645170724

  UHF NO Occupations:
  HONO-2 :   15  A 1.9996009
  HONO-1 :   16  A 1.9989805
  HONO-0 :   17  A 1.0000000
  LUNO+0 :   18  A 0.0010195
  LUNO+1 :   19  A 0.0003991
  LUNO+2 :   20  A 0.0001975
  LUNO+3 :   21  A 0.0001975

Computation Completed

Properties will be evaluated at   0.000000,   0.000000,   0.000000 [a0]

Properties computed using the SCF density matrix

  Nuclear Dipole Moment: [e a0]
     X:     0.8272      Y:    -0.0000      Z:    -0.0017

  Electronic Dipole Moment: [e a0]
     X:    -0.7493      Y:     0.0000      Z:     0.0023

  Dipole Moment: [e a0]
     X:     0.0779      Y:     0.0000      Z:     0.0006     Total:     0.0779

  Dipole Moment: [D]
     X:     0.1980      Y:     0.0000      Z:     0.0016     Total:     0.1980

*** tstop() called on n089 at Fri Nov  5 14:04:34 2021
Module time:
	user time   =     480.41 seconds =       8.01 minutes
	system time =       4.40 seconds =       0.07 minutes
	total time  =        122 seconds =       2.03 minutes
Total time:
	user time   =     480.41 seconds =       8.01 minutes
	system time =       4.40 seconds =       0.07 minutes
	total time  =        122 seconds =       2.03 minutes
Grab this energy -157.81305076451707
    Psi4 stopped on: Friday, 05 November 2021 02:04PM
    Psi4 wall time for execution: 0:02:01.95

*** Psi4 exiting successfully. Buy a developer a beer!
