                               Psi4 1.4a2.dev629

  ==> Input File <==

--------------------------------------------------------------------------
import os
memory 14 GB

molecule {
 C   -0.3233391130   -0.0004353512    0.0002467931
 C    0.0622590729   -1.4017757591   -2.4256764823
 C    0.0607106900    2.8018658125   -0.0001486729
 C    0.0603347002   -1.4020098452    2.4257897287
 H    2.0892855701   -1.6485613679   -2.8509681539
 H   -0.7670687985   -0.3856306387   -4.0252786961
 H   -0.7607151872   -3.2885406696   -2.3458524827
 H    2.0877095160    3.2880933921   -0.0018557461
 H   -0.7650323529    3.6789844752    1.6761562589
 H   -0.7669582569    3.6818183383   -1.6750107003
 H    2.0836656958   -1.6448844450    2.8409051294
 H   -0.7645156274   -3.2918054793    2.3522539165
 H   -0.7689437857   -0.3871427757    4.0294391078
units bohr
0 2
}

basis {

assign 6-31g_2dfp_

[ 6-31g_2dfp_ ]

spherical

!----------------------------------------------------------------------
! Basis Set Exchange
! Version v0.8.13
! https://www.basissetexchange.org
!----------------------------------------------------------------------
!   Basis set: 6-31G(2df,p)
! Description: 6-31G(2df,p)
!        Role: orbital
!     Version: 0  (Data from the original Basis Set Exchange)
!----------------------------------------------------------------------

****
H     0
S    3   1.00
     18.7311370              0.03349460
      2.8253937              0.23472695
      0.6401217              0.81375733
S    1   1.00
      0.1612778              1.00000000
P    1   1.00
      1.5000000              1.0000000
P    1   1.00
      0.3750000              1.0000000
****
B     0
S    6   1.00
   2068.8823000              0.0018663
    310.6495700              0.0142515
     70.6830330              0.0695516
     19.8610800              0.2325729
      6.2993048              0.4670787
      2.1270270              0.3634314
SP   3   1.00
      4.7279710             -0.1303938              0.0745976
      1.1903377             -0.1307889              0.3078467
      0.3594117              1.1309444              0.7434568
SP   1   1.00
      0.1267512              1.0000000              1.0000000
D    1   1.00
      0.8020000              1.0000000
D    1   1.00
      0.2005000              1.0000000
F    1   1.00
      0.5000000              1.0000000
****
C     0
S    6   1.00
   3047.5249000              0.0018347
    457.3695100              0.0140373
    103.9486900              0.0688426
     29.2101550              0.2321844
      9.2866630              0.4679413
      3.1639270              0.3623120
SP   3   1.00
      7.8682724             -0.1193324              0.0689991
      1.8812885             -0.1608542              0.3164240
      0.5442493              1.1434564              0.7443083
SP   1   1.00
      0.1687144              1.0000000              1.0000000
D    1   1.00
      1.2520000              1.0000000
D    1   1.00
      0.3130000              1.0000000
F    1   1.00
      0.8000000              1.0000000
****
N     0
S    6   1.00
   4173.5110000              0.0018348
    627.4579000              0.0139950
    142.9021000              0.0685870
     40.2343300              0.2322410
     12.8202100              0.4690700
      4.3904370              0.3604550
SP   3   1.00
     11.6263580             -0.1149610              0.0675800
      2.7162800             -0.1691180              0.3239070
      0.7722180              1.1458520              0.7408950
SP   1   1.00
      0.2120313              1.0000000              1.0000000
D    1   1.00
      1.8260000              1.0000000
D    1   1.00
      0.4565000              1.0000000
F    1   1.00
      1.0000000              1.0000000
****
O     0
S    6   1.00
   5484.6717000              0.0018311
    825.2349500              0.0139501
    188.0469600              0.0684451
     52.9645000              0.2327143
     16.8975700              0.4701930
      5.7996353              0.3585209
SP   3   1.00
     15.5396160             -0.1107775              0.0708743
      3.5999336             -0.1480263              0.3397528
      1.0137618              1.1307670              0.7271586
SP   1   1.00
      0.2700058              1.0000000              1.0000000
D    1   1.00
      2.5840000              1.0000000
D    1   1.00
      0.6460000              1.0000000
F    1   1.00
      1.4000000              1.0000000
****
F     0
S    6   1.00
   7001.7130900              0.0018196169
   1051.3660900              0.0139160796
    239.2856900              0.0684053245
     67.3974453              0.233185760
     21.5199573              0.471267439
      7.40310130             0.356618546
SP   3   1.00
     20.8479528             -0.108506975            0.0716287243
      4.80830834            -0.146451658            0.3459121030
      1.34406986             1.128688580            0.7224699570
SP   1   1.00
      0.358151393            1.0000000              1.0000000
D    1   1.00
      3.5000000              1.0000000
D    1   1.00
      0.8750000              1.0000000
F    1   1.00
      1.8500000              1.0000000
****
Al     0
S    6   1.00
  13983.1000000              0.00194267
   2098.7500000              0.0148599
    477.7050000              0.0728494
    134.3600000              0.2468300
     42.8709000              0.4872580
     14.5189000              0.3234960
SP   6   1.00
    239.6680000             -0.00292619             0.00460285
     57.4419000             -0.0374080              0.0331990
     18.2859000             -0.1144870              0.1362820
      6.5991400              0.1156350              0.3304760
      2.4904900              0.6125950              0.4491460
      0.9445400              0.3937990              0.2657040
SP   3   1.00
      1.2779000             -0.2276060             -0.0175130
      0.3975900              0.00144583             0.2445330
      0.1600950              1.0927900              0.8049340
SP   1   1.00
      0.0556577              1.0000000              1.0000000
D    1   1.00
      0.6500000              1.0000000
D    1   1.00
      0.1625000              1.0000000
F    1   1.00
      0.2500000              1.0000000
****
Si     0
S    6   1.00
  16115.9000000              0.00195948
   2425.5800000              0.01492880
    553.8670000              0.07284780
    156.3400000              0.24613000
     50.0683000              0.48591400
     17.0178000              0.32500200
SP   6   1.00
    292.7180000             -0.00278094             0.00443826
     69.8731000             -0.03571460             0.03266790
     22.3363000             -0.11498500             0.13472100
      8.1503900              0.09356340             0.32867800
      3.1345800              0.60301700             0.44964000
      1.2254300              0.41895900             0.26137200
SP   3   1.00
      1.7273800             -0.24463000            -0.01779510
      0.5729220              0.00431572             0.25353900
      0.2221920              1.09818000             0.80066900
SP   1   1.00
      0.0778369              1.00000000             1.00000000
D    1   1.00
      0.9000000              1.0000000
D    1   1.00
      0.2250000              1.0000000
F    1   1.00
      0.3200000              1.0000000
****
P     0
S    6   1.00
  19413.3000000              0.0018516
   2909.4200000              0.0142062
    661.3640000              0.0699995
    185.7590000              0.2400790
     59.1943000              0.4847620
     20.0310000              0.3352000
SP   6   1.00
    339.4780000             -0.00278217             0.00456462
     81.0101000             -0.0360499              0.03369360
     25.8780000             -0.1166310              0.13975500
      9.4522100              0.0968328              0.33936200
      3.6656600              0.6144180              0.45092100
      1.4674600              0.4037980              0.23858600
SP   3   1.00
      2.1562300             -0.2529230             -0.01776530
      0.7489970              0.0328517              0.27405800
      0.2831450              1.0812500              0.78542100
SP   1   1.00
      0.0998317              1.0000000              1.00000000
D    1   1.00
      1.1000000              1.0000000
D    1   1.00
      0.2750000              1.0000000
F    1   1.00
      0.4500000              1.0000000
****
S     0
S    6   1.00
  21917.1000000              0.0018690
   3301.4900000              0.0142300
    754.1460000              0.0696960
    212.7110000              0.2384870
     67.9896000              0.4833070
     23.0515000              0.3380740
SP   6   1.00
    423.7350000             -0.0023767              0.0040610
    100.7100000             -0.0316930              0.0306810
     32.1599000             -0.1133170              0.1304520
     11.8079000              0.0560900              0.3272050
      4.6311000              0.5922550              0.4528510
      1.8702500              0.4550060              0.2560420
SP   3   1.00
      2.6158400             -0.2503740             -0.0145110
      0.9221670              0.0669570              0.3102630
      0.3412870              1.0545100              0.7544830
SP   1   1.00
      0.1171670              1.0000000              1.0000000
D    1   1.00
      1.3000000              1.0000000
D    1   1.00
      0.3250000              1.0000000
F    1   1.00
      0.5500000              1.0000000
****
Cl     0
S    6   1.00
  25180.1000000              0.0018330
   3780.3500000              0.0140340
    860.4740000              0.0690970
    242.1450000              0.2374520
     77.3349000              0.4830340
     26.2470000              0.3398560
SP   6   1.00
    491.7650000             -0.0022974              0.0039894
    116.9840000             -0.0307140              0.0303180
     37.4153000             -0.1125280              0.1298800
     13.7834000              0.0450160              0.3279510
      5.4521500              0.5893530              0.4535270
      2.2258800              0.4652060              0.2521540
SP   3   1.00
      3.1864900             -0.2518300             -0.0142990
      1.1442700              0.0615890              0.3235720
      0.4203770              1.0601800              0.7435070
SP   1   1.00
      0.1426570              1.0000000              1.0000000
D    1   1.00
      1.5000000              1.0000000
D    1   1.00
      0.3750000              1.0000000
F    1   1.00
      0.7000000              1.0000000
****
}

set {
reference uhf
freeze_core true
e_convergence 10
d_convergence 10
dft_spherical_points 1202
dft_radial_points 99
}

e = energy('b3lyp')

print_out('Grab this energy {0}'.format(e))
--------------------------------------------------------------------------

    Molecular point group: c1

    Geometry (in Bohr), charge = 0, multiplicity = 2:

       Center              X                  Y                   Z               Mass
    ------------   -----------------  -----------------  -----------------  -----------------
         C           -0.323340140550     0.000018695667     0.000206082369    12.000000000000
         C            0.062258045350    -1.401321712233    -2.425717193031    12.000000000000
         C            0.060709662450     2.802319859367    -0.000189383631    12.000000000000
         C            0.060333672650    -1.401555798333     2.425749017969    12.000000000000
         H            2.089284542550    -1.648107321033    -2.851008864631     1.007825032230
         H           -0.767069826050    -0.385176591833    -4.025319406831     1.007825032230
         H           -0.760716214750    -3.288086622733    -2.345893193431     1.007825032230
         H            2.087708488450     3.288547438967    -0.001896456831     1.007825032230
         H           -0.765033380450     3.679438522067     1.676115548169     1.007825032230
         H           -0.766959284450     3.682272385167    -1.675051411031     1.007825032230
         H            2.083664668250    -1.644430398133     2.840864418669     1.007825032230
         H           -0.764516654950    -3.291351432433     2.352213205769     1.007825032230
         H           -0.768944813250    -0.386688728833     4.029398397069     1.007825032230

  Charge       = 0
  Multiplicity = 2
  Basis Set: ANONYMOUS9E6D8CB7
    Blend: 6-31G_2DFP_
  Basis Set: (ANONYMOUS9E6D8CB7 AUX)
    Blend: DEF2-UNIVERSAL-JKFIT

    Orbital Energies [Eh]
    ---------------------

    Alpha Occupied:

       1A    -10.180342     2A    -10.167054     3A    -10.167016
       4A    -10.166975     5A     -0.797767     6A     -0.686255
       7A     -0.686122     8A     -0.530778     9A     -0.441127
      10A     -0.434878    11A     -0.434462    12A     -0.382824
      13A     -0.382373    14A     -0.363611    15A     -0.338222
      16A     -0.337774    17A     -0.168961

    Alpha Virtual:

      18A      0.076070    19A      0.134029    20A      0.134276
      21A      0.142336    22A      0.142917    23A      0.154883
      24A      0.178613    25A      0.178939    26A      0.203551
      27A      0.214803    28A      0.275875    29A      0.276097
      30A      0.398953    31A      0.399501    32A      0.403345
      33A      0.423906    34A      0.424289    35A      0.456595
      36A      0.495337    37A      0.495441    38A      0.512162
      39A      0.513982    40A      0.578672    41A      0.578950
      42A      0.591339    43A      0.591906    44A      0.602603
      45A      0.624717    46A      0.631742    47A      0.635952
      48A      0.636623    49A      0.663198    50A      0.663629
      51A      0.683634    52A      0.684087    53A      0.734993
      54A      0.825150    55A      0.825662    56A      0.853915
      57A      0.914641    58A      0.915407    59A      0.944108
      60A      0.944608    61A      0.961182    62A      0.961428
      63A      1.003454    64A      1.127621    65A      1.128602
      66A      1.142205    67A      1.163114    68A      1.163437
      69A      1.223324    70A      1.274225    71A      1.274736
      72A      1.279373    73A      1.324124    74A      1.324574
      75A      1.355972    76A      1.365758    77A      1.366362
      78A      1.392443    79A      1.403556    80A      1.404532
      81A      1.416323    82A      1.417884    83A      1.427918
      84A      1.491505    85A      1.499054    86A      1.542838
      87A      1.542849    88A      1.573926    89A      1.574986
      90A      1.669836    91A      1.738693    92A      1.740122
      93A      1.768336    94A      1.830500    95A      1.832283
      96A      1.971749    97A      2.017509    98A      2.019234
      99A      2.019648   100A      2.051947   101A      2.053353
     102A      2.738303   103A      2.738670   104A      2.790927
     105A      2.811428   106A      2.889726   107A      2.890148
     108A      2.894975   109A      2.929186   110A      2.929806
     111A      2.958955   112A      2.964225   113A      2.964577
     114A      3.034004   115A      3.070392   116A      3.072120
     117A      3.084434   118A      3.168308   119A      3.169259
     120A      3.180583   121A      3.285114   122A      3.285508
     123A      3.326208   124A      3.328127   125A      3.375627
     126A      3.489060   127A      3.491264   128A      3.514010
     129A      3.525334   130A      3.567934   131A      3.568693
     132A      3.575277   133A      3.665733   134A      3.667045
     135A      3.679652   136A      3.693422   137A      3.694833
     138A      3.776638   139A      3.776937   140A      3.789180
     141A      3.911640   142A      3.912816   143A      4.034437
     144A      4.110796   145A      4.111867   146A      4.147842
     147A      4.148309   148A      4.173339   149A      4.201737
     150A      4.203026   151A      4.203990   152A      4.210953
     153A      4.315289   154A      4.316645   155A      4.358977
     156A      4.423936   157A      4.425001   158A      4.443430
     159A      4.515633   160A      4.518016   161A      4.578251
     162A      4.578299   163A      4.617599   164A      4.709380
     165A      4.773445   166A      4.775789   167A      4.836918
     168A      4.962866   169A      5.002307   170A      5.003618
     171A      5.227610   172A      5.246361   173A      5.247669
     174A      5.354276   175A      5.356774   176A      5.479410

    Beta Occupied:

       1A    -10.167806     2A    -10.167771     3A    -10.167746
       4A    -10.166520     5A     -0.781092     6A     -0.684057
       7A     -0.683925     8A     -0.511749     9A     -0.431255
      10A     -0.430830    11A     -0.421822    12A     -0.376915
      13A     -0.376452    14A     -0.362595    15A     -0.333334
      16A     -0.332909

    Beta Virtual:

      17A     -0.025743    18A      0.077079    19A      0.134898
      20A      0.135188    21A      0.144201    22A      0.144794
      23A      0.163341    24A      0.182281    25A      0.182615
      26A      0.215033    27A      0.218932    28A      0.282223
      29A      0.282445    30A      0.400120    31A      0.400673
      32A      0.419791    33A      0.426716    34A      0.427102
      35A      0.468502    36A      0.497594    37A      0.497707
      38A      0.513897    39A      0.556326    40A      0.584218
      41A      0.584506    42A      0.597503    43A      0.598103
      44A      0.610021    45A      0.628096    46A      0.631911
      47A      0.639246    48A      0.639887    49A      0.666774
      50A      0.667181    51A      0.686296    52A      0.686694
      53A      0.757516    54A      0.830330    55A      0.830819
      56A      0.855268    57A      0.922644    58A      0.923346
      59A      0.945947    60A      0.953531    61A      0.966482
      62A      0.966743    63A      1.008694    64A      1.131688
      65A      1.132591    66A      1.155576    67A      1.168163
      68A      1.168542    69A      1.232295    70A      1.279809
      71A      1.280347    72A      1.285127    73A      1.329112
      74A      1.329563    75A      1.365374    76A      1.371064
      77A      1.371557    78A      1.393503    79A      1.407011
      80A      1.408004    81A      1.421418    82A      1.422873
      83A      1.428202    84A      1.492555    85A      1.509494
      86A      1.547151    87A      1.547362    88A      1.581711
      89A      1.582936    90A      1.674683    91A      1.744444
      92A      1.745899    93A      1.779111    94A      1.834353
      95A      1.836141    96A      1.972610    97A      2.024848
      98A      2.026021    99A      2.039684   100A      2.058651
     101A      2.060094   102A      2.746627   103A      2.747018
     104A      2.811841   105A      2.816062   106A      2.902374
     107A      2.902903   108A      2.924653   109A      2.931680
     110A      2.932276   111A      2.960037   112A      2.968753
     113A      2.969120   114A      3.041938   115A      3.080191
     116A      3.082024   117A      3.086369   118A      3.184081
     119A      3.184981   120A      3.188270   121A      3.289881
     122A      3.290339   123A      3.330007   124A      3.331935
     125A      3.383445   126A      3.491816   127A      3.493969
     128A      3.512375   129A      3.528379   130A      3.574878
     131A      3.581186   132A      3.582379   133A      3.670578
     134A      3.671698   135A      3.692949   136A      3.725349
     137A      3.726173   138A      3.781155   139A      3.781488
     140A      3.817704   141A      3.921390   142A      3.922698
     143A      4.045325   144A      4.117414   145A      4.118887
     146A      4.154807   147A      4.155774   148A      4.187374
     149A      4.207928   150A      4.209898   151A      4.210764
     152A      4.215437   153A      4.322781   154A      4.324039
     155A      4.362338   156A      4.432171   157A      4.433192
     158A      4.446317   159A      4.523420   160A      4.525808
     161A      4.588823   162A      4.588928   163A      4.624791
     164A      4.719722   165A      4.780404   166A      4.782738
     167A      4.839836   168A      4.967661   169A      5.006360
     170A      5.007643   171A      5.233220   172A      5.248180
     173A      5.249528   174A      5.360765   175A      5.363239
     176A      5.481732

    Final Occupation by Irrep:
              A
    DOCC [    16 ]
    SOCC [     1 ]

  @DF-UKS Final Energy:  -157.81305483227987

   => Energetics <=

    Nuclear Repulsion Energy =            125.3946513428847709
    One-Electron Energy =                -458.7489213433377131
    Two-Electron Energy =                 195.8483621971197692
    DFT Exchange-Correlation Energy =     -20.3071470289466660
    Empirical Dispersion Energy =           0.0000000000000000
    VV10 Nonlocal Energy =                  0.0000000000000000
    Total Energy =                       -157.8130548322798745

  UHF NO Occupations:
  HONO-2 :   15  A 1.9996009
  HONO-1 :   16  A 1.9989805
  HONO-0 :   17  A 1.0000000
  LUNO+0 :   18  A 0.0010195
  LUNO+1 :   19  A 0.0003991
  LUNO+2 :   20  A 0.0001977
  LUNO+3 :   21  A 0.0001974

Computation Completed

Properties will be evaluated at   0.000000,   0.000000,   0.000000 [a0]

Properties computed using the SCF density matrix

  Nuclear Dipole Moment: [e a0]
     X:     0.8272      Y:     0.0032      Z:    -0.0003

  Electronic Dipole Moment: [e a0]
     X:    -0.7493      Y:    -0.0049      Z:     0.0010

  Dipole Moment: [e a0]
     X:     0.0779      Y:    -0.0017      Z:     0.0008     Total:     0.0779

  Dipole Moment: [D]
     X:     0.1980      Y:    -0.0044      Z:     0.0019     Total:     0.1981

*** tstop() called on n036 at Fri Nov  5 14:26:00 2021
Module time:
	user time   =     635.86 seconds =      10.60 minutes
	system time =      12.24 seconds =       0.20 minutes
	total time  =        163 seconds =       2.72 minutes
Total time:
	user time   =     635.86 seconds =      10.60 minutes
	system time =      12.24 seconds =       0.20 minutes
	total time  =        163 seconds =       2.72 minutes
Grab this energy -157.81305483227987
    Psi4 stopped on: Friday, 05 November 2021 02:26PM
    Psi4 wall time for execution: 0:02:42.93

*** Psi4 exiting successfully. Buy a developer a beer!
