                               Psi4 1.4a2.dev629

  ==> Input File <==

--------------------------------------------------------------------------
import os
memory 14 GB

molecule {
 C   -0.3223164116   -0.0000025477    0.0019978080
 C    0.0623327066   -1.4016673570   -2.4265937887
 C    0.0620791240    2.8016052495    0.0011549294
 C    0.0620663050   -1.3999342907    2.4259019171
 H    2.0834272368   -1.6476385522   -2.8494916022
 H   -0.7641993658   -0.3838901599   -4.0247995315
 H   -0.7657403923   -3.2957026954   -2.3501706582
 H    2.0834833522    3.2876839290    0.0040873321
 H   -0.7660629571    3.6861362137    1.6780465090
 H   -0.7633136202    3.6748758803   -1.6796393831
 H    2.0838183007   -1.6401316926    2.8446641178
 H   -0.7634868997   -3.2926210963    2.3458947024
 H   -0.7646952554   -0.3887371945    4.0289476479
units bohr
0 2
}

basis {

assign 6-31g_2dfp_

[ 6-31g_2dfp_ ]

spherical

!----------------------------------------------------------------------
! Basis Set Exchange
! Version v0.8.13
! https://www.basissetexchange.org
!----------------------------------------------------------------------
!   Basis set: 6-31G(2df,p)
! Description: 6-31G(2df,p)
!        Role: orbital
!     Version: 0  (Data from the original Basis Set Exchange)
!----------------------------------------------------------------------

****
H     0
S    3   1.00
     18.7311370              0.03349460
      2.8253937              0.23472695
      0.6401217              0.81375733
S    1   1.00
      0.1612778              1.00000000
P    1   1.00
      1.5000000              1.0000000
P    1   1.00
      0.3750000              1.0000000
****
B     0
S    6   1.00
   2068.8823000              0.0018663
    310.6495700              0.0142515
     70.6830330              0.0695516
     19.8610800              0.2325729
      6.2993048              0.4670787
      2.1270270              0.3634314
SP   3   1.00
      4.7279710             -0.1303938              0.0745976
      1.1903377             -0.1307889              0.3078467
      0.3594117              1.1309444              0.7434568
SP   1   1.00
      0.1267512              1.0000000              1.0000000
D    1   1.00
      0.8020000              1.0000000
D    1   1.00
      0.2005000              1.0000000
F    1   1.00
      0.5000000              1.0000000
****
C     0
S    6   1.00
   3047.5249000              0.0018347
    457.3695100              0.0140373
    103.9486900              0.0688426
     29.2101550              0.2321844
      9.2866630              0.4679413
      3.1639270              0.3623120
SP   3   1.00
      7.8682724             -0.1193324              0.0689991
      1.8812885             -0.1608542              0.3164240
      0.5442493              1.1434564              0.7443083
SP   1   1.00
      0.1687144              1.0000000              1.0000000
D    1   1.00
      1.2520000              1.0000000
D    1   1.00
      0.3130000              1.0000000
F    1   1.00
      0.8000000              1.0000000
****
N     0
S    6   1.00
   4173.5110000              0.0018348
    627.4579000              0.0139950
    142.9021000              0.0685870
     40.2343300              0.2322410
     12.8202100              0.4690700
      4.3904370              0.3604550
SP   3   1.00
     11.6263580             -0.1149610              0.0675800
      2.7162800             -0.1691180              0.3239070
      0.7722180              1.1458520              0.7408950
SP   1   1.00
      0.2120313              1.0000000              1.0000000
D    1   1.00
      1.8260000              1.0000000
D    1   1.00
      0.4565000              1.0000000
F    1   1.00
      1.0000000              1.0000000
****
O     0
S    6   1.00
   5484.6717000              0.0018311
    825.2349500              0.0139501
    188.0469600              0.0684451
     52.9645000              0.2327143
     16.8975700              0.4701930
      5.7996353              0.3585209
SP   3   1.00
     15.5396160             -0.1107775              0.0708743
      3.5999336             -0.1480263              0.3397528
      1.0137618              1.1307670              0.7271586
SP   1   1.00
      0.2700058              1.0000000              1.0000000
D    1   1.00
      2.5840000              1.0000000
D    1   1.00
      0.6460000              1.0000000
F    1   1.00
      1.4000000              1.0000000
****
F     0
S    6   1.00
   7001.7130900              0.0018196169
   1051.3660900              0.0139160796
    239.2856900              0.0684053245
     67.3974453              0.233185760
     21.5199573              0.471267439
      7.40310130             0.356618546
SP   3   1.00
     20.8479528             -0.108506975            0.0716287243
      4.80830834            -0.146451658            0.3459121030
      1.34406986             1.128688580            0.7224699570
SP   1   1.00
      0.358151393            1.0000000              1.0000000
D    1   1.00
      3.5000000              1.0000000
D    1   1.00
      0.8750000              1.0000000
F    1   1.00
      1.8500000              1.0000000
****
Al     0
S    6   1.00
  13983.1000000              0.00194267
   2098.7500000              0.0148599
    477.7050000              0.0728494
    134.3600000              0.2468300
     42.8709000              0.4872580
     14.5189000              0.3234960
SP   6   1.00
    239.6680000             -0.00292619             0.00460285
     57.4419000             -0.0374080              0.0331990
     18.2859000             -0.1144870              0.1362820
      6.5991400              0.1156350              0.3304760
      2.4904900              0.6125950              0.4491460
      0.9445400              0.3937990              0.2657040
SP   3   1.00
      1.2779000             -0.2276060             -0.0175130
      0.3975900              0.00144583             0.2445330
      0.1600950              1.0927900              0.8049340
SP   1   1.00
      0.0556577              1.0000000              1.0000000
D    1   1.00
      0.6500000              1.0000000
D    1   1.00
      0.1625000              1.0000000
F    1   1.00
      0.2500000              1.0000000
****
Si     0
S    6   1.00
  16115.9000000              0.00195948
   2425.5800000              0.01492880
    553.8670000              0.07284780
    156.3400000              0.24613000
     50.0683000              0.48591400
     17.0178000              0.32500200
SP   6   1.00
    292.7180000             -0.00278094             0.00443826
     69.8731000             -0.03571460             0.03266790
     22.3363000             -0.11498500             0.13472100
      8.1503900              0.09356340             0.32867800
      3.1345800              0.60301700             0.44964000
      1.2254300              0.41895900             0.26137200
SP   3   1.00
      1.7273800             -0.24463000            -0.01779510
      0.5729220              0.00431572             0.25353900
      0.2221920              1.09818000             0.80066900
SP   1   1.00
      0.0778369              1.00000000             1.00000000
D    1   1.00
      0.9000000              1.0000000
D    1   1.00
      0.2250000              1.0000000
F    1   1.00
      0.3200000              1.0000000
****
P     0
S    6   1.00
  19413.3000000              0.0018516
   2909.4200000              0.0142062
    661.3640000              0.0699995
    185.7590000              0.2400790
     59.1943000              0.4847620
     20.0310000              0.3352000
SP   6   1.00
    339.4780000             -0.00278217             0.00456462
     81.0101000             -0.0360499              0.03369360
     25.8780000             -0.1166310              0.13975500
      9.4522100              0.0968328              0.33936200
      3.6656600              0.6144180              0.45092100
      1.4674600              0.4037980              0.23858600
SP   3   1.00
      2.1562300             -0.2529230             -0.01776530
      0.7489970              0.0328517              0.27405800
      0.2831450              1.0812500              0.78542100
SP   1   1.00
      0.0998317              1.0000000              1.00000000
D    1   1.00
      1.1000000              1.0000000
D    1   1.00
      0.2750000              1.0000000
F    1   1.00
      0.4500000              1.0000000
****
S     0
S    6   1.00
  21917.1000000              0.0018690
   3301.4900000              0.0142300
    754.1460000              0.0696960
    212.7110000              0.2384870
     67.9896000              0.4833070
     23.0515000              0.3380740
SP   6   1.00
    423.7350000             -0.0023767              0.0040610
    100.7100000             -0.0316930              0.0306810
     32.1599000             -0.1133170              0.1304520
     11.8079000              0.0560900              0.3272050
      4.6311000              0.5922550              0.4528510
      1.8702500              0.4550060              0.2560420
SP   3   1.00
      2.6158400             -0.2503740             -0.0145110
      0.9221670              0.0669570              0.3102630
      0.3412870              1.0545100              0.7544830
SP   1   1.00
      0.1171670              1.0000000              1.0000000
D    1   1.00
      1.3000000              1.0000000
D    1   1.00
      0.3250000              1.0000000
F    1   1.00
      0.5500000              1.0000000
****
Cl     0
S    6   1.00
  25180.1000000              0.0018330
   3780.3500000              0.0140340
    860.4740000              0.0690970
    242.1450000              0.2374520
     77.3349000              0.4830340
     26.2470000              0.3398560
SP   6   1.00
    491.7650000             -0.0022974              0.0039894
    116.9840000             -0.0307140              0.0303180
     37.4153000             -0.1125280              0.1298800
     13.7834000              0.0450160              0.3279510
      5.4521500              0.5893530              0.4535270
      2.2258800              0.4652060              0.2521540
SP   3   1.00
      3.1864900             -0.2518300             -0.0142990
      1.1442700              0.0615890              0.3235720
      0.4203770              1.0601800              0.7435070
SP   1   1.00
      0.1426570              1.0000000              1.0000000
D    1   1.00
      1.5000000              1.0000000
D    1   1.00
      0.3750000              1.0000000
F    1   1.00
      0.7000000              1.0000000
****
}

set {
reference uhf
freeze_core true
e_convergence 10
d_convergence 10
dft_spherical_points 1202
dft_radial_points 99
}

e = energy('b3lyp')

print_out('Grab this energy {0}'.format(e))
--------------------------------------------------------------------------

    Molecular point group: c1

    Geometry (in Bohr), charge = 0, multiplicity = 2:

       Center              X                  Y                   Z               Mass
    ------------   -----------------  -----------------  -----------------  -----------------
         C           -0.323125690985    -0.000002321362     0.001523827522    12.000000000000
         C            0.061523427215    -1.401667130662    -2.427067769178    12.000000000000
         C            0.061269844615     2.801605475838     0.000680948922    12.000000000000
         C            0.061257025615    -1.399934064362     2.425427936622    12.000000000000
         H            2.082617957415    -1.647638325862    -2.849965582678     1.007825032230
         H           -0.765008645185    -0.383889933562    -4.025273511978     1.007825032230
         H           -0.766549671685    -3.295702469062    -2.350644638678     1.007825032230
         H            2.082674072815     3.287684155338     0.003613351622     1.007825032230
         H           -0.766872236485     3.686136440038     1.677572528522     1.007825032230
         H           -0.764122899585     3.674876106638    -1.680113363578     1.007825032230
         H            2.083009021315    -1.640131466262     2.844190137322     1.007825032230
         H           -0.764296179085    -3.292620869962     2.345420721922     1.007825032230
         H           -0.765504534785    -0.388736968162     4.028473667422     1.007825032230

  Charge       = 0
  Multiplicity = 2
  Basis Set: ANONYMOUS946D6FF8
    Blend: 6-31G_2DFP_
  Basis Set: (ANONYMOUS946D6FF8 AUX)
    Blend: DEF2-UNIVERSAL-JKFIT

    Orbital Energies [Eh]
    ---------------------

    Alpha Occupied:

       1A    -10.180284     2A    -10.167171     3A    -10.167012
       4A    -10.166851     5A     -0.797805     6A     -0.686315
       7A     -0.686072     8A     -0.530787     9A     -0.441225
      10A     -0.434697    11A     -0.434556    12A     -0.382769
      13A     -0.382700    14A     -0.363433    15A     -0.338011
      16A     -0.337878    17A     -0.168924

    Alpha Virtual:

      18A      0.075987    19A      0.134118    20A      0.134177
      21A      0.142500    22A      0.142622    23A      0.155045
      24A      0.178919    25A      0.178994    26A      0.203590
      27A      0.214530    28A      0.275742    29A      0.276279
      30A      0.399309    31A      0.399380    32A      0.403436
      33A      0.423855    34A      0.423964    35A      0.456670
      36A      0.495151    37A      0.495271    38A      0.512278
      39A      0.514133    40A      0.578692    41A      0.579268
      42A      0.591608    43A      0.592195    44A      0.603327
      45A      0.624257    46A      0.631390    47A      0.635839
      48A      0.635920    49A      0.663874    50A      0.663942
      51A      0.683576    52A      0.683633    53A      0.734932
      54A      0.825219    55A      0.825656    56A      0.854195
      57A      0.915104    58A      0.915379    59A      0.943837
      60A      0.944468    61A      0.960711    62A      0.962083
      63A      1.003649    64A      1.127633    65A      1.128074
      66A      1.142941    67A      1.162911    68A      1.163109
      69A      1.222912    70A      1.274580    71A      1.274883
      72A      1.279510    73A      1.324565    74A      1.324567
      75A      1.355456    76A      1.365959    77A      1.366272
      78A      1.392502    79A      1.404757    80A      1.405389
      81A      1.415754    82A      1.416538    83A      1.428124
      84A      1.491514    85A      1.500031    86A      1.542930
      87A      1.543477    88A      1.574062    89A      1.574083
      90A      1.668566    91A      1.739893    92A      1.740650
      93A      1.770164    94A      1.829512    95A      1.830491
      96A      1.970710    97A      2.018072    98A      2.018939
      99A      2.019267   100A      2.053231   101A      2.054796
     102A      2.737887   103A      2.738444   104A      2.791323
     105A      2.810959   106A      2.890050   107A      2.890578
     108A      2.895322   109A      2.929271   110A      2.929311
     111A      2.959133   112A      2.964649   113A      2.964955
     114A      3.034710   115A      3.071189   116A      3.071443
     117A      3.082954   118A      3.168710   119A      3.169113
     120A      3.180639   121A      3.285369   122A      3.285456
     123A      3.326197   124A      3.326863   125A      3.375440
     126A      3.490224   127A      3.490544   128A      3.515237
     129A      3.524122   130A      3.568443   131A      3.569068
     132A      3.576068   133A      3.666545   134A      3.666939
     135A      3.679019   136A      3.693505   137A      3.694421
     138A      3.775146   139A      3.777629   140A      3.789940
     141A      3.911408   142A      3.911945   143A      4.033980
     144A      4.110134   145A      4.112652   146A      4.147801
     147A      4.149556   148A      4.174951   149A      4.202181
     150A      4.202264   151A      4.202829   152A      4.211991
     153A      4.315624   154A      4.317193   155A      4.357819
     156A      4.424929   157A      4.425448   158A      4.443219
     159A      4.517093   160A      4.517890   161A      4.577248
     162A      4.577906   163A      4.617621   164A      4.710010
     165A      4.773433   166A      4.775534   167A      4.835586
     168A      4.962555   169A      5.003899   170A      5.004616
     171A      5.230790   172A      5.243337   173A      5.244290
     174A      5.356771   175A      5.358218   176A      5.477408

    Beta Occupied:

       1A    -10.167928     2A    -10.167770     3A    -10.167611
       4A    -10.166455     5A     -0.781123     6A     -0.684098
       7A     -0.683870     8A     -0.511709     9A     -0.431038
      10A     -0.430916    11A     -0.421973    12A     -0.376875
      13A     -0.376816    14A     -0.362408    15A     -0.333133
      16A     -0.333009

    Beta Virtual:

      17A     -0.025615    18A      0.076980    19A      0.134949
      20A      0.134992    21A      0.144391    22A      0.144517
      23A      0.163485    24A      0.182636    25A      0.182675
      26A      0.214767    27A      0.218973    28A      0.282095
      29A      0.282612    30A      0.400480    31A      0.400550
      32A      0.419777    33A      0.426666    34A      0.426778
      35A      0.468677    36A      0.497406    37A      0.497520
      38A      0.514005    39A      0.556516    40A      0.584213
      41A      0.584790    42A      0.597811    43A      0.598371
      44A      0.610610    45A      0.627775    46A      0.631546
      47A      0.639143    48A      0.639265    49A      0.667405
      50A      0.667477    51A      0.686202    52A      0.686302
      53A      0.757459    54A      0.830345    55A      0.830825
      56A      0.855540    57A      0.923092    58A      0.923296
      59A      0.945683    60A      0.953343    61A      0.966110
      62A      0.967371    63A      1.008929    64A      1.131551
      65A      1.132140    66A      1.156241    67A      1.168088
      68A      1.168124    69A      1.231901    70A      1.280201
      71A      1.280501    72A      1.285321    73A      1.329490
      74A      1.329525    75A      1.364892    76A      1.371163
      77A      1.371416    78A      1.393545    79A      1.408241
      80A      1.408931    81A      1.420852    82A      1.421619
      83A      1.428385    84A      1.492588    85A      1.510466
      86A      1.547305    87A      1.547852    88A      1.581953
      89A      1.581972    90A      1.673362    91A      1.745652
      92A      1.746425    93A      1.780956    94A      1.833369
      95A      1.834343    96A      1.971582    97A      2.025436
      98A      2.025514    99A      2.039795   100A      2.059794
     101A      2.061419   102A      2.746231   103A      2.746756
     104A      2.811370   105A      2.816494   106A      2.902840
     107A      2.903249   108A      2.925194   109A      2.931762
     110A      2.931777   111A      2.960197   112A      2.969246
     113A      2.969517   114A      3.042433   115A      3.081120
     116A      3.081355   117A      3.084771   118A      3.184414
     119A      3.184884   120A      3.188328   121A      3.290113
     122A      3.290248   123A      3.330055   124A      3.330687
     125A      3.383284   126A      3.493011   127A      3.493295
     128A      3.513606   129A      3.527188   130A      3.575740
     131A      3.581661   132A      3.582364   133A      3.671554
     134A      3.671660   135A      3.692338   136A      3.725448
     137A      3.725701   138A      3.779785   139A      3.782177
     140A      3.818459   141A      3.921185   142A      3.921687
     143A      4.044805   144A      4.117058   145A      4.119354
     146A      4.154995   147A      4.156799   148A      4.188976
     149A      4.208000   150A      4.208119   151A      4.210839
     152A      4.216343   153A      4.323097   154A      4.324713
     155A      4.361232   156A      4.433192   157A      4.433615
     158A      4.446154   159A      4.524860   160A      4.525632
     161A      4.587892   162A      4.588545   163A      4.624911
     164A      4.720237   165A      4.780479   166A      4.782494
     167A      4.838517   168A      4.967339   169A      5.007904
     170A      5.008639   171A      5.236540   172A      5.245128
     173A      5.246096   174A      5.363257   175A      5.364746
     176A      5.479742

    Final Occupation by Irrep:
              A
    DOCC [    16 ]
    SOCC [     1 ]

  @DF-UKS Final Energy:  -157.81305533651394

   => Energetics <=

    Nuclear Repulsion Energy =            125.4000318522335817
    One-Electron Energy =                -458.7597084812386470
    Two-Electron Energy =                 195.8538790259866005
    DFT Exchange-Correlation Energy =     -20.3072577334954367
    Empirical Dispersion Energy =           0.0000000000000000
    VV10 Nonlocal Energy =                  0.0000000000000000
    Total Energy =                       -157.8130553365139406

  UHF NO Occupations:
  HONO-2 :   15  A 1.9996032
  HONO-1 :   16  A 1.9989813
  HONO-0 :   17  A 1.0000000
  LUNO+0 :   18  A 0.0010187
  LUNO+1 :   19  A 0.0003968
  LUNO+2 :   20  A 0.0001979
  LUNO+3 :   21  A 0.0001972

Computation Completed

Properties will be evaluated at   0.000000,   0.000000,   0.000000 [a0]

Properties computed using the SCF density matrix

  Nuclear Dipole Moment: [e a0]
     X:     0.8215      Y:    -0.0000      Z:    -0.0033

  Electronic Dipole Moment: [e a0]
     X:    -0.7404      Y:     0.0000      Z:     0.0034

  Dipole Moment: [e a0]
     X:     0.0811      Y:    -0.0000      Z:     0.0000     Total:     0.0811

  Dipole Moment: [D]
     X:     0.2061      Y:    -0.0000      Z:     0.0001     Total:     0.2061

*** tstop() called on n021 at Fri Nov  5 14:51:46 2021
Module time:
	user time   =     635.45 seconds =      10.59 minutes
	system time =      12.31 seconds =       0.21 minutes
	total time  =        163 seconds =       2.72 minutes
Total time:
	user time   =     635.45 seconds =      10.59 minutes
	system time =      12.31 seconds =       0.21 minutes
	total time  =        163 seconds =       2.72 minutes
Grab this energy -157.81305533651394
    Psi4 stopped on: Friday, 05 November 2021 02:51PM
    Psi4 wall time for execution: 0:02:42.86

*** Psi4 exiting successfully. Buy a developer a beer!
