                               Psi4 1.4a2.dev629

  ==> Input File <==

--------------------------------------------------------------------------
import os
memory 14 GB

molecule {
 C   -0.3233404205   -0.0000025851   -0.0019976226
 C    0.0610063125   -1.4000113033   -2.4260350304
 C    0.0610196113    2.8017590750   -0.0011547893
 C    0.0612738071   -1.4017443306    2.4267271130
 H    2.0871299899   -1.6403365015   -2.8450252542
 H   -0.7656508791   -0.3906440496   -4.0275504023
 H   -0.7644432396   -3.2904594889   -2.3468542710
 H    2.0867954134    3.2881058470   -0.0040946148
 H   -0.7642706930    3.6746304631    1.6772869231
 H   -0.7670171125    3.6858767061   -1.6756965753
 H    2.0867392955   -1.6478562998    2.8498605833
 H   -0.7666943935   -3.2935391792    2.3511249898
 H   -0.7651555682   -0.3858026668    4.0234089508
units bohr
0 2
}

basis {

assign 6-31g_2dfp_

[ 6-31g_2dfp_ ]

spherical

!----------------------------------------------------------------------
! Basis Set Exchange
! Version v0.8.13
! https://www.basissetexchange.org
!----------------------------------------------------------------------
!   Basis set: 6-31G(2df,p)
! Description: 6-31G(2df,p)
!        Role: orbital
!     Version: 0  (Data from the original Basis Set Exchange)
!----------------------------------------------------------------------

****
H     0
S    3   1.00
     18.7311370              0.03349460
      2.8253937              0.23472695
      0.6401217              0.81375733
S    1   1.00
      0.1612778              1.00000000
P    1   1.00
      1.5000000              1.0000000
P    1   1.00
      0.3750000              1.0000000
****
B     0
S    6   1.00
   2068.8823000              0.0018663
    310.6495700              0.0142515
     70.6830330              0.0695516
     19.8610800              0.2325729
      6.2993048              0.4670787
      2.1270270              0.3634314
SP   3   1.00
      4.7279710             -0.1303938              0.0745976
      1.1903377             -0.1307889              0.3078467
      0.3594117              1.1309444              0.7434568
SP   1   1.00
      0.1267512              1.0000000              1.0000000
D    1   1.00
      0.8020000              1.0000000
D    1   1.00
      0.2005000              1.0000000
F    1   1.00
      0.5000000              1.0000000
****
C     0
S    6   1.00
   3047.5249000              0.0018347
    457.3695100              0.0140373
    103.9486900              0.0688426
     29.2101550              0.2321844
      9.2866630              0.4679413
      3.1639270              0.3623120
SP   3   1.00
      7.8682724             -0.1193324              0.0689991
      1.8812885             -0.1608542              0.3164240
      0.5442493              1.1434564              0.7443083
SP   1   1.00
      0.1687144              1.0000000              1.0000000
D    1   1.00
      1.2520000              1.0000000
D    1   1.00
      0.3130000              1.0000000
F    1   1.00
      0.8000000              1.0000000
****
N     0
S    6   1.00
   4173.5110000              0.0018348
    627.4579000              0.0139950
    142.9021000              0.0685870
     40.2343300              0.2322410
     12.8202100              0.4690700
      4.3904370              0.3604550
SP   3   1.00
     11.6263580             -0.1149610              0.0675800
      2.7162800             -0.1691180              0.3239070
      0.7722180              1.1458520              0.7408950
SP   1   1.00
      0.2120313              1.0000000              1.0000000
D    1   1.00
      1.8260000              1.0000000
D    1   1.00
      0.4565000              1.0000000
F    1   1.00
      1.0000000              1.0000000
****
O     0
S    6   1.00
   5484.6717000              0.0018311
    825.2349500              0.0139501
    188.0469600              0.0684451
     52.9645000              0.2327143
     16.8975700              0.4701930
      5.7996353              0.3585209
SP   3   1.00
     15.5396160             -0.1107775              0.0708743
      3.5999336             -0.1480263              0.3397528
      1.0137618              1.1307670              0.7271586
SP   1   1.00
      0.2700058              1.0000000              1.0000000
D    1   1.00
      2.5840000              1.0000000
D    1   1.00
      0.6460000              1.0000000
F    1   1.00
      1.4000000              1.0000000
****
F     0
S    6   1.00
   7001.7130900              0.0018196169
   1051.3660900              0.0139160796
    239.2856900              0.0684053245
     67.3974453              0.233185760
     21.5199573              0.471267439
      7.40310130             0.356618546
SP   3   1.00
     20.8479528             -0.108506975            0.0716287243
      4.80830834            -0.146451658            0.3459121030
      1.34406986             1.128688580            0.7224699570
SP   1   1.00
      0.358151393            1.0000000              1.0000000
D    1   1.00
      3.5000000              1.0000000
D    1   1.00
      0.8750000              1.0000000
F    1   1.00
      1.8500000              1.0000000
****
Al     0
S    6   1.00
  13983.1000000              0.00194267
   2098.7500000              0.0148599
    477.7050000              0.0728494
    134.3600000              0.2468300
     42.8709000              0.4872580
     14.5189000              0.3234960
SP   6   1.00
    239.6680000             -0.00292619             0.00460285
     57.4419000             -0.0374080              0.0331990
     18.2859000             -0.1144870              0.1362820
      6.5991400              0.1156350              0.3304760
      2.4904900              0.6125950              0.4491460
      0.9445400              0.3937990              0.2657040
SP   3   1.00
      1.2779000             -0.2276060             -0.0175130
      0.3975900              0.00144583             0.2445330
      0.1600950              1.0927900              0.8049340
SP   1   1.00
      0.0556577              1.0000000              1.0000000
D    1   1.00
      0.6500000              1.0000000
D    1   1.00
      0.1625000              1.0000000
F    1   1.00
      0.2500000              1.0000000
****
Si     0
S    6   1.00
  16115.9000000              0.00195948
   2425.5800000              0.01492880
    553.8670000              0.07284780
    156.3400000              0.24613000
     50.0683000              0.48591400
     17.0178000              0.32500200
SP   6   1.00
    292.7180000             -0.00278094             0.00443826
     69.8731000             -0.03571460             0.03266790
     22.3363000             -0.11498500             0.13472100
      8.1503900              0.09356340             0.32867800
      3.1345800              0.60301700             0.44964000
      1.2254300              0.41895900             0.26137200
SP   3   1.00
      1.7273800             -0.24463000            -0.01779510
      0.5729220              0.00431572             0.25353900
      0.2221920              1.09818000             0.80066900
SP   1   1.00
      0.0778369              1.00000000             1.00000000
D    1   1.00
      0.9000000              1.0000000
D    1   1.00
      0.2250000              1.0000000
F    1   1.00
      0.3200000              1.0000000
****
P     0
S    6   1.00
  19413.3000000              0.0018516
   2909.4200000              0.0142062
    661.3640000              0.0699995
    185.7590000              0.2400790
     59.1943000              0.4847620
     20.0310000              0.3352000
SP   6   1.00
    339.4780000             -0.00278217             0.00456462
     81.0101000             -0.0360499              0.03369360
     25.8780000             -0.1166310              0.13975500
      9.4522100              0.0968328              0.33936200
      3.6656600              0.6144180              0.45092100
      1.4674600              0.4037980              0.23858600
SP   3   1.00
      2.1562300             -0.2529230             -0.01776530
      0.7489970              0.0328517              0.27405800
      0.2831450              1.0812500              0.78542100
SP   1   1.00
      0.0998317              1.0000000              1.00000000
D    1   1.00
      1.1000000              1.0000000
D    1   1.00
      0.2750000              1.0000000
F    1   1.00
      0.4500000              1.0000000
****
S     0
S    6   1.00
  21917.1000000              0.0018690
   3301.4900000              0.0142300
    754.1460000              0.0696960
    212.7110000              0.2384870
     67.9896000              0.4833070
     23.0515000              0.3380740
SP   6   1.00
    423.7350000             -0.0023767              0.0040610
    100.7100000             -0.0316930              0.0306810
     32.1599000             -0.1133170              0.1304520
     11.8079000              0.0560900              0.3272050
      4.6311000              0.5922550              0.4528510
      1.8702500              0.4550060              0.2560420
SP   3   1.00
      2.6158400             -0.2503740             -0.0145110
      0.9221670              0.0669570              0.3102630
      0.3412870              1.0545100              0.7544830
SP   1   1.00
      0.1171670              1.0000000              1.0000000
D    1   1.00
      1.3000000              1.0000000
D    1   1.00
      0.3250000              1.0000000
F    1   1.00
      0.5500000              1.0000000
****
Cl     0
S    6   1.00
  25180.1000000              0.0018330
   3780.3500000              0.0140340
    860.4740000              0.0690970
    242.1450000              0.2374520
     77.3349000              0.4830340
     26.2470000              0.3398560
SP   6   1.00
    491.7650000             -0.0022974              0.0039894
    116.9840000             -0.0307140              0.0303180
     37.4153000             -0.1125280              0.1298800
     13.7834000              0.0450160              0.3279510
      5.4521500              0.5893530              0.4535270
      2.2258800              0.4652060              0.2521540
SP   3   1.00
      3.1864900             -0.2518300             -0.0142990
      1.1442700              0.0615890              0.3235720
      0.4203770              1.0601800              0.7435070
SP   1   1.00
      0.1426570              1.0000000              1.0000000
D    1   1.00
      1.5000000              1.0000000
D    1   1.00
      0.3750000              1.0000000
F    1   1.00
      0.7000000              1.0000000
****
}

set {
reference uhf
freeze_core true
e_convergence 10
d_convergence 10
dft_spherical_points 1202
dft_radial_points 99
}

e = energy('b3lyp')

print_out('Grab this energy {0}'.format(e))
--------------------------------------------------------------------------

    Molecular point group: c1

    Geometry (in Bohr), charge = 0, multiplicity = 2:

       Center              X                  Y                   Z               Mass
    ------------   -----------------  -----------------  -----------------  -----------------
         C           -0.323340284759    -0.000002320610    -0.001523745458    12.000000000000
         C            0.061006448241    -1.400011038810    -2.425561153258    12.000000000000
         C            0.061019747041     2.801759339490    -0.000680912158    12.000000000000
         C            0.061273942841    -1.401744066110     2.427200990142    12.000000000000
         H            2.087130125641    -1.640336237010    -2.844551377058     1.007825032230
         H           -0.765650743359    -0.390643785110    -4.027076525158     1.007825032230
         H           -0.764443103859    -3.290459224410    -2.346380393858     1.007825032230
         H            2.086795549141     3.288106111490    -0.003620737658     1.007825032230
         H           -0.764270557259     3.674630727590     1.677760800242     1.007825032230
         H           -0.767016976759     3.685876970590    -1.675222698158     1.007825032230
         H            2.086739431241    -1.647856035310     2.850334460442     1.007825032230
         H           -0.766694257759    -3.293538914710     2.351598866942     1.007825032230
         H           -0.765155432459    -0.385802402310     4.023882827942     1.007825032230

  Charge       = 0
  Multiplicity = 2
  Basis Set: ANONYMOUS4BAC4CA6
    Blend: 6-31G_2DFP_
  Basis Set: (ANONYMOUS4BAC4CA6 AUX)
    Blend: DEF2-UNIVERSAL-JKFIT

    Orbital Energies [Eh]
    ---------------------

    Alpha Occupied:

       1A    -10.180342     2A    -10.167175     3A    -10.167015
       4A    -10.166855     5A     -0.797767     6A     -0.686308
       7A     -0.686065     8A     -0.530776     9A     -0.441129
      10A     -0.434739    11A     -0.434599    12A     -0.382634
      13A     -0.382564    14A     -0.363612    15A     -0.338064
      16A     -0.337932    17A     -0.168961

    Alpha Virtual:

      18A      0.076073    19A      0.134125    20A      0.134188
      21A      0.142565    22A      0.142687    23A      0.154879
      24A      0.178738    25A      0.178818    26A      0.203548
      27A      0.214804    28A      0.275717    29A      0.276254
      30A      0.399189    31A      0.399261    32A      0.403352
      33A      0.424043    34A      0.424153    35A      0.456592
      36A      0.495330    37A      0.495449    38A      0.512159
      39A      0.513979    40A      0.578529    41A      0.579105
      42A      0.591338    43A      0.591925    44A      0.602575
      45A      0.624758    46A      0.631777    47A      0.636212
      48A      0.636290    49A      0.663379    50A      0.663444
      51A      0.683823    52A      0.683881    53A      0.734994
      54A      0.825191    55A      0.825622    56A      0.853916
      57A      0.914881    58A      0.915158    59A      0.944123
      60A      0.944613    61A      0.960607    62A      0.961984
      63A      1.003463    64A      1.127888    65A      1.128318
      66A      1.142220    67A      1.163172    68A      1.163382
      69A      1.223326    70A      1.274335    71A      1.274645
      72A      1.279348    73A      1.324354    74A      1.324361
      75A      1.355996    76A      1.365890    77A      1.366215
      78A      1.392456    79A      1.403741    80A      1.404368
      81A      1.416712    82A      1.417506    83A      1.427909
      84A      1.491494    85A      1.499077    86A      1.542555
      87A      1.543101    88A      1.574437    89A      1.574452
      90A      1.669830    91A      1.739047    92A      1.739794
      93A      1.768310    94A      1.830906    95A      1.831890
      96A      1.971727    97A      2.018027    98A      2.019041
      99A      2.019323   100A      2.051832   101A      2.053443
     102A      2.738205   103A      2.738761   104A      2.790928
     105A      2.811416   106A      2.889673   107A      2.890204
     108A      2.894988   109A      2.929475   110A      2.929518
     111A      2.958994   112A      2.964222   113A      2.964525
     114A      3.034009   115A      3.071152   116A      3.071415
     117A      3.084350   118A      3.168582   119A      3.168988
     120A      3.180582   121A      3.285270   122A      3.285359
     123A      3.326829   124A      3.327486   125A      3.375620
     126A      3.489992   127A      3.490309   128A      3.514025
     129A      3.525308   130A      3.568043   131A      3.568664
     132A      3.575239   133A      3.666199   134A      3.666538
     135A      3.679626   136A      3.693713   137A      3.694578
     138A      3.775564   139A      3.778044   140A      3.789152
     141A      3.911964   142A      3.912497   143A      4.034452
     144A      4.110102   145A      4.112623   146A      4.147228
     147A      4.148987   148A      4.173283   149A      4.202623
     150A      4.203032   151A      4.203133   152A      4.210859
     153A      4.315153   154A      4.316726   155A      4.359028
     156A      4.424204   157A      4.424713   158A      4.443446
     159A      4.516415   160A      4.517244   161A      4.577928
     162A      4.578591   163A      4.617525   164A      4.709453
     165A      4.773520   166A      4.775658   167A      4.836948
     168A      4.962859   169A      5.002599   170A      5.003306
     171A      5.228036   172A      5.246341   173A      5.247279
     174A      5.354781   175A      5.356219   176A      5.479355

    Beta Occupied:

       1A    -10.167933     2A    -10.167775     3A    -10.167617
       4A    -10.166519     5A     -0.781092     6A     -0.684103
       7A     -0.683875     8A     -0.511747     9A     -0.431105
      10A     -0.430984    11A     -0.421818    12A     -0.376715
      13A     -0.376654    14A     -0.362595    15A     -0.333183
      16A     -0.333060

    Beta Virtual:

      17A     -0.025742    18A      0.077082    19A      0.135022
      20A      0.135069    21A      0.144435    22A      0.144560
      23A      0.163339    24A      0.182428    25A      0.182471
      26A      0.215034    27A      0.218930    28A      0.282075
      29A      0.282592    30A      0.400362    31A      0.400433
      32A      0.419789    33A      0.426854    34A      0.426967
      35A      0.468500    36A      0.497594    37A      0.497707
      38A      0.513895    39A      0.556324    40A      0.584077
      41A      0.584656    42A      0.597532    43A      0.598091
      44A      0.609998    45A      0.628135    46A      0.631932
      47A      0.639479    48A      0.639595    49A      0.666941
      50A      0.667009    51A      0.686437    52A      0.686538
      53A      0.757517    54A      0.830338    55A      0.830812
      56A      0.855269    57A      0.922887    58A      0.923094
      59A      0.945961    60A      0.953537    61A      0.965971
      62A      0.967238    63A      1.008704    64A      1.131842
      65A      1.132422    66A      1.155600    67A      1.168326
      68A      1.168372    69A      1.232298    70A      1.279933
      71A      1.280241    72A      1.285102    73A      1.329334
      74A      1.329360    75A      1.365413    76A      1.371162
      77A      1.371428    78A      1.393516    79A      1.407180
      80A      1.407858    81A      1.421769    82A      1.422551
      83A      1.428178    84A      1.492543    85A      1.509520
      86A      1.546961    87A      1.547510    88A      1.582311
      89A      1.582323    90A      1.674677    91A      1.744800
      92A      1.745564    93A      1.779090    94A      1.834764
      95A      1.835743    96A      1.972586    97A      2.025382
      98A      2.025502    99A      2.039689   100A      2.058519
     101A      2.060184   102A      2.746558   103A      2.747081
     104A      2.811829   105A      2.816062   106A      2.902437
     107A      2.902849   108A      2.924664   109A      2.931968
     110A      2.931985   111A      2.960056   112A      2.968784
     113A      2.969052   114A      3.041944   115A      3.081071
     116A      3.081316   117A      3.086166   118A      3.184303
     119A      3.184776   120A      3.188257   121A      3.290044
     122A      3.290182   123A      3.330651   124A      3.331273
     125A      3.383439   126A      3.492739   127A      3.493020
     128A      3.512392   129A      3.528361   130A      3.574910
     131A      3.581432   132A      3.582133   133A      3.671071
     134A      3.671194   135A      3.692921   136A      3.725645
     137A      3.725880   138A      3.780135   139A      3.782524
     140A      3.817698   141A      3.921798   142A      3.922296
     143A      4.045338   144A      4.117030   145A      4.119327
     146A      4.154415   147A      4.156223   148A      4.187336
     149A      4.208943   150A      4.209066   151A      4.210621
     152A      4.215334   153A      4.322566   154A      4.324186
     155A      4.362396   156A      4.432466   157A      4.432881
     158A      4.446331   159A      4.524216   160A      4.525023
     161A      4.588530   162A      4.589188   163A      4.624721
     164A      4.719798   165A      4.780515   166A      4.782568
     167A      4.839867   168A      4.967653   169A      5.006629
     170A      5.007354   171A      5.233752   172A      5.248118
     173A      5.249071   174A      5.361240   175A      5.362721
     176A      5.481677

    Final Occupation by Irrep:
              A
    DOCC [    16 ]
    SOCC [     1 ]

  @DF-UKS Final Energy:  -157.81306947325874

   => Energetics <=

    Nuclear Repulsion Energy =            125.3946066750644519
    One-Electron Energy =                -458.7488790481065166
    Two-Electron Energy =                 195.8483452426416989
    DFT Exchange-Correlation Energy =     -20.3071423428583557
    Empirical Dispersion Energy =           0.0000000000000000
    VV10 Nonlocal Energy =                  0.0000000000000000
    Total Energy =                       -157.8130694732587358

  UHF NO Occupations:
  HONO-2 :   15  A 1.9996009
  HONO-1 :   16  A 1.9989805
  HONO-0 :   17  A 1.0000000
  LUNO+0 :   18  A 0.0010195
  LUNO+1 :   19  A 0.0003991
  LUNO+2 :   20  A 0.0001979
  LUNO+3 :   21  A 0.0001972

Computation Completed

Properties will be evaluated at   0.000000,   0.000000,   0.000000 [a0]

Properties computed using the SCF density matrix

  Nuclear Dipole Moment: [e a0]
     X:     0.8272      Y:    -0.0000      Z:     0.0033

  Electronic Dipole Moment: [e a0]
     X:    -0.7493      Y:     0.0000      Z:    -0.0034

  Dipole Moment: [e a0]
     X:     0.0779      Y:    -0.0000      Z:    -0.0000     Total:     0.0779

  Dipole Moment: [D]
     X:     0.1980      Y:    -0.0000      Z:    -0.0001     Total:     0.1980

*** tstop() called on n073 at Fri Nov  5 15:35:28 2021
Module time:
	user time   =     566.55 seconds =       9.44 minutes
	system time =      12.90 seconds =       0.21 minutes
	total time  =        146 seconds =       2.43 minutes
Total time:
	user time   =     566.55 seconds =       9.44 minutes
	system time =      12.90 seconds =       0.21 minutes
	total time  =        146 seconds =       2.43 minutes
Grab this energy -157.81306947325874
    Psi4 stopped on: Friday, 05 November 2021 03:35PM
    Psi4 wall time for execution: 0:02:25.70

*** Psi4 exiting successfully. Buy a developer a beer!
