                               Psi4 1.4a2.dev629

  ==> Input File <==

--------------------------------------------------------------------------
import os
memory 14 GB

molecule {
 C   -0.3236397454   -0.0000013909   -0.0004320297
 C    0.0615476470   -1.4029512431   -2.4313633298
 C    0.0611604421    2.8072050944   -0.0013900320
 C    0.0610110474   -1.4042480470    2.4308292337
 H    2.0864405680   -1.6458847387   -2.8540323561
 H   -0.7636657122   -0.3909458110   -4.0301680280
 H   -0.7670355838   -3.2972166594   -2.3532775732
 H    2.0870910361    3.2946974338   -0.0034969680
 H   -0.7690189498    3.6871576001    1.6792741330
 H   -0.7626076131    3.6853499154   -1.6744948744
 H    2.0880190814   -1.6489056289    2.8522700373
 H   -0.7644340154   -3.2934491901    2.3547063955
 H   -0.7674760790   -0.3908316483    4.0315753918
units bohr
0 2
}

basis {

assign 6-31g_2dfp_

[ 6-31g_2dfp_ ]

spherical

!----------------------------------------------------------------------
! Basis Set Exchange
! Version v0.8.13
! https://www.basissetexchange.org
!----------------------------------------------------------------------
!   Basis set: 6-31G(2df,p)
! Description: 6-31G(2df,p)
!        Role: orbital
!     Version: 0  (Data from the original Basis Set Exchange)
!----------------------------------------------------------------------

****
H     0
S    3   1.00
     18.7311370              0.03349460
      2.8253937              0.23472695
      0.6401217              0.81375733
S    1   1.00
      0.1612778              1.00000000
P    1   1.00
      1.5000000              1.0000000
P    1   1.00
      0.3750000              1.0000000
****
B     0
S    6   1.00
   2068.8823000              0.0018663
    310.6495700              0.0142515
     70.6830330              0.0695516
     19.8610800              0.2325729
      6.2993048              0.4670787
      2.1270270              0.3634314
SP   3   1.00
      4.7279710             -0.1303938              0.0745976
      1.1903377             -0.1307889              0.3078467
      0.3594117              1.1309444              0.7434568
SP   1   1.00
      0.1267512              1.0000000              1.0000000
D    1   1.00
      0.8020000              1.0000000
D    1   1.00
      0.2005000              1.0000000
F    1   1.00
      0.5000000              1.0000000
****
C     0
S    6   1.00
   3047.5249000              0.0018347
    457.3695100              0.0140373
    103.9486900              0.0688426
     29.2101550              0.2321844
      9.2866630              0.4679413
      3.1639270              0.3623120
SP   3   1.00
      7.8682724             -0.1193324              0.0689991
      1.8812885             -0.1608542              0.3164240
      0.5442493              1.1434564              0.7443083
SP   1   1.00
      0.1687144              1.0000000              1.0000000
D    1   1.00
      1.2520000              1.0000000
D    1   1.00
      0.3130000              1.0000000
F    1   1.00
      0.8000000              1.0000000
****
N     0
S    6   1.00
   4173.5110000              0.0018348
    627.4579000              0.0139950
    142.9021000              0.0685870
     40.2343300              0.2322410
     12.8202100              0.4690700
      4.3904370              0.3604550
SP   3   1.00
     11.6263580             -0.1149610              0.0675800
      2.7162800             -0.1691180              0.3239070
      0.7722180              1.1458520              0.7408950
SP   1   1.00
      0.2120313              1.0000000              1.0000000
D    1   1.00
      1.8260000              1.0000000
D    1   1.00
      0.4565000              1.0000000
F    1   1.00
      1.0000000              1.0000000
****
O     0
S    6   1.00
   5484.6717000              0.0018311
    825.2349500              0.0139501
    188.0469600              0.0684451
     52.9645000              0.2327143
     16.8975700              0.4701930
      5.7996353              0.3585209
SP   3   1.00
     15.5396160             -0.1107775              0.0708743
      3.5999336             -0.1480263              0.3397528
      1.0137618              1.1307670              0.7271586
SP   1   1.00
      0.2700058              1.0000000              1.0000000
D    1   1.00
      2.5840000              1.0000000
D    1   1.00
      0.6460000              1.0000000
F    1   1.00
      1.4000000              1.0000000
****
F     0
S    6   1.00
   7001.7130900              0.0018196169
   1051.3660900              0.0139160796
    239.2856900              0.0684053245
     67.3974453              0.233185760
     21.5199573              0.471267439
      7.40310130             0.356618546
SP   3   1.00
     20.8479528             -0.108506975            0.0716287243
      4.80830834            -0.146451658            0.3459121030
      1.34406986             1.128688580            0.7224699570
SP   1   1.00
      0.358151393            1.0000000              1.0000000
D    1   1.00
      3.5000000              1.0000000
D    1   1.00
      0.8750000              1.0000000
F    1   1.00
      1.8500000              1.0000000
****
Al     0
S    6   1.00
  13983.1000000              0.00194267
   2098.7500000              0.0148599
    477.7050000              0.0728494
    134.3600000              0.2468300
     42.8709000              0.4872580
     14.5189000              0.3234960
SP   6   1.00
    239.6680000             -0.00292619             0.00460285
     57.4419000             -0.0374080              0.0331990
     18.2859000             -0.1144870              0.1362820
      6.5991400              0.1156350              0.3304760
      2.4904900              0.6125950              0.4491460
      0.9445400              0.3937990              0.2657040
SP   3   1.00
      1.2779000             -0.2276060             -0.0175130
      0.3975900              0.00144583             0.2445330
      0.1600950              1.0927900              0.8049340
SP   1   1.00
      0.0556577              1.0000000              1.0000000
D    1   1.00
      0.6500000              1.0000000
D    1   1.00
      0.1625000              1.0000000
F    1   1.00
      0.2500000              1.0000000
****
Si     0
S    6   1.00
  16115.9000000              0.00195948
   2425.5800000              0.01492880
    553.8670000              0.07284780
    156.3400000              0.24613000
     50.0683000              0.48591400
     17.0178000              0.32500200
SP   6   1.00
    292.7180000             -0.00278094             0.00443826
     69.8731000             -0.03571460             0.03266790
     22.3363000             -0.11498500             0.13472100
      8.1503900              0.09356340             0.32867800
      3.1345800              0.60301700             0.44964000
      1.2254300              0.41895900             0.26137200
SP   3   1.00
      1.7273800             -0.24463000            -0.01779510
      0.5729220              0.00431572             0.25353900
      0.2221920              1.09818000             0.80066900
SP   1   1.00
      0.0778369              1.00000000             1.00000000
D    1   1.00
      0.9000000              1.0000000
D    1   1.00
      0.2250000              1.0000000
F    1   1.00
      0.3200000              1.0000000
****
P     0
S    6   1.00
  19413.3000000              0.0018516
   2909.4200000              0.0142062
    661.3640000              0.0699995
    185.7590000              0.2400790
     59.1943000              0.4847620
     20.0310000              0.3352000
SP   6   1.00
    339.4780000             -0.00278217             0.00456462
     81.0101000             -0.0360499              0.03369360
     25.8780000             -0.1166310              0.13975500
      9.4522100              0.0968328              0.33936200
      3.6656600              0.6144180              0.45092100
      1.4674600              0.4037980              0.23858600
SP   3   1.00
      2.1562300             -0.2529230             -0.01776530
      0.7489970              0.0328517              0.27405800
      0.2831450              1.0812500              0.78542100
SP   1   1.00
      0.0998317              1.0000000              1.00000000
D    1   1.00
      1.1000000              1.0000000
D    1   1.00
      0.2750000              1.0000000
F    1   1.00
      0.4500000              1.0000000
****
S     0
S    6   1.00
  21917.1000000              0.0018690
   3301.4900000              0.0142300
    754.1460000              0.0696960
    212.7110000              0.2384870
     67.9896000              0.4833070
     23.0515000              0.3380740
SP   6   1.00
    423.7350000             -0.0023767              0.0040610
    100.7100000             -0.0316930              0.0306810
     32.1599000             -0.1133170              0.1304520
     11.8079000              0.0560900              0.3272050
      4.6311000              0.5922550              0.4528510
      1.8702500              0.4550060              0.2560420
SP   3   1.00
      2.6158400             -0.2503740             -0.0145110
      0.9221670              0.0669570              0.3102630
      0.3412870              1.0545100              0.7544830
SP   1   1.00
      0.1171670              1.0000000              1.0000000
D    1   1.00
      1.3000000              1.0000000
D    1   1.00
      0.3250000              1.0000000
F    1   1.00
      0.5500000              1.0000000
****
Cl     0
S    6   1.00
  25180.1000000              0.0018330
   3780.3500000              0.0140340
    860.4740000              0.0690970
    242.1450000              0.2374520
     77.3349000              0.4830340
     26.2470000              0.3398560
SP   6   1.00
    491.7650000             -0.0022974              0.0039894
    116.9840000             -0.0307140              0.0303180
     37.4153000             -0.1125280              0.1298800
     13.7834000              0.0450160              0.3279510
      5.4521500              0.5893530              0.4535270
      2.2258800              0.4652060              0.2521540
SP   3   1.00
      3.1864900             -0.2518300             -0.0142990
      1.1442700              0.0615890              0.3235720
      0.4203770              1.0601800              0.7435070
SP   1   1.00
      0.1426570              1.0000000              1.0000000
D    1   1.00
      1.5000000              1.0000000
D    1   1.00
      0.3750000              1.0000000
F    1   1.00
      0.7000000              1.0000000
****
}

set {
reference uhf
freeze_core true
e_convergence 10
d_convergence 10
dft_spherical_points 1202
dft_radial_points 99
}

e = energy('b3lyp')

print_out('Grab this energy {0}'.format(e))
--------------------------------------------------------------------------

    Molecular point group: c1

    Geometry (in Bohr), charge = 0, multiplicity = 2:

       Center              X                  Y                   Z               Mass
    ------------   -----------------  -----------------  -----------------  -----------------
         C           -0.323662738067    -0.000001811589     0.000021783261    12.000000000000
         C            0.061524654333    -1.402951663789    -2.430909516839    12.000000000000
         C            0.061137449433     2.807204673711    -0.000936219039    12.000000000000
         C            0.060988054733    -1.404248467689     2.431283046661    12.000000000000
         H            2.086417575333    -1.645885159389    -2.853578543139     1.007825032230
         H           -0.763688704867    -0.390946231689    -4.029714215039     1.007825032230
         H           -0.767058576467    -3.297217080089    -2.352823760239     1.007825032230
         H            2.087068043433     3.294697013111    -0.003043155039     1.007825032230
         H           -0.769041942467     3.687157179411     1.679727945961     1.007825032230
         H           -0.762630605767     3.685349494711    -1.674041061439     1.007825032230
         H            2.087996088733    -1.648906049589     2.852723850261     1.007825032230
         H           -0.764457008067    -3.293449610789     2.355160208461     1.007825032230
         H           -0.767499071667    -0.390832068989     4.032029204761     1.007825032230

  Charge       = 0
  Multiplicity = 2
  Basis Set: ANONYMOUS133A5E7E
    Blend: 6-31G_2DFP_
  Basis Set: (ANONYMOUS133A5E7E AUX)
    Blend: DEF2-UNIVERSAL-JKFIT

    Orbital Energies [Eh]
    ---------------------

    Alpha Occupied:

       1A    -10.181113     2A    -10.167395     3A    -10.167388
       4A    -10.167345     5A     -0.796721     6A     -0.685948
       7A     -0.685829     8A     -0.530780     9A     -0.440533
      10A     -0.434377    11A     -0.434004    12A     -0.382548
      13A     -0.382502    14A     -0.363729    15A     -0.337972
      16A     -0.337648    17A     -0.169286

    Alpha Virtual:

      18A      0.076100    19A      0.134001    20A      0.134225
      21A      0.142223    22A      0.142628    23A      0.154821
      24A      0.178510    25A      0.178695    26A      0.202437
      27A      0.214459    28A      0.275344    29A      0.275563
      30A      0.398999    31A      0.399495    32A      0.403549
      33A      0.424223    34A      0.424542    35A      0.456031
      36A      0.495115    37A      0.495214    38A      0.511827
      39A      0.513570    40A      0.578067    41A      0.578173
      42A      0.590945    43A      0.591232    44A      0.602123
      45A      0.624308    46A      0.631415    47A      0.635192
      48A      0.635764    49A      0.662718    50A      0.663146
      51A      0.683215    52A      0.683624    53A      0.735194
      54A      0.825308    55A      0.825814    56A      0.852910
      57A      0.914085    58A      0.914516    59A      0.942801
      60A      0.945177    61A      0.960257    62A      0.960418
      63A      1.002337    64A      1.126936    65A      1.127506
      66A      1.141881    67A      1.162430    68A      1.162550
      69A      1.222433    70A      1.273336    71A      1.273829
      72A      1.278837    73A      1.323808    74A      1.324222
      75A      1.355818    76A      1.363928    77A      1.364535
      78A      1.390933    79A      1.404257    80A      1.404380
      81A      1.416045    82A      1.417467    83A      1.426473
      84A      1.490302    85A      1.498501    86A      1.542077
      87A      1.542118    88A      1.573081    89A      1.573485
      90A      1.669904    91A      1.738077    92A      1.739480
      93A      1.766812    94A      1.829425    95A      1.830952
      96A      1.970386    97A      2.015641    98A      2.017546
      99A      2.018680   100A      2.047677   101A      2.048714
     102A      2.737702   103A      2.738060   104A      2.789761
     105A      2.808704   106A      2.888650   107A      2.888924
     108A      2.893416   109A      2.929298   110A      2.929360
     111A      2.958728   112A      2.964634   113A      2.964757
     114A      3.034038   115A      3.069771   116A      3.070858
     117A      3.082870   118A      3.167522   119A      3.168343
     120A      3.178735   121A      3.284617   122A      3.284952
     123A      3.326348   124A      3.327141   125A      3.376984
     126A      3.488071   127A      3.488652   128A      3.513235
     129A      3.522978   130A      3.568041   131A      3.568895
     132A      3.573006   133A      3.665954   134A      3.666940
     135A      3.677717   136A      3.692461   137A      3.692956
     138A      3.772224   139A      3.772433   140A      3.788422
     141A      3.909558   142A      3.910713   143A      4.032609
     144A      4.107970   145A      4.108916   146A      4.147151
     147A      4.147618   148A      4.172126   149A      4.199905
     150A      4.201225   151A      4.201524   152A      4.209355
     153A      4.313771   154A      4.315092   155A      4.356484
     156A      4.421858   157A      4.422950   158A      4.441037
     159A      4.512818   160A      4.514909   161A      4.574705
     162A      4.574731   163A      4.610257   164A      4.704663
     165A      4.767196   166A      4.769164   167A      4.832953
     168A      4.959848   169A      5.000978   170A      5.001715
     171A      5.226562   172A      5.245342   173A      5.245873
     174A      5.351646   175A      5.354197   176A      5.473715

    Beta Occupied:

       1A    -10.168146     2A    -10.168139     3A    -10.168123
       4A    -10.167260     5A     -0.780069     6A     -0.683772
       7A     -0.683650     8A     -0.511651     9A     -0.430768
      10A     -0.430395    11A     -0.421324    12A     -0.376665
      13A     -0.376628    14A     -0.362725    15A     -0.333087
      16A     -0.332771

    Beta Virtual:

      17A     -0.025775    18A      0.077097    19A      0.134872
      20A      0.135148    21A      0.144036    22A      0.144499
      23A      0.163235    24A      0.182155    25A      0.182340
      26A      0.214681    27A      0.218000    28A      0.281763
      29A      0.281980    30A      0.400133    31A      0.400637
      32A      0.420091    33A      0.427043    34A      0.427362
      35A      0.467584    36A      0.497356    37A      0.497465
      38A      0.513547    39A      0.555986    40A      0.583613
      41A      0.583716    42A      0.597160    43A      0.597492
      44A      0.609511    45A      0.627627    46A      0.631563
      47A      0.638424    48A      0.638955    49A      0.666335
      50A      0.666737    51A      0.685793    52A      0.686160
      53A      0.757895    54A      0.830472    55A      0.830953
      56A      0.854227    57A      0.922063    58A      0.922454
      59A      0.944634    60A      0.954193    61A      0.965521
      62A      0.965718    63A      1.007655    64A      1.130969
      65A      1.131531    66A      1.155247    67A      1.167504
      68A      1.167616    69A      1.231265    70A      1.278876
      71A      1.279404    72A      1.284657    73A      1.328801
      74A      1.329213    75A      1.365205    76A      1.369239
      77A      1.369724    78A      1.391983    79A      1.407740
      80A      1.407893    81A      1.421089    82A      1.422409
      83A      1.426708    84A      1.491353    85A      1.508881
      86A      1.546513    87A      1.546613    88A      1.580881
      89A      1.581288    90A      1.674743    91A      1.743823
      92A      1.745255    93A      1.777566    94A      1.833257
      95A      1.834794    96A      1.971242    97A      2.023742
      98A      2.024867    99A      2.037337   100A      2.054356
     101A      2.055420   102A      2.746122   103A      2.746502
     104A      2.809111   105A      2.814917   106A      2.901515
     107A      2.901867   108A      2.923061   109A      2.931639
     110A      2.931662   111A      2.959789   112A      2.969108
     113A      2.969246   114A      3.041885   115A      3.079524
     116A      3.080606   117A      3.084817   118A      3.183408
     119A      3.184160   120A      3.186484   121A      3.289230
     122A      3.289587   123A      3.330194   124A      3.331054
     125A      3.384820   126A      3.490834   127A      3.491384
     128A      3.511608   129A      3.526075   130A      3.572846
     131A      3.581280   132A      3.582299   133A      3.670945
     134A      3.671649   135A      3.691039   136A      3.724467
     137A      3.724566   138A      3.776681   139A      3.776951
     140A      3.817097   141A      3.919302   142A      3.920588
     143A      4.043566   144A      4.114852   145A      4.116213
     146A      4.153959   147A      4.154878   148A      4.186048
     149A      4.205870   150A      4.207420   151A      4.209138
     152A      4.213767   153A      4.321222   154A      4.322463
     155A      4.359867   156A      4.429986   157A      4.431039
     158A      4.443907   159A      4.520474   160A      4.522578
     161A      4.585260   162A      4.585340   163A      4.617465
     164A      4.714925   165A      4.774174   166A      4.776087
     167A      4.835872   168A      4.964620   169A      5.004980
     170A      5.005713   171A      5.232129   172A      5.247125
     173A      5.247749   174A      5.358081   175A      5.360608
     176A      5.476016

    Final Occupation by Irrep:
              A
    DOCC [    16 ]
    SOCC [     1 ]

  @DF-UKS Final Energy:  -157.81306121772454

   => Energetics <=

    Nuclear Repulsion Energy =            125.2136857821221980
    One-Electron Energy =                -458.3926138433497499
    Two-Electron Energy =                 195.6692208795791146
    DFT Exchange-Correlation Energy =     -20.3033540360760973
    Empirical Dispersion Energy =           0.0000000000000000
    VV10 Nonlocal Energy =                  0.0000000000000000
    Total Energy =                       -157.8130612177245382

  UHF NO Occupations:
  HONO-2 :   15  A 1.9996026
  HONO-1 :   16  A 1.9989734
  HONO-0 :   17  A 1.0000000
  LUNO+0 :   18  A 0.0010266
  LUNO+1 :   19  A 0.0003974
  LUNO+2 :   20  A 0.0001997
  LUNO+3 :   21  A 0.0001997

Computation Completed

Properties will be evaluated at   0.000000,   0.000000,   0.000000 [a0]

Properties computed using the SCF density matrix

  Nuclear Dipole Moment: [e a0]
     X:     0.8270      Y:    -0.0000      Z:     0.0032

  Electronic Dipole Moment: [e a0]
     X:    -0.7483      Y:     0.0000      Z:    -0.0049

  Dipole Moment: [e a0]
     X:     0.0788      Y:    -0.0000      Z:    -0.0017     Total:     0.0788

  Dipole Moment: [D]
     X:     0.2002      Y:    -0.0000      Z:    -0.0044     Total:     0.2003

*** tstop() called on n091 at Fri Nov  5 14:38:15 2021
Module time:
	user time   =     465.29 seconds =       7.75 minutes
	system time =       4.27 seconds =       0.07 minutes
	total time  =        118 seconds =       1.97 minutes
Total time:
	user time   =     465.29 seconds =       7.75 minutes
	system time =       4.27 seconds =       0.07 minutes
	total time  =        118 seconds =       1.97 minutes
Grab this energy -157.81306121772454
    Psi4 stopped on: Friday, 05 November 2021 02:38PM
    Psi4 wall time for execution: 0:01:58.11

*** Psi4 exiting successfully. Buy a developer a beer!
