                               Psi4 1.4a2.dev629

  ==> Input File <==

--------------------------------------------------------------------------
import os
memory 14 GB

molecule {
 C   -0.3233410231    0.0024269840   -0.0004942979
 C    0.0616234994   -1.4006063001   -2.4281179672
 C    0.0602239104    2.8005069291   -0.0000415182
 C    0.0614518972   -1.3998978386    2.4268121802
 H    2.0845990528   -1.6466276713   -2.8460013330
 H   -0.7590902046   -0.3906253006   -4.0278405101
 H   -0.7666928671   -3.2858687887   -2.3510657243
 H    2.0842270853    3.2889226982    0.0000286165
 H   -0.7669731038    3.6778671253    1.6770669156
 H   -0.7671511937    3.6768776728   -1.6764140982
 H    2.0918381854   -1.6461821336    2.8452625187
 H   -0.7705697609   -3.2918412220    2.3480801157
 H   -0.7627533539   -0.3849764681    4.0327251022
units bohr
0 2
}

basis {

assign 6-31g_2dfp_

[ 6-31g_2dfp_ ]

spherical

!----------------------------------------------------------------------
! Basis Set Exchange
! Version v0.8.13
! https://www.basissetexchange.org
!----------------------------------------------------------------------
!   Basis set: 6-31G(2df,p)
! Description: 6-31G(2df,p)
!        Role: orbital
!     Version: 0  (Data from the original Basis Set Exchange)
!----------------------------------------------------------------------

****
H     0
S    3   1.00
     18.7311370              0.03349460
      2.8253937              0.23472695
      0.6401217              0.81375733
S    1   1.00
      0.1612778              1.00000000
P    1   1.00
      1.5000000              1.0000000
P    1   1.00
      0.3750000              1.0000000
****
B     0
S    6   1.00
   2068.8823000              0.0018663
    310.6495700              0.0142515
     70.6830330              0.0695516
     19.8610800              0.2325729
      6.2993048              0.4670787
      2.1270270              0.3634314
SP   3   1.00
      4.7279710             -0.1303938              0.0745976
      1.1903377             -0.1307889              0.3078467
      0.3594117              1.1309444              0.7434568
SP   1   1.00
      0.1267512              1.0000000              1.0000000
D    1   1.00
      0.8020000              1.0000000
D    1   1.00
      0.2005000              1.0000000
F    1   1.00
      0.5000000              1.0000000
****
C     0
S    6   1.00
   3047.5249000              0.0018347
    457.3695100              0.0140373
    103.9486900              0.0688426
     29.2101550              0.2321844
      9.2866630              0.4679413
      3.1639270              0.3623120
SP   3   1.00
      7.8682724             -0.1193324              0.0689991
      1.8812885             -0.1608542              0.3164240
      0.5442493              1.1434564              0.7443083
SP   1   1.00
      0.1687144              1.0000000              1.0000000
D    1   1.00
      1.2520000              1.0000000
D    1   1.00
      0.3130000              1.0000000
F    1   1.00
      0.8000000              1.0000000
****
N     0
S    6   1.00
   4173.5110000              0.0018348
    627.4579000              0.0139950
    142.9021000              0.0685870
     40.2343300              0.2322410
     12.8202100              0.4690700
      4.3904370              0.3604550
SP   3   1.00
     11.6263580             -0.1149610              0.0675800
      2.7162800             -0.1691180              0.3239070
      0.7722180              1.1458520              0.7408950
SP   1   1.00
      0.2120313              1.0000000              1.0000000
D    1   1.00
      1.8260000              1.0000000
D    1   1.00
      0.4565000              1.0000000
F    1   1.00
      1.0000000              1.0000000
****
O     0
S    6   1.00
   5484.6717000              0.0018311
    825.2349500              0.0139501
    188.0469600              0.0684451
     52.9645000              0.2327143
     16.8975700              0.4701930
      5.7996353              0.3585209
SP   3   1.00
     15.5396160             -0.1107775              0.0708743
      3.5999336             -0.1480263              0.3397528
      1.0137618              1.1307670              0.7271586
SP   1   1.00
      0.2700058              1.0000000              1.0000000
D    1   1.00
      2.5840000              1.0000000
D    1   1.00
      0.6460000              1.0000000
F    1   1.00
      1.4000000              1.0000000
****
F     0
S    6   1.00
   7001.7130900              0.0018196169
   1051.3660900              0.0139160796
    239.2856900              0.0684053245
     67.3974453              0.233185760
     21.5199573              0.471267439
      7.40310130             0.356618546
SP   3   1.00
     20.8479528             -0.108506975            0.0716287243
      4.80830834            -0.146451658            0.3459121030
      1.34406986             1.128688580            0.7224699570
SP   1   1.00
      0.358151393            1.0000000              1.0000000
D    1   1.00
      3.5000000              1.0000000
D    1   1.00
      0.8750000              1.0000000
F    1   1.00
      1.8500000              1.0000000
****
Al     0
S    6   1.00
  13983.1000000              0.00194267
   2098.7500000              0.0148599
    477.7050000              0.0728494
    134.3600000              0.2468300
     42.8709000              0.4872580
     14.5189000              0.3234960
SP   6   1.00
    239.6680000             -0.00292619             0.00460285
     57.4419000             -0.0374080              0.0331990
     18.2859000             -0.1144870              0.1362820
      6.5991400              0.1156350              0.3304760
      2.4904900              0.6125950              0.4491460
      0.9445400              0.3937990              0.2657040
SP   3   1.00
      1.2779000             -0.2276060             -0.0175130
      0.3975900              0.00144583             0.2445330
      0.1600950              1.0927900              0.8049340
SP   1   1.00
      0.0556577              1.0000000              1.0000000
D    1   1.00
      0.6500000              1.0000000
D    1   1.00
      0.1625000              1.0000000
F    1   1.00
      0.2500000              1.0000000
****
Si     0
S    6   1.00
  16115.9000000              0.00195948
   2425.5800000              0.01492880
    553.8670000              0.07284780
    156.3400000              0.24613000
     50.0683000              0.48591400
     17.0178000              0.32500200
SP   6   1.00
    292.7180000             -0.00278094             0.00443826
     69.8731000             -0.03571460             0.03266790
     22.3363000             -0.11498500             0.13472100
      8.1503900              0.09356340             0.32867800
      3.1345800              0.60301700             0.44964000
      1.2254300              0.41895900             0.26137200
SP   3   1.00
      1.7273800             -0.24463000            -0.01779510
      0.5729220              0.00431572             0.25353900
      0.2221920              1.09818000             0.80066900
SP   1   1.00
      0.0778369              1.00000000             1.00000000
D    1   1.00
      0.9000000              1.0000000
D    1   1.00
      0.2250000              1.0000000
F    1   1.00
      0.3200000              1.0000000
****
P     0
S    6   1.00
  19413.3000000              0.0018516
   2909.4200000              0.0142062
    661.3640000              0.0699995
    185.7590000              0.2400790
     59.1943000              0.4847620
     20.0310000              0.3352000
SP   6   1.00
    339.4780000             -0.00278217             0.00456462
     81.0101000             -0.0360499              0.03369360
     25.8780000             -0.1166310              0.13975500
      9.4522100              0.0968328              0.33936200
      3.6656600              0.6144180              0.45092100
      1.4674600              0.4037980              0.23858600
SP   3   1.00
      2.1562300             -0.2529230             -0.01776530
      0.7489970              0.0328517              0.27405800
      0.2831450              1.0812500              0.78542100
SP   1   1.00
      0.0998317              1.0000000              1.00000000
D    1   1.00
      1.1000000              1.0000000
D    1   1.00
      0.2750000              1.0000000
F    1   1.00
      0.4500000              1.0000000
****
S     0
S    6   1.00
  21917.1000000              0.0018690
   3301.4900000              0.0142300
    754.1460000              0.0696960
    212.7110000              0.2384870
     67.9896000              0.4833070
     23.0515000              0.3380740
SP   6   1.00
    423.7350000             -0.0023767              0.0040610
    100.7100000             -0.0316930              0.0306810
     32.1599000             -0.1133170              0.1304520
     11.8079000              0.0560900              0.3272050
      4.6311000              0.5922550              0.4528510
      1.8702500              0.4550060              0.2560420
SP   3   1.00
      2.6158400             -0.2503740             -0.0145110
      0.9221670              0.0669570              0.3102630
      0.3412870              1.0545100              0.7544830
SP   1   1.00
      0.1171670              1.0000000              1.0000000
D    1   1.00
      1.3000000              1.0000000
D    1   1.00
      0.3250000              1.0000000
F    1   1.00
      0.5500000              1.0000000
****
Cl     0
S    6   1.00
  25180.1000000              0.0018330
   3780.3500000              0.0140340
    860.4740000              0.0690970
    242.1450000              0.2374520
     77.3349000              0.4830340
     26.2470000              0.3398560
SP   6   1.00
    491.7650000             -0.0022974              0.0039894
    116.9840000             -0.0307140              0.0303180
     37.4153000             -0.1125280              0.1298800
     13.7834000              0.0450160              0.3279510
      5.4521500              0.5893530              0.4535270
      2.2258800              0.4652060              0.2521540
SP   3   1.00
      3.1864900             -0.2518300             -0.0142990
      1.1442700              0.0615890              0.3235720
      0.4203770              1.0601800              0.7435070
SP   1   1.00
      0.1426570              1.0000000              1.0000000
D    1   1.00
      1.5000000              1.0000000
D    1   1.00
      0.3750000              1.0000000
F    1   1.00
      0.7000000              1.0000000
****
}

set {
reference uhf
freeze_core true
e_convergence 10
d_convergence 10
dft_spherical_points 1202
dft_radial_points 99
}

e = energy('b3lyp')

print_out('Grab this energy {0}'.format(e))
--------------------------------------------------------------------------

    Molecular point group: c1

    Geometry (in Bohr), charge = 0, multiplicity = 2:

       Center              X                  Y                   Z               Mass
    ------------   -----------------  -----------------  -----------------  -----------------
         C           -0.323340689649     0.001959421312    -0.000139591879    12.000000000000
         C            0.061623832851    -1.401073862788    -2.427763261179    12.000000000000
         C            0.060224243851     2.800039366412     0.000313187821    12.000000000000
         C            0.061452230651    -1.400365401288     2.427166886221    12.000000000000
         H            2.084599386251    -1.647095233988    -2.845646626979     1.007825032230
         H           -0.759089871149    -0.391092863288    -4.027485804079     1.007825032230
         H           -0.766692533649    -3.286336351388    -2.350711018279     1.007825032230
         H            2.084227418751     3.288455135512     0.000383322521     1.007825032230
         H           -0.766972770349     3.677399562612     1.677421621621     1.007825032230
         H           -0.767150860249     3.676410110112    -1.676059392179     1.007825032230
         H            2.091838518851    -1.646649696288     2.845617224721     1.007825032230
         H           -0.770569427449    -3.292308784688     2.348434821721     1.007825032230
         H           -0.762753020449    -0.385444030788     4.033079808221     1.007825032230

  Charge       = 0
  Multiplicity = 2
  Basis Set: ANONYMOUS536853EB
    Blend: 6-31G_2DFP_
  Basis Set: (ANONYMOUS536853EB AUX)
    Blend: DEF2-UNIVERSAL-JKFIT

    Orbital Energies [Eh]
    ---------------------

    Alpha Occupied:

       1A    -10.180342     2A    -10.167703     3A    -10.166800
       4A    -10.166541     5A     -0.797768     6A     -0.686540
       7A     -0.685835     8A     -0.530775     9A     -0.441126
      10A     -0.434784    11A     -0.434560    12A     -0.382826
      13A     -0.382372    14A     -0.363611    15A     -0.338149
      16A     -0.337846    17A     -0.168961

    Alpha Virtual:

      18A      0.076071    19A      0.134086    20A      0.134210
      21A      0.142529    22A      0.142737    23A      0.154874
      24A      0.178457    25A      0.179102    26A      0.203547
      27A      0.214805    28A      0.275646    29A      0.276325
      30A      0.399147    31A      0.399297    32A      0.403356
      33A      0.423996    34A      0.424199    35A      0.456593
      36A      0.495302    37A      0.495477    38A      0.512162
      39A      0.513978    40A      0.578588    41A      0.579035
      42A      0.591237    43A      0.592015    44A      0.602593
      45A      0.624765    46A      0.631687    47A      0.635912
      48A      0.636676    49A      0.663143    50A      0.663687
      51A      0.683544    52A      0.684177    53A      0.734995
      54A      0.825005    55A      0.825800    56A      0.853917
      57A      0.914893    58A      0.915162    59A      0.944127
      60A      0.944611    61A      0.961045    62A      0.961551
      63A      1.003456    64A      1.127770    65A      1.128425
      66A      1.142210    67A      1.163126    68A      1.163438
      69A      1.223326    70A      1.274228    71A      1.274747
      72A      1.279358    73A      1.323977    74A      1.324728
      75A      1.355984    76A      1.365649    77A      1.366450
      78A      1.392445    79A      1.403538    80A      1.404554
      81A      1.416695    82A      1.417522    83A      1.427922
      84A      1.491491    85A      1.499088    86A      1.542686
      87A      1.542979    88A      1.574090    89A      1.574809
      90A      1.669804    91A      1.739124    92A      1.739684
      93A      1.768324    94A      1.829786    95A      1.833072
      96A      1.971701    97A      2.018004    98A      2.018956
      99A      2.019403   100A      2.051708   101A      2.053643
     102A      2.738036   103A      2.738930   104A      2.790929
     105A      2.811424   106A      2.889441   107A      2.890356
     108A      2.895044   109A      2.929293   110A      2.929701
     111A      2.959003   112A      2.963796   113A      2.964973
     114A      3.034020   115A      3.070913   116A      3.071648
     117A      3.084379   118A      3.168647   119A      3.168890
     120A      3.180622   121A      3.285233   122A      3.285404
     123A      3.326728   124A      3.327594   125A      3.375611
     126A      3.489294   127A      3.491027   128A      3.514004
     129A      3.525329   130A      3.567552   131A      3.569191
     132A      3.575202   133A      3.665518   134A      3.667135
     135A      3.679673   136A      3.693561   137A      3.694728
     138A      3.775318   139A      3.778272   140A      3.789168
     141A      3.911561   142A      3.912881   143A      4.034434
     144A      4.110040   145A      4.112573   146A      4.146008
     147A      4.150139   148A      4.173316   149A      4.200628
     150A      4.203146   151A      4.204930   152A      4.211201
     153A      4.315106   154A      4.316806   155A      4.358950
     156A      4.423796   157A      4.425019   158A      4.443555
     159A      4.516015   160A      4.517626   161A      4.577489
     162A      4.579068   163A      4.617531   164A      4.709482
     165A      4.774023   166A      4.775211   167A      4.836885
     168A      4.962852   169A      5.002142   170A      5.003818
     171A      5.227814   172A      5.243110   173A      5.250500
     174A      5.352513   175A      5.358702   176A      5.479435

    Beta Occupied:

       1A    -10.168464     2A    -10.167561     3A    -10.167300
       4A    -10.166516     5A     -0.781093     6A     -0.684338
       7A     -0.683641     8A     -0.511746     9A     -0.431168
      10A     -0.430918    11A     -0.421824    12A     -0.376918
      13A     -0.376450    14A     -0.362595    15A     -0.333271
      16A     -0.332970

    Beta Virtual:

      17A     -0.025743    18A      0.077080    19A      0.134951
      20A      0.135127    21A      0.144443    22A      0.144563
      23A      0.163333    24A      0.182138    25A      0.182764
      26A      0.215034    27A      0.218929    28A      0.282004
      29A      0.282662    30A      0.400314    31A      0.400478
      32A      0.419793    33A      0.426800    34A      0.427018
      35A      0.468501    36A      0.497566    37A      0.497734
      38A      0.513897    39A      0.556322    40A      0.584123
      41A      0.584601    42A      0.597451    43A      0.598163
      44A      0.610011    45A      0.628142    46A      0.631885
      47A      0.639187    48A      0.639934    49A      0.666705
      50A      0.667251    51A      0.686214    52A      0.686777
      53A      0.757517    54A      0.830148    55A      0.830993
      56A      0.855272    57A      0.922860    58A      0.923136
      59A      0.945964    60A      0.953539    61A      0.966372
      62A      0.966837    63A      1.008695    64A      1.131771
      65A      1.132485    66A      1.155581    67A      1.168230
      68A      1.168484    69A      1.232299    70A      1.279820
      71A      1.280347    72A      1.285115    73A      1.328925
      74A      1.329760    75A      1.365392    76A      1.370937
      77A      1.371656    78A      1.393504    79A      1.406971
      80A      1.408051    81A      1.421714    82A      1.422602
      83A      1.428194    84A      1.492540    85A      1.509531
      86A      1.547093    87A      1.547385    88A      1.581995
      89A      1.582648    90A      1.674650    91A      1.744881
      92A      1.745454    93A      1.779101    94A      1.833669
      95A      1.836900    96A      1.972565    97A      2.025337
      98A      2.025517    99A      2.039673   100A      2.058460
     101A      2.060333   102A      2.746354   103A      2.747284
     104A      2.811836   105A      2.816063   106A      2.902229
     107A      2.903026   108A      2.924642   109A      2.931821
     110A      2.932161   111A      2.960068   112A      2.968312
     113A      2.969546   114A      3.041954   115A      3.080805
     116A      3.081538   117A      3.086235   118A      3.184333
     119A      3.184622   120A      3.188386   121A      3.290007
     122A      3.290226   123A      3.330540   124A      3.331390
     125A      3.383430   126A      3.492048   127A      3.493733
     128A      3.512373   129A      3.528376   130A      3.574945
     131A      3.580933   132A      3.582596   133A      3.670262
     134A      3.671919   135A      3.692974   136A      3.725248
     137A      3.726264   138A      3.779920   139A      3.782746
     140A      3.817691   141A      3.921420   142A      3.922658
     143A      4.045316   144A      4.116971   145A      4.119249
     146A      4.153454   147A      4.157147   148A      4.187367
     149A      4.207283   150A      4.209262   151A      4.211983
     152A      4.215698   153A      4.322622   154A      4.324166
     155A      4.362315   156A      4.432003   157A      4.433192
     158A      4.446490   159A      4.523833   160A      4.525389
     161A      4.588111   162A      4.589644   163A      4.624727
     164A      4.719826   165A      4.781011   166A      4.782130
     167A      4.839802   168A      4.967647   169A      5.006177
     170A      5.007861   171A      5.233520   172A      5.244906
     173A      5.252287   174A      5.359000   175A      5.365172
     176A      5.481756

    Final Occupation by Irrep:
              A
    DOCC [    16 ]
    SOCC [     1 ]

  @DF-UKS Final Energy:  -157.81305325688464

   => Energetics <=

    Nuclear Repulsion Energy =            125.3946851690079569
    One-Electron Energy =                -458.7489914074477610
    Two-Electron Energy =                 195.8484020492666389
    DFT Exchange-Correlation Energy =     -20.3071490677114923
    Empirical Dispersion Energy =           0.0000000000000000
    VV10 Nonlocal Energy =                  0.0000000000000000
    Total Energy =                       -157.8130532568846434

  UHF NO Occupations:
  HONO-2 :   15  A 1.9996009
  HONO-1 :   16  A 1.9989804
  HONO-0 :   17  A 1.0000000
  LUNO+0 :   18  A 0.0010196
  LUNO+1 :   19  A 0.0003991
  LUNO+2 :   20  A 0.0001981
  LUNO+3 :   21  A 0.0001970

Computation Completed

Properties will be evaluated at   0.000000,   0.000000,   0.000000 [a0]

Properties computed using the SCF density matrix

  Nuclear Dipole Moment: [e a0]
     X:     0.8272      Y:    -0.0033      Z:     0.0025

  Electronic Dipole Moment: [e a0]
     X:    -0.7493      Y:     0.0033      Z:    -0.0049

  Dipole Moment: [e a0]
     X:     0.0779      Y:    -0.0000      Z:    -0.0024     Total:     0.0780

  Dipole Moment: [D]
     X:     0.1980      Y:    -0.0001      Z:    -0.0062     Total:     0.1981

*** tstop() called on n056 at Fri Nov  5 15:06:31 2021
Module time:
	user time   =     578.48 seconds =       9.64 minutes
	system time =      12.77 seconds =       0.21 minutes
	total time  =        149 seconds =       2.48 minutes
Total time:
	user time   =     578.48 seconds =       9.64 minutes
	system time =      12.77 seconds =       0.21 minutes
	total time  =        149 seconds =       2.48 minutes
Grab this energy -157.81305325688464
    Psi4 stopped on: Friday, 05 November 2021 03:06PM
    Psi4 wall time for execution: 0:02:28.63

*** Psi4 exiting successfully. Buy a developer a beer!
