                               Psi4 1.4a2.dev629

  ==> Input File <==

--------------------------------------------------------------------------
import os
memory 14 GB

molecule {
 C   -0.3233403455    0.0004921083    0.0000000000
 C    0.0610915794   -1.4006327608   -2.4260271433
 C    0.0611173514    2.8026173212    0.0000000000
 C    0.0610915794   -1.4006327608    2.4260271433
 H    2.0890287089   -1.6439943654   -2.8472133424
 H   -0.7665718719   -0.3866321477   -4.0262042140
 H   -0.7665776772   -3.2943402533   -2.3484314115
 H    2.0826174085    3.2885991463   -0.0000000000
 H   -0.7634718847    3.6797330824    1.6724588032
 H   -0.7634718847    3.6797330824   -1.6724588032
 H    2.0890287089   -1.6439943654    2.8472133424
 H   -0.7665776772   -3.2943402533    2.3484314115
 H   -0.7665718719   -0.3866321477    4.0262042140
units bohr
0 2
}

basis {

assign 6-31g_2dfp_

[ 6-31g_2dfp_ ]

spherical

!----------------------------------------------------------------------
! Basis Set Exchange
! Version v0.8.13
! https://www.basissetexchange.org
!----------------------------------------------------------------------
!   Basis set: 6-31G(2df,p)
! Description: 6-31G(2df,p)
!        Role: orbital
!     Version: 0  (Data from the original Basis Set Exchange)
!----------------------------------------------------------------------

****
H     0
S    3   1.00
     18.7311370              0.03349460
      2.8253937              0.23472695
      0.6401217              0.81375733
S    1   1.00
      0.1612778              1.00000000
P    1   1.00
      1.5000000              1.0000000
P    1   1.00
      0.3750000              1.0000000
****
B     0
S    6   1.00
   2068.8823000              0.0018663
    310.6495700              0.0142515
     70.6830330              0.0695516
     19.8610800              0.2325729
      6.2993048              0.4670787
      2.1270270              0.3634314
SP   3   1.00
      4.7279710             -0.1303938              0.0745976
      1.1903377             -0.1307889              0.3078467
      0.3594117              1.1309444              0.7434568
SP   1   1.00
      0.1267512              1.0000000              1.0000000
D    1   1.00
      0.8020000              1.0000000
D    1   1.00
      0.2005000              1.0000000
F    1   1.00
      0.5000000              1.0000000
****
C     0
S    6   1.00
   3047.5249000              0.0018347
    457.3695100              0.0140373
    103.9486900              0.0688426
     29.2101550              0.2321844
      9.2866630              0.4679413
      3.1639270              0.3623120
SP   3   1.00
      7.8682724             -0.1193324              0.0689991
      1.8812885             -0.1608542              0.3164240
      0.5442493              1.1434564              0.7443083
SP   1   1.00
      0.1687144              1.0000000              1.0000000
D    1   1.00
      1.2520000              1.0000000
D    1   1.00
      0.3130000              1.0000000
F    1   1.00
      0.8000000              1.0000000
****
N     0
S    6   1.00
   4173.5110000              0.0018348
    627.4579000              0.0139950
    142.9021000              0.0685870
     40.2343300              0.2322410
     12.8202100              0.4690700
      4.3904370              0.3604550
SP   3   1.00
     11.6263580             -0.1149610              0.0675800
      2.7162800             -0.1691180              0.3239070
      0.7722180              1.1458520              0.7408950
SP   1   1.00
      0.2120313              1.0000000              1.0000000
D    1   1.00
      1.8260000              1.0000000
D    1   1.00
      0.4565000              1.0000000
F    1   1.00
      1.0000000              1.0000000
****
O     0
S    6   1.00
   5484.6717000              0.0018311
    825.2349500              0.0139501
    188.0469600              0.0684451
     52.9645000              0.2327143
     16.8975700              0.4701930
      5.7996353              0.3585209
SP   3   1.00
     15.5396160             -0.1107775              0.0708743
      3.5999336             -0.1480263              0.3397528
      1.0137618              1.1307670              0.7271586
SP   1   1.00
      0.2700058              1.0000000              1.0000000
D    1   1.00
      2.5840000              1.0000000
D    1   1.00
      0.6460000              1.0000000
F    1   1.00
      1.4000000              1.0000000
****
F     0
S    6   1.00
   7001.7130900              0.0018196169
   1051.3660900              0.0139160796
    239.2856900              0.0684053245
     67.3974453              0.233185760
     21.5199573              0.471267439
      7.40310130             0.356618546
SP   3   1.00
     20.8479528             -0.108506975            0.0716287243
      4.80830834            -0.146451658            0.3459121030
      1.34406986             1.128688580            0.7224699570
SP   1   1.00
      0.358151393            1.0000000              1.0000000
D    1   1.00
      3.5000000              1.0000000
D    1   1.00
      0.8750000              1.0000000
F    1   1.00
      1.8500000              1.0000000
****
Al     0
S    6   1.00
  13983.1000000              0.00194267
   2098.7500000              0.0148599
    477.7050000              0.0728494
    134.3600000              0.2468300
     42.8709000              0.4872580
     14.5189000              0.3234960
SP   6   1.00
    239.6680000             -0.00292619             0.00460285
     57.4419000             -0.0374080              0.0331990
     18.2859000             -0.1144870              0.1362820
      6.5991400              0.1156350              0.3304760
      2.4904900              0.6125950              0.4491460
      0.9445400              0.3937990              0.2657040
SP   3   1.00
      1.2779000             -0.2276060             -0.0175130
      0.3975900              0.00144583             0.2445330
      0.1600950              1.0927900              0.8049340
SP   1   1.00
      0.0556577              1.0000000              1.0000000
D    1   1.00
      0.6500000              1.0000000
D    1   1.00
      0.1625000              1.0000000
F    1   1.00
      0.2500000              1.0000000
****
Si     0
S    6   1.00
  16115.9000000              0.00195948
   2425.5800000              0.01492880
    553.8670000              0.07284780
    156.3400000              0.24613000
     50.0683000              0.48591400
     17.0178000              0.32500200
SP   6   1.00
    292.7180000             -0.00278094             0.00443826
     69.8731000             -0.03571460             0.03266790
     22.3363000             -0.11498500             0.13472100
      8.1503900              0.09356340             0.32867800
      3.1345800              0.60301700             0.44964000
      1.2254300              0.41895900             0.26137200
SP   3   1.00
      1.7273800             -0.24463000            -0.01779510
      0.5729220              0.00431572             0.25353900
      0.2221920              1.09818000             0.80066900
SP   1   1.00
      0.0778369              1.00000000             1.00000000
D    1   1.00
      0.9000000              1.0000000
D    1   1.00
      0.2250000              1.0000000
F    1   1.00
      0.3200000              1.0000000
****
P     0
S    6   1.00
  19413.3000000              0.0018516
   2909.4200000              0.0142062
    661.3640000              0.0699995
    185.7590000              0.2400790
     59.1943000              0.4847620
     20.0310000              0.3352000
SP   6   1.00
    339.4780000             -0.00278217             0.00456462
     81.0101000             -0.0360499              0.03369360
     25.8780000             -0.1166310              0.13975500
      9.4522100              0.0968328              0.33936200
      3.6656600              0.6144180              0.45092100
      1.4674600              0.4037980              0.23858600
SP   3   1.00
      2.1562300             -0.2529230             -0.01776530
      0.7489970              0.0328517              0.27405800
      0.2831450              1.0812500              0.78542100
SP   1   1.00
      0.0998317              1.0000000              1.00000000
D    1   1.00
      1.1000000              1.0000000
D    1   1.00
      0.2750000              1.0000000
F    1   1.00
      0.4500000              1.0000000
****
S     0
S    6   1.00
  21917.1000000              0.0018690
   3301.4900000              0.0142300
    754.1460000              0.0696960
    212.7110000              0.2384870
     67.9896000              0.4833070
     23.0515000              0.3380740
SP   6   1.00
    423.7350000             -0.0023767              0.0040610
    100.7100000             -0.0316930              0.0306810
     32.1599000             -0.1133170              0.1304520
     11.8079000              0.0560900              0.3272050
      4.6311000              0.5922550              0.4528510
      1.8702500              0.4550060              0.2560420
SP   3   1.00
      2.6158400             -0.2503740             -0.0145110
      0.9221670              0.0669570              0.3102630
      0.3412870              1.0545100              0.7544830
SP   1   1.00
      0.1171670              1.0000000              1.0000000
D    1   1.00
      1.3000000              1.0000000
D    1   1.00
      0.3250000              1.0000000
F    1   1.00
      0.5500000              1.0000000
****
Cl     0
S    6   1.00
  25180.1000000              0.0018330
   3780.3500000              0.0140340
    860.4740000              0.0690970
    242.1450000              0.2374520
     77.3349000              0.4830340
     26.2470000              0.3398560
SP   6   1.00
    491.7650000             -0.0022974              0.0039894
    116.9840000             -0.0307140              0.0303180
     37.4153000             -0.1125280              0.1298800
     13.7834000              0.0450160              0.3279510
      5.4521500              0.5893530              0.4535270
      2.2258800              0.4652060              0.2521540
SP   3   1.00
      3.1864900             -0.2518300             -0.0142990
      1.1442700              0.0615890              0.3235720
      0.4203770              1.0601800              0.7435070
SP   1   1.00
      0.1426570              1.0000000              1.0000000
D    1   1.00
      1.5000000              1.0000000
D    1   1.00
      0.3750000              1.0000000
F    1   1.00
      0.7000000              1.0000000
****
}

set {
reference uhf
freeze_core true
e_convergence 10
d_convergence 10
dft_spherical_points 1202
dft_radial_points 99
}

e = energy('b3lyp')

print_out('Grab this energy {0}'.format(e))
--------------------------------------------------------------------------

    Molecular point group: cs

    Geometry (in Bohr), charge = 0, multiplicity = 2:

       Center              X                  Y                   Z               Mass
    ------------   -----------------  -----------------  -----------------  -----------------
         C           -0.323340374305     0.000137387723     0.000000000000    12.000000000000
         C            0.061091550595    -1.400987481377    -2.426027143300    12.000000000000
         C            0.061117322595     2.802262600623     0.000000000000    12.000000000000
         C            0.061091550595    -1.400987481377     2.426027143300    12.000000000000
         H            2.089028680095    -1.644349085977    -2.847213342400     1.007825032230
         H           -0.766571900705    -0.386986868277    -4.026204214000     1.007825032230
         H           -0.766577706005    -3.294694973877    -2.348431411500     1.007825032230
         H            2.082617379695     3.288244425723     0.000000000000     1.007825032230
         H           -0.763471913505     3.679378361823     1.672458803200     1.007825032230
         H           -0.763471913505     3.679378361823    -1.672458803200     1.007825032230
         H            2.089028680095    -1.644349085977     2.847213342400     1.007825032230
         H           -0.766577706005    -3.294694973877     2.348431411500     1.007825032230
         H           -0.766571900705    -0.386986868277     4.026204214000     1.007825032230

  Charge       = 0
  Multiplicity = 2
  Basis Set: ANONYMOUS5C8AED8F
    Blend: 6-31G_2DFP_
  Basis Set: (ANONYMOUS5C8AED8F AUX)
    Blend: DEF2-UNIVERSAL-JKFIT

    Orbital Energies [Eh]
    ---------------------

    Alpha Occupied:

       1Ap   -10.180342     1App  -10.167365     2Ap   -10.167335
       3Ap   -10.166344     4Ap    -0.797766     5Ap    -0.686510
       2App   -0.685865     6Ap    -0.530775     7Ap    -0.441125
       3App   -0.434759     8Ap    -0.434583     9Ap    -0.382822
       4App   -0.382376     5App   -0.363612     6App   -0.338029
      10Ap    -0.337968    11Ap    -0.168961

    Alpha Virtual:

      12Ap     0.076071    13Ap     0.134147     7App    0.134150
      14Ap     0.142532     8App    0.142737    15Ap     0.154875
       9App    0.178454    16Ap     0.179106    17Ap     0.203547
      10App    0.214805    18Ap     0.275941    11App    0.276029
      12App    0.399152    19Ap     0.399305    20Ap     0.403344
      21Ap     0.424001    13App    0.424192    22Ap     0.456592
      14App    0.495320    23Ap     0.495460    15App    0.512162
      24Ap     0.513978    16App    0.578699    25Ap     0.578931
      17App    0.591332    26Ap     0.591915    27Ap     0.602591
      28Ap     0.624766    18App    0.631701    29Ap     0.635864
      19App    0.636706    20App    0.663229    30Ap     0.663599
      21App    0.683542    31Ap     0.684178    32Ap     0.734994
      33Ap     0.825010    22App    0.825796    23App    0.853917
      34Ap     0.915018    24App    0.915035    25App    0.944130
      35Ap     0.944612    36Ap     0.961054    26App    0.961538
      37Ap     1.003455    27App    1.127790    38Ap     1.128430
      39Ap     1.142221    40Ap     1.163175    28App    1.163361
      41Ap     1.223324    29App    1.274311    42Ap     1.274669
      43Ap     1.279351    44Ap     1.324004    30App    1.324704
      45Ap     1.355981    31App    1.365786    46Ap     1.366324
      32App    1.392457    33App    1.403667    47Ap     1.404427
      34App    1.416783    48Ap     1.417424    35App    1.427913
      36App    1.491492    49Ap     1.499084    50Ap     1.542776
      37App    1.542886    51Ap     1.574167    38App    1.574731
      52Ap     1.669798    53Ap     1.739308    39App    1.739499
      54Ap     1.768325    40App    1.829807    55Ap     1.833054
      41App    1.971700    56Ap     2.018065    57Ap     2.019151
      42App    2.019155    58Ap     2.052606    43App    2.052722
      59Ap     2.738040    44App    2.738931    60Ap     2.790923
      45App    2.811429    46App    2.889679    61Ap     2.890182
      62Ap     2.894981    63Ap     2.929388    47App    2.929599
      48App    2.959005    49App    2.963867    64Ap     2.964898
      65Ap     3.034021    50App    3.071037    66Ap     3.071524
      51App    3.084381    67Ap     3.168644    52App    3.168919
      68Ap     3.180591    69Ap     3.285247    53App    3.285389
      70Ap     3.327121    54App    3.327203    71Ap     3.375611
      72Ap     3.489338    55App    3.490989    56App    3.514017
      73Ap     3.525344    57App    3.568294    74Ap     3.568442
      58App    3.575191    59App    3.665666    75Ap     3.667029
      76Ap     3.679652    60App    3.693640    77Ap     3.694645
      61App    3.776241    78Ap     3.777386    79Ap     3.789119
      62App    3.911777    80Ap     3.912652    81Ap     4.034440
      63App    4.110594    82Ap     4.112030    83Ap     4.146145
      64App    4.149998    84Ap     4.173317    85Ap     4.201100
      65App    4.202333    86Ap     4.205284    66App    4.211173
      67App    4.315253    87Ap     4.316663    68App    4.358946
      88Ap     4.424252    69App    4.424566    70App    4.443551
      71App    4.516603    89Ap     4.517042    90Ap     4.577834
      72App    4.578752    91Ap     4.617531    92Ap     4.709483
      73App    4.774495    93Ap     4.774688    74App    4.836871
      94Ap     4.962866    75App    5.002380    95Ap     5.003563
      96Ap     5.227833    97Ap     5.243164    76App    5.250433
      77App    5.352498    98Ap     5.358696    78App    5.479435

    Beta Occupied:

       1App  -10.168120     1Ap   -10.168101     2Ap   -10.167106
       3Ap   -10.166515     4Ap    -0.781092     5Ap    -0.684312
       2App   -0.683668     6Ap    -0.511746     3App   -0.431141
       7Ap    -0.430944     8Ap    -0.421823     9Ap    -0.376915
       4App   -0.376452     5App   -0.362596     6App   -0.333146
      10Ap    -0.333098

    Beta Virtual:

      11Ap    -0.025743    12Ap     0.077080    13Ap     0.134981
       7App    0.135097    14Ap     0.144450     8App    0.144558
      15Ap     0.163334     9App    0.182135    16Ap     0.182768
      10App    0.215035    17Ap     0.218929    18Ap     0.282287
      11App    0.282379    12App    0.400317    19Ap     0.400479
      20Ap     0.419791    21Ap     0.426810    13App    0.427006
      22Ap     0.468500    14App    0.497580    23Ap     0.497720
      15App    0.513897    24Ap     0.556324    16App    0.584241
      25Ap     0.584488    17App    0.597534    26Ap     0.598076
      27Ap     0.610010    28Ap     0.628142    18App    0.631890
      29Ap     0.639173    19App    0.639937    20App    0.666779
      30Ap     0.667176    21App    0.686212    31Ap     0.686778
      32Ap     0.757518    33Ap     0.830152    22App    0.830990
      23App    0.855271    34Ap     0.922992    24App    0.923003
      25App    0.945967    35Ap     0.953540    36Ap     0.966390
      26App    0.966815    37Ap     1.008695    27App    1.131802
      38Ap     1.132476    39Ap     1.155597    40Ap     1.168236
      28App    1.168447    41Ap     1.232297    29App    1.279907
      42Ap     1.280269    43Ap     1.285104    44Ap     1.328946
      30App    1.329740    45Ap     1.365390    31App    1.371041
      46Ap     1.371561    32App    1.393515    33App    1.407114
      47Ap     1.407911    34App    1.421788    48Ap     1.422520
      35App    1.428182    36App    1.492541    49Ap     1.509526
      50Ap     1.547137    37App    1.547339    51Ap     1.582049
      38App    1.582594    52Ap     1.674644    53Ap     1.745092
      39App    1.745243    54Ap     1.779102    40App    1.833691
      55Ap     1.836880    41App    1.972563    56Ap     2.025382
      42App    2.025490    57Ap     2.039668    58Ap     2.059267
      43App    2.059496    59Ap     2.746362    44App    2.747281
      45App    2.811841    60Ap     2.816059    46App    2.902447
      61Ap     2.902819    62Ap     2.924657    63Ap     2.931920
      47App    2.932030    48App    2.960069    49App    2.968370
      64Ap     2.969483    65Ap     3.041955    50App    3.080857
      66Ap     3.081490    51App    3.086232    67Ap     3.184340
      52App    3.184709    68Ap     3.188287    69Ap     3.290019
      53App    3.290214    70Ap     3.330946    54App    3.330986
      71Ap     3.383430    72Ap     3.492101    55App    3.493687
      56App    3.512381    73Ap     3.528388    57App    3.574951
      74Ap     3.581750    58App    3.581764    59App    3.670354
      75Ap     3.671845    76Ap     3.692970    60App    3.725281
      77Ap     3.726234    61App    3.780797    78Ap     3.781883
      79Ap     3.817666    62App    3.921607    80Ap     3.922456
      81Ap     4.045322    63App    4.117605    82Ap     4.118628
      83Ap     4.153578    64App    4.157015    84Ap     4.187369
      85Ap     4.208112    65App    4.208212    86Ap     4.212234
      66App    4.215653    67App    4.322816    87Ap     4.323976
      68App    4.362311    88Ap     4.432525    69App    4.432676
      70App    4.446483    71App    4.524454    89Ap     4.524774
      90Ap     4.588482    72App    4.589306    91Ap     4.624722
      92Ap     4.719827    73App    4.781415    93Ap     4.781674
      74App    4.839787    94Ap     4.967662    75App    5.006435
      95Ap     5.007585    96Ap     5.233538    97Ap     5.244964
      76App    5.252218    77App    5.358992    98Ap     5.365158
      78App    5.481756

    Final Occupation by Irrep:
             Ap   App
    DOCC [    10,    6 ]
    SOCC [     1,    0 ]

  @DF-UKS Final Energy:  -157.81305840440095

   => Energetics <=

    Nuclear Repulsion Energy =            125.3946378582382692
    One-Electron Energy =                -458.7489102318628511
    Two-Electron Energy =                 195.8483608908772169
    DFT Exchange-Correlation Energy =     -20.3071469216536009
    Empirical Dispersion Energy =           0.0000000000000000
    VV10 Nonlocal Energy =                  0.0000000000000000
    Total Energy =                       -157.8130584044009481

  UHF NO Occupations:
  HONO-2 :    9 Ap 1.9996009
  HONO-1 :   10 Ap 1.9989805
  HONO-0 :   11 Ap 1.0000000
  LUNO+0 :   12 Ap 0.0010195
  LUNO+1 :   13 Ap 0.0003991
  LUNO+2 :    7App 0.0001976
  LUNO+3 :   14 Ap 0.0001975

Computation Completed

Properties will be evaluated at   0.000000,   0.000000,   0.000000 [a0]

Properties computed using the SCF density matrix

  Nuclear Dipole Moment: [e a0]
     X:     0.8272      Y:    -0.0025      Z:     0.0000

  Electronic Dipole Moment: [e a0]
     X:    -0.7493      Y:     0.0050      Z:     0.0000

  Dipole Moment: [e a0]
     X:     0.0779      Y:     0.0024      Z:     0.0000     Total:     0.0780

  Dipole Moment: [D]
     X:     0.1980      Y:     0.0062      Z:     0.0000     Total:     0.1981

*** tstop() called on n033 at Fri Nov  5 15:09:31 2021
Module time:
	user time   =     639.28 seconds =      10.65 minutes
	system time =      12.33 seconds =       0.21 minutes
	total time  =        163 seconds =       2.72 minutes
Total time:
	user time   =     639.28 seconds =      10.65 minutes
	system time =      12.33 seconds =       0.21 minutes
	total time  =        163 seconds =       2.72 minutes
Grab this energy -157.81305840440095
    Psi4 stopped on: Friday, 05 November 2021 03:09PM
    Psi4 wall time for execution: 0:02:43.83

*** Psi4 exiting successfully. Buy a developer a beer!
