                               Psi4 1.4a2.dev629

  ==> Input File <==

--------------------------------------------------------------------------
import os
memory 14 GB

molecule {
 C   -0.3233167405    0.0004305061   -0.0000000000
 C    0.0610797889   -1.4001919656   -2.4275988907
 C    0.0614234702    2.8023116201   -0.0000000000
 C    0.0610797889   -1.4001919656    2.4275988907
 H    2.0842413855   -1.6416551904   -2.8492606698
 H   -0.7612815535   -0.3923686888   -4.0220303137
 H   -0.7669920073   -3.2913090071   -2.3501448355
 H    2.0827349139    3.2884712835   -0.0000000000
 H   -0.7637723738    3.6799059903    1.6746281593
 H   -0.7637723738    3.6799059903   -1.6746281593
 H    2.0842413855   -1.6416551904    2.8492606698
 H   -0.7669920073   -3.2913090071    2.3501448355
 H   -0.7612815535   -0.3923686888    4.0220303137
units bohr
0 2
}

basis {

assign 6-31g_2dfp_

[ 6-31g_2dfp_ ]

spherical

!----------------------------------------------------------------------
! Basis Set Exchange
! Version v0.8.13
! https://www.basissetexchange.org
!----------------------------------------------------------------------
!   Basis set: 6-31G(2df,p)
! Description: 6-31G(2df,p)
!        Role: orbital
!     Version: 0  (Data from the original Basis Set Exchange)
!----------------------------------------------------------------------

****
H     0
S    3   1.00
     18.7311370              0.03349460
      2.8253937              0.23472695
      0.6401217              0.81375733
S    1   1.00
      0.1612778              1.00000000
P    1   1.00
      1.5000000              1.0000000
P    1   1.00
      0.3750000              1.0000000
****
B     0
S    6   1.00
   2068.8823000              0.0018663
    310.6495700              0.0142515
     70.6830330              0.0695516
     19.8610800              0.2325729
      6.2993048              0.4670787
      2.1270270              0.3634314
SP   3   1.00
      4.7279710             -0.1303938              0.0745976
      1.1903377             -0.1307889              0.3078467
      0.3594117              1.1309444              0.7434568
SP   1   1.00
      0.1267512              1.0000000              1.0000000
D    1   1.00
      0.8020000              1.0000000
D    1   1.00
      0.2005000              1.0000000
F    1   1.00
      0.5000000              1.0000000
****
C     0
S    6   1.00
   3047.5249000              0.0018347
    457.3695100              0.0140373
    103.9486900              0.0688426
     29.2101550              0.2321844
      9.2866630              0.4679413
      3.1639270              0.3623120
SP   3   1.00
      7.8682724             -0.1193324              0.0689991
      1.8812885             -0.1608542              0.3164240
      0.5442493              1.1434564              0.7443083
SP   1   1.00
      0.1687144              1.0000000              1.0000000
D    1   1.00
      1.2520000              1.0000000
D    1   1.00
      0.3130000              1.0000000
F    1   1.00
      0.8000000              1.0000000
****
N     0
S    6   1.00
   4173.5110000              0.0018348
    627.4579000              0.0139950
    142.9021000              0.0685870
     40.2343300              0.2322410
     12.8202100              0.4690700
      4.3904370              0.3604550
SP   3   1.00
     11.6263580             -0.1149610              0.0675800
      2.7162800             -0.1691180              0.3239070
      0.7722180              1.1458520              0.7408950
SP   1   1.00
      0.2120313              1.0000000              1.0000000
D    1   1.00
      1.8260000              1.0000000
D    1   1.00
      0.4565000              1.0000000
F    1   1.00
      1.0000000              1.0000000
****
O     0
S    6   1.00
   5484.6717000              0.0018311
    825.2349500              0.0139501
    188.0469600              0.0684451
     52.9645000              0.2327143
     16.8975700              0.4701930
      5.7996353              0.3585209
SP   3   1.00
     15.5396160             -0.1107775              0.0708743
      3.5999336             -0.1480263              0.3397528
      1.0137618              1.1307670              0.7271586
SP   1   1.00
      0.2700058              1.0000000              1.0000000
D    1   1.00
      2.5840000              1.0000000
D    1   1.00
      0.6460000              1.0000000
F    1   1.00
      1.4000000              1.0000000
****
F     0
S    6   1.00
   7001.7130900              0.0018196169
   1051.3660900              0.0139160796
    239.2856900              0.0684053245
     67.3974453              0.233185760
     21.5199573              0.471267439
      7.40310130             0.356618546
SP   3   1.00
     20.8479528             -0.108506975            0.0716287243
      4.80830834            -0.146451658            0.3459121030
      1.34406986             1.128688580            0.7224699570
SP   1   1.00
      0.358151393            1.0000000              1.0000000
D    1   1.00
      3.5000000              1.0000000
D    1   1.00
      0.8750000              1.0000000
F    1   1.00
      1.8500000              1.0000000
****
Al     0
S    6   1.00
  13983.1000000              0.00194267
   2098.7500000              0.0148599
    477.7050000              0.0728494
    134.3600000              0.2468300
     42.8709000              0.4872580
     14.5189000              0.3234960
SP   6   1.00
    239.6680000             -0.00292619             0.00460285
     57.4419000             -0.0374080              0.0331990
     18.2859000             -0.1144870              0.1362820
      6.5991400              0.1156350              0.3304760
      2.4904900              0.6125950              0.4491460
      0.9445400              0.3937990              0.2657040
SP   3   1.00
      1.2779000             -0.2276060             -0.0175130
      0.3975900              0.00144583             0.2445330
      0.1600950              1.0927900              0.8049340
SP   1   1.00
      0.0556577              1.0000000              1.0000000
D    1   1.00
      0.6500000              1.0000000
D    1   1.00
      0.1625000              1.0000000
F    1   1.00
      0.2500000              1.0000000
****
Si     0
S    6   1.00
  16115.9000000              0.00195948
   2425.5800000              0.01492880
    553.8670000              0.07284780
    156.3400000              0.24613000
     50.0683000              0.48591400
     17.0178000              0.32500200
SP   6   1.00
    292.7180000             -0.00278094             0.00443826
     69.8731000             -0.03571460             0.03266790
     22.3363000             -0.11498500             0.13472100
      8.1503900              0.09356340             0.32867800
      3.1345800              0.60301700             0.44964000
      1.2254300              0.41895900             0.26137200
SP   3   1.00
      1.7273800             -0.24463000            -0.01779510
      0.5729220              0.00431572             0.25353900
      0.2221920              1.09818000             0.80066900
SP   1   1.00
      0.0778369              1.00000000             1.00000000
D    1   1.00
      0.9000000              1.0000000
D    1   1.00
      0.2250000              1.0000000
F    1   1.00
      0.3200000              1.0000000
****
P     0
S    6   1.00
  19413.3000000              0.0018516
   2909.4200000              0.0142062
    661.3640000              0.0699995
    185.7590000              0.2400790
     59.1943000              0.4847620
     20.0310000              0.3352000
SP   6   1.00
    339.4780000             -0.00278217             0.00456462
     81.0101000             -0.0360499              0.03369360
     25.8780000             -0.1166310              0.13975500
      9.4522100              0.0968328              0.33936200
      3.6656600              0.6144180              0.45092100
      1.4674600              0.4037980              0.23858600
SP   3   1.00
      2.1562300             -0.2529230             -0.01776530
      0.7489970              0.0328517              0.27405800
      0.2831450              1.0812500              0.78542100
SP   1   1.00
      0.0998317              1.0000000              1.00000000
D    1   1.00
      1.1000000              1.0000000
D    1   1.00
      0.2750000              1.0000000
F    1   1.00
      0.4500000              1.0000000
****
S     0
S    6   1.00
  21917.1000000              0.0018690
   3301.4900000              0.0142300
    754.1460000              0.0696960
    212.7110000              0.2384870
     67.9896000              0.4833070
     23.0515000              0.3380740
SP   6   1.00
    423.7350000             -0.0023767              0.0040610
    100.7100000             -0.0316930              0.0306810
     32.1599000             -0.1133170              0.1304520
     11.8079000              0.0560900              0.3272050
      4.6311000              0.5922550              0.4528510
      1.8702500              0.4550060              0.2560420
SP   3   1.00
      2.6158400             -0.2503740             -0.0145110
      0.9221670              0.0669570              0.3102630
      0.3412870              1.0545100              0.7544830
SP   1   1.00
      0.1171670              1.0000000              1.0000000
D    1   1.00
      1.3000000              1.0000000
D    1   1.00
      0.3250000              1.0000000
F    1   1.00
      0.5500000              1.0000000
****
Cl     0
S    6   1.00
  25180.1000000              0.0018330
   3780.3500000              0.0140340
    860.4740000              0.0690970
    242.1450000              0.2374520
     77.3349000              0.4830340
     26.2470000              0.3398560
SP   6   1.00
    491.7650000             -0.0022974              0.0039894
    116.9840000             -0.0307140              0.0303180
     37.4153000             -0.1125280              0.1298800
     13.7834000              0.0450160              0.3279510
      5.4521500              0.5893530              0.4535270
      2.2258800              0.4652060              0.2521540
SP   3   1.00
      3.1864900             -0.2518300             -0.0142990
      1.1442700              0.0615890              0.3235720
      0.4203770              1.0601800              0.7435070
SP   1   1.00
      0.1426570              1.0000000              1.0000000
D    1   1.00
      1.5000000              1.0000000
D    1   1.00
      0.3750000              1.0000000
F    1   1.00
      0.7000000              1.0000000
****
}

set {
reference uhf
freeze_core true
e_convergence 10
d_convergence 10
dft_spherical_points 1202
dft_radial_points 99
}

e = energy('b3lyp')

print_out('Grab this energy {0}'.format(e))
--------------------------------------------------------------------------

    Molecular point group: cs

    Geometry (in Bohr), charge = 0, multiplicity = 2:

       Center              X                  Y                   Z               Mass
    ------------   -----------------  -----------------  -----------------  -----------------
         C           -0.323375734610    -0.000023269882     0.000000000000    12.000000000000
         C            0.061020794790    -1.400645741582    -2.427598890700    12.000000000000
         C            0.061364476090     2.801857844118     0.000000000000    12.000000000000
         C            0.061020794790    -1.400645741582     2.427598890700    12.000000000000
         H            2.084182391390    -1.642108966382    -2.849260669800     1.007825032230
         H           -0.761340547610    -0.392822464782    -4.022030313700     1.007825032230
         H           -0.767051001410    -3.291762783082    -2.350144835500     1.007825032230
         H            2.082675919790     3.288017507518     0.000000000000     1.007825032230
         H           -0.763831367910     3.679452214318     1.674628159300     1.007825032230
         H           -0.763831367910     3.679452214318    -1.674628159300     1.007825032230
         H            2.084182391390    -1.642108966382     2.849260669800     1.007825032230
         H           -0.767051001410    -3.291762783082     2.350144835500     1.007825032230
         H           -0.761340547610    -0.392822464782     4.022030313700     1.007825032230

  Charge       = 0
  Multiplicity = 2
  Basis Set: ANONYMOUS1A558B3B
    Blend: 6-31G_2DFP_
  Basis Set: (ANONYMOUS1A558B3B AUX)
    Blend: DEF2-UNIVERSAL-JKFIT

    Orbital Energies [Eh]
    ---------------------

    Alpha Occupied:

       1Ap   -10.180274     2Ap   -10.166498     1App  -10.166490
       3Ap   -10.166448     4Ap    -0.797727     2App   -0.686609
       5Ap    -0.686488     6Ap    -0.531089     7Ap    -0.441226
       8Ap    -0.434994     3App   -0.434624     9Ap    -0.382881
       4App   -0.382835     5App   -0.363928     6App   -0.338165
      10Ap    -0.337842    11Ap    -0.168900

    Alpha Virtual:

      12Ap     0.076401    13Ap     0.134408     7App    0.134630
       8App    0.142837    14Ap     0.143239    15Ap     0.155181
       9App    0.179190    16Ap     0.179380    17Ap     0.203437
      10App    0.215258    11App    0.275899    18Ap     0.276119
      19Ap     0.398922    12App    0.399422    20Ap     0.403552
      21Ap     0.424208    13App    0.424534    22Ap     0.456725
      23Ap     0.495564    14App    0.495665    15App    0.512432
      24Ap     0.514112    16App    0.579100    25Ap     0.579206
      17App    0.592091    26Ap     0.592376    27Ap     0.603224
      28Ap     0.625696    18App    0.632471    19App    0.636525
      29Ap     0.637150    20App    0.663537    30Ap     0.663961
      31Ap     0.684206    21App    0.684623    32Ap     0.735304
      22App    0.825971    33Ap     0.826479    23App    0.854430
      34Ap     0.915526    24App    0.915952    25App    0.944752
      35Ap     0.945398    36Ap     0.961877    26App    0.962022
      37Ap     1.003555    38Ap     1.128242    27App    1.128824
      39Ap     1.143093    40Ap     1.163457    28App    1.163592
      41Ap     1.223765    29App    1.274779    42Ap     1.275270
      43Ap     1.278901    30App    1.324853    44Ap     1.325266
      45Ap     1.356847    31App    1.366243    46Ap     1.366862
      32App    1.393029    33App    1.405034    47Ap     1.405118
      48Ap     1.417338    34App    1.418739    35App    1.428653
      36App    1.492394    49Ap     1.500423    50Ap     1.543296
      37App    1.543353    38App    1.574440    51Ap     1.574850
      52Ap     1.671990    39App    1.740151    53Ap     1.741540
      54Ap     1.769855    55Ap     1.833124    40App    1.834643
      41App    1.973383    56Ap     2.018965    42App    2.019668
      57Ap     2.021233    43App    2.053185    58Ap     2.054274
      44App    2.739282    59Ap     2.739645    60Ap     2.791137
      45App    2.811940    46App    2.890369    61Ap     2.890655
      62Ap     2.895015    47App    2.929863    63Ap     2.929913
      48App    2.959588    49App    2.965018    64Ap     2.965101
      65Ap     3.034923    66Ap     3.071699    50App    3.072714
      51App    3.085371    52App    3.167715    67Ap     3.168538
      68Ap     3.180887    69Ap     3.285115    53App    3.285437
      54App    3.326280    70Ap     3.327040    71Ap     3.374925
      72Ap     3.488898    55App    3.489438    56App    3.513730
      73Ap     3.524716    74Ap     3.568151    57App    3.568999
      58App    3.573456    59App    3.666598    75Ap     3.667600
      76Ap     3.681446    77Ap     3.694742    60App    3.695243
      61App    3.777257    78Ap     3.777414    79Ap     3.789686
      80Ap     3.912590    62App    3.913735    81Ap     4.036777
      63App    4.113281    82Ap     4.114326    83Ap     4.151099
      64App    4.151711    84Ap     4.176326    85Ap     4.203718
      86Ap     4.204091    65App    4.205252    66App    4.214668
      87Ap     4.317545    67App    4.318901    68App    4.361395
      69App    4.426489    88Ap     4.427580    70App    4.445464
      71App    4.518219    89Ap     4.520311    72App    4.579736
      90Ap     4.579761    91Ap     4.618219    92Ap     4.711466
      73App    4.775377    93Ap     4.777385    74App    4.839229
      94Ap     4.963679    75App    5.003709    95Ap     5.004429
      96Ap     5.232874    76App    5.252171    97Ap     5.252452
      77App    5.358830    98Ap     5.361403    78App    5.482659

    Beta Occupied:

       1Ap   -10.167249     1App  -10.167240     2Ap   -10.167228
       3Ap   -10.166431     4Ap    -0.781080     2App   -0.684411
       5Ap    -0.684287     6Ap    -0.512002     7Ap    -0.431377
       3App   -0.431003     8Ap    -0.421956     9Ap    -0.376970
       4App   -0.376933     5App   -0.362915     6App   -0.333275
      10Ap    -0.332960

    Beta Virtual:

      11Ap    -0.025510    12Ap     0.077407    13Ap     0.135280
       7App    0.135554     8App    0.144650    14Ap     0.145111
      15Ap     0.163576     9App    0.182852    16Ap     0.183040
      10App    0.215486    17Ap     0.218839    11App    0.282257
      18Ap     0.282476    19Ap     0.400084    12App    0.400591
      20Ap     0.420013    21Ap     0.427021    13App    0.427347
      22Ap     0.468614    23Ap     0.497818    14App    0.497929
      15App    0.514161    24Ap     0.556515    16App    0.584669
      25Ap     0.584771    17App    0.598268    26Ap     0.598597
      27Ap     0.610635    28Ap     0.629062    18App    0.632623
      19App    0.639808    29Ap     0.640393    20App    0.667120
      30Ap     0.667515    31Ap     0.686827    21App    0.687200
      32Ap     0.757852    22App    0.831149    33Ap     0.831633
      23App    0.855760    34Ap     0.923503    24App    0.923888
      25App    0.946587    35Ap     0.954348    36Ap     0.967159
      26App    0.967338    37Ap     1.008807    38Ap     1.132262
      27App    1.132833    39Ap     1.156462    40Ap     1.168564
      28App    1.168689    41Ap     1.232721    29App    1.280347
      42Ap     1.280870    43Ap     1.284643    30App    1.329870
      44Ap     1.330279    45Ap     1.366287    31App    1.371547
      46Ap     1.372041    32App    1.394082    33App    1.408477
      47Ap     1.408598    48Ap     1.422440    34App    1.423738
      35App    1.428910    36App    1.493449    49Ap     1.510867
      50Ap     1.547548    37App    1.547660    38App    1.582417
      51Ap     1.582827    52Ap     1.676913    39App    1.745905
      53Ap     1.747325    54Ap     1.780574    55Ap     1.836945
      40App    1.838472    41App    1.974239    42App    2.026079
      56Ap     2.027143    57Ap     2.040755    43App    2.059884
      58Ap     2.061013    44App    2.747618    59Ap     2.748005
      45App    2.812355    60Ap     2.816298    46App    2.903059
      61Ap     2.903428    62Ap     2.924764    63Ap     2.932297
      47App    2.932337    48App    2.960670    49App    2.969580
      64Ap     2.969697    65Ap     3.042778    66Ap     3.081670
      50App    3.082531    51App    3.087347    52App    3.183452
      67Ap     3.184203    68Ap     3.188627    69Ap     3.289849
      53App    3.290194    54App    3.330057    70Ap     3.330885
      71Ap     3.382767    72Ap     3.491688    55App    3.492200
      56App    3.512099    73Ap     3.527777    57App    3.573312
      74Ap     3.581431    58App    3.582435    59App    3.671780
      75Ap     3.672486    76Ap     3.694816    77Ap     3.726393
      60App    3.726506    61App    3.781735    78Ap     3.781963
      79Ap     3.818254    80Ap     3.922325    62App    3.923603
      81Ap     4.047790    63App    4.119962    82Ap     4.121432
      83Ap     4.158058    64App    4.159119    84Ap     4.190215
      85Ap     4.209695    65App    4.211143    86Ap     4.211980
      66App    4.219124    87Ap     4.324945    67App    4.326221
      68App    4.364748    69App    4.434691    88Ap     4.435748
      70App    4.448330    71App    4.525991    89Ap     4.528096
      72App    4.590272    90Ap     4.590361    91Ap     4.625404
      92Ap     4.721804    73App    4.782353    93Ap     4.784309
      74App    4.842151    94Ap     4.968446    75App    5.007731
      95Ap     5.008446    96Ap     5.238460    76App    5.253938
      97Ap     5.254351    77App    5.365291    98Ap     5.367842
      78App    5.484970

    Final Occupation by Irrep:
             Ap   App
    DOCC [    10,    6 ]
    SOCC [     1,    0 ]

  @DF-UKS Final Energy:  -157.81301018680767

   => Energetics <=

    Nuclear Repulsion Energy =            125.4320724798055409
    One-Electron Energy =                -458.8198412762692442
    Two-Electron Energy =                 195.8859348095057271
    DFT Exchange-Correlation Energy =     -20.3111761998496760
    Empirical Dispersion Energy =           0.0000000000000000
    VV10 Nonlocal Energy =                  0.0000000000000000
    Total Energy =                       -157.8130101868076736

  UHF NO Occupations:
  HONO-2 :    9 Ap 1.9996034
  HONO-1 :   10 Ap 1.9989798
  HONO-0 :   11 Ap 1.0000000
  LUNO+0 :   12 Ap 0.0010202
  LUNO+1 :   13 Ap 0.0003966
  LUNO+2 :   14 Ap 0.0001979
  LUNO+3 :    7App 0.0001979

Computation Completed

Properties will be evaluated at   0.000000,   0.000000,   0.000000 [a0]

Properties computed using the SCF density matrix

  Nuclear Dipole Moment: [e a0]
     X:     0.8268      Y:    -0.0032      Z:     0.0000

  Electronic Dipole Moment: [e a0]
     X:    -0.7482      Y:     0.0049      Z:     0.0000

  Dipole Moment: [e a0]
     X:     0.0785      Y:     0.0017      Z:     0.0000     Total:     0.0786

  Dipole Moment: [D]
     X:     0.1996      Y:     0.0044      Z:     0.0000     Total:     0.1997

*** tstop() called on n089 at Fri Nov  5 14:23:33 2021
Module time:
	user time   =     475.11 seconds =       7.92 minutes
	system time =       4.44 seconds =       0.07 minutes
	total time  =        121 seconds =       2.02 minutes
Total time:
	user time   =     475.11 seconds =       7.92 minutes
	system time =       4.44 seconds =       0.07 minutes
	total time  =        121 seconds =       2.02 minutes
Grab this energy -157.81301018680767
    Psi4 stopped on: Friday, 05 November 2021 02:23PM
    Psi4 wall time for execution: 0:02:00.63

*** Psi4 exiting successfully. Buy a developer a beer!
