                               Psi4 1.4a2.dev629

  ==> Input File <==

--------------------------------------------------------------------------
import os
memory 14 GB

molecule {
 C   -0.3233413688   -0.0019991989    0.0000019490
 C    0.0610604479   -1.4022228086   -2.4251135863
 C    0.0611738769    2.8026063863   -0.0007970379
 C    0.0610623913   -1.4008411397    2.4259143729
 H    2.0870428180   -1.6473976269   -2.8428944036
 H   -0.7646319991   -0.3842539694   -4.0171613570
 H   -0.7658224976   -3.2966340724   -2.3571836776
 H    2.0865686637    3.2926930751   -0.0015811584
 H   -0.7668207482    3.6755984394    1.6762522804
 H   -0.7654817698    3.6844703562   -1.6782711700
 H    2.0870481720   -1.6446535464    2.8444731977
 H   -0.7671763350   -3.2904697264    2.3505025947
 H   -0.7632895280   -0.3869204820    4.0258579962
units bohr
0 2
}

basis {

assign 6-31g_2dfp_

[ 6-31g_2dfp_ ]

spherical

!----------------------------------------------------------------------
! Basis Set Exchange
! Version v0.8.13
! https://www.basissetexchange.org
!----------------------------------------------------------------------
!   Basis set: 6-31G(2df,p)
! Description: 6-31G(2df,p)
!        Role: orbital
!     Version: 0  (Data from the original Basis Set Exchange)
!----------------------------------------------------------------------

****
H     0
S    3   1.00
     18.7311370              0.03349460
      2.8253937              0.23472695
      0.6401217              0.81375733
S    1   1.00
      0.1612778              1.00000000
P    1   1.00
      1.5000000              1.0000000
P    1   1.00
      0.3750000              1.0000000
****
B     0
S    6   1.00
   2068.8823000              0.0018663
    310.6495700              0.0142515
     70.6830330              0.0695516
     19.8610800              0.2325729
      6.2993048              0.4670787
      2.1270270              0.3634314
SP   3   1.00
      4.7279710             -0.1303938              0.0745976
      1.1903377             -0.1307889              0.3078467
      0.3594117              1.1309444              0.7434568
SP   1   1.00
      0.1267512              1.0000000              1.0000000
D    1   1.00
      0.8020000              1.0000000
D    1   1.00
      0.2005000              1.0000000
F    1   1.00
      0.5000000              1.0000000
****
C     0
S    6   1.00
   3047.5249000              0.0018347
    457.3695100              0.0140373
    103.9486900              0.0688426
     29.2101550              0.2321844
      9.2866630              0.4679413
      3.1639270              0.3623120
SP   3   1.00
      7.8682724             -0.1193324              0.0689991
      1.8812885             -0.1608542              0.3164240
      0.5442493              1.1434564              0.7443083
SP   1   1.00
      0.1687144              1.0000000              1.0000000
D    1   1.00
      1.2520000              1.0000000
D    1   1.00
      0.3130000              1.0000000
F    1   1.00
      0.8000000              1.0000000
****
N     0
S    6   1.00
   4173.5110000              0.0018348
    627.4579000              0.0139950
    142.9021000              0.0685870
     40.2343300              0.2322410
     12.8202100              0.4690700
      4.3904370              0.3604550
SP   3   1.00
     11.6263580             -0.1149610              0.0675800
      2.7162800             -0.1691180              0.3239070
      0.7722180              1.1458520              0.7408950
SP   1   1.00
      0.2120313              1.0000000              1.0000000
D    1   1.00
      1.8260000              1.0000000
D    1   1.00
      0.4565000              1.0000000
F    1   1.00
      1.0000000              1.0000000
****
O     0
S    6   1.00
   5484.6717000              0.0018311
    825.2349500              0.0139501
    188.0469600              0.0684451
     52.9645000              0.2327143
     16.8975700              0.4701930
      5.7996353              0.3585209
SP   3   1.00
     15.5396160             -0.1107775              0.0708743
      3.5999336             -0.1480263              0.3397528
      1.0137618              1.1307670              0.7271586
SP   1   1.00
      0.2700058              1.0000000              1.0000000
D    1   1.00
      2.5840000              1.0000000
D    1   1.00
      0.6460000              1.0000000
F    1   1.00
      1.4000000              1.0000000
****
F     0
S    6   1.00
   7001.7130900              0.0018196169
   1051.3660900              0.0139160796
    239.2856900              0.0684053245
     67.3974453              0.233185760
     21.5199573              0.471267439
      7.40310130             0.356618546
SP   3   1.00
     20.8479528             -0.108506975            0.0716287243
      4.80830834            -0.146451658            0.3459121030
      1.34406986             1.128688580            0.7224699570
SP   1   1.00
      0.358151393            1.0000000              1.0000000
D    1   1.00
      3.5000000              1.0000000
D    1   1.00
      0.8750000              1.0000000
F    1   1.00
      1.8500000              1.0000000
****
Al     0
S    6   1.00
  13983.1000000              0.00194267
   2098.7500000              0.0148599
    477.7050000              0.0728494
    134.3600000              0.2468300
     42.8709000              0.4872580
     14.5189000              0.3234960
SP   6   1.00
    239.6680000             -0.00292619             0.00460285
     57.4419000             -0.0374080              0.0331990
     18.2859000             -0.1144870              0.1362820
      6.5991400              0.1156350              0.3304760
      2.4904900              0.6125950              0.4491460
      0.9445400              0.3937990              0.2657040
SP   3   1.00
      1.2779000             -0.2276060             -0.0175130
      0.3975900              0.00144583             0.2445330
      0.1600950              1.0927900              0.8049340
SP   1   1.00
      0.0556577              1.0000000              1.0000000
D    1   1.00
      0.6500000              1.0000000
D    1   1.00
      0.1625000              1.0000000
F    1   1.00
      0.2500000              1.0000000
****
Si     0
S    6   1.00
  16115.9000000              0.00195948
   2425.5800000              0.01492880
    553.8670000              0.07284780
    156.3400000              0.24613000
     50.0683000              0.48591400
     17.0178000              0.32500200
SP   6   1.00
    292.7180000             -0.00278094             0.00443826
     69.8731000             -0.03571460             0.03266790
     22.3363000             -0.11498500             0.13472100
      8.1503900              0.09356340             0.32867800
      3.1345800              0.60301700             0.44964000
      1.2254300              0.41895900             0.26137200
SP   3   1.00
      1.7273800             -0.24463000            -0.01779510
      0.5729220              0.00431572             0.25353900
      0.2221920              1.09818000             0.80066900
SP   1   1.00
      0.0778369              1.00000000             1.00000000
D    1   1.00
      0.9000000              1.0000000
D    1   1.00
      0.2250000              1.0000000
F    1   1.00
      0.3200000              1.0000000
****
P     0
S    6   1.00
  19413.3000000              0.0018516
   2909.4200000              0.0142062
    661.3640000              0.0699995
    185.7590000              0.2400790
     59.1943000              0.4847620
     20.0310000              0.3352000
SP   6   1.00
    339.4780000             -0.00278217             0.00456462
     81.0101000             -0.0360499              0.03369360
     25.8780000             -0.1166310              0.13975500
      9.4522100              0.0968328              0.33936200
      3.6656600              0.6144180              0.45092100
      1.4674600              0.4037980              0.23858600
SP   3   1.00
      2.1562300             -0.2529230             -0.01776530
      0.7489970              0.0328517              0.27405800
      0.2831450              1.0812500              0.78542100
SP   1   1.00
      0.0998317              1.0000000              1.00000000
D    1   1.00
      1.1000000              1.0000000
D    1   1.00
      0.2750000              1.0000000
F    1   1.00
      0.4500000              1.0000000
****
S     0
S    6   1.00
  21917.1000000              0.0018690
   3301.4900000              0.0142300
    754.1460000              0.0696960
    212.7110000              0.2384870
     67.9896000              0.4833070
     23.0515000              0.3380740
SP   6   1.00
    423.7350000             -0.0023767              0.0040610
    100.7100000             -0.0316930              0.0306810
     32.1599000             -0.1133170              0.1304520
     11.8079000              0.0560900              0.3272050
      4.6311000              0.5922550              0.4528510
      1.8702500              0.4550060              0.2560420
SP   3   1.00
      2.6158400             -0.2503740             -0.0145110
      0.9221670              0.0669570              0.3102630
      0.3412870              1.0545100              0.7544830
SP   1   1.00
      0.1171670              1.0000000              1.0000000
D    1   1.00
      1.3000000              1.0000000
D    1   1.00
      0.3250000              1.0000000
F    1   1.00
      0.5500000              1.0000000
****
Cl     0
S    6   1.00
  25180.1000000              0.0018330
   3780.3500000              0.0140340
    860.4740000              0.0690970
    242.1450000              0.2374520
     77.3349000              0.4830340
     26.2470000              0.3398560
SP   6   1.00
    491.7650000             -0.0022974              0.0039894
    116.9840000             -0.0307140              0.0303180
     37.4153000             -0.1125280              0.1298800
     13.7834000              0.0450160              0.3279510
      5.4521500              0.5893530              0.4535270
      2.2258800              0.4652060              0.2521540
SP   3   1.00
      3.1864900             -0.2518300             -0.0142990
      1.1442700              0.0615890              0.3235720
      0.4203770              1.0601800              0.7435070
SP   1   1.00
      0.1426570              1.0000000              1.0000000
D    1   1.00
      1.5000000              1.0000000
D    1   1.00
      0.3750000              1.0000000
F    1   1.00
      0.7000000              1.0000000
****
}

set {
reference uhf
freeze_core true
e_convergence 10
d_convergence 10
dft_spherical_points 1202
dft_radial_points 99
}

e = energy('b3lyp')

print_out('Grab this energy {0}'.format(e))
--------------------------------------------------------------------------

    Molecular point group: c1

    Geometry (in Bohr), charge = 0, multiplicity = 2:

       Center              X                  Y                   Z               Mass
    ------------   -----------------  -----------------  -----------------  -----------------
         C           -0.323340469737    -0.001525579692     0.000000851580    12.000000000000
         C            0.061061346963    -1.401749189392    -2.425114683720    12.000000000000
         C            0.061174775963     2.803080005508    -0.000798135320    12.000000000000
         C            0.061063290363    -1.400367520492     2.425913275480    12.000000000000
         H            2.087043717063    -1.646924007692    -2.842895501020     1.007825032230
         H           -0.764631100037    -0.383780350192    -4.017162454420     1.007825032230
         H           -0.765821598537    -3.296160453192    -2.357184775020     1.007825032230
         H            2.086569562763     3.293166694308    -0.001582255820     1.007825032230
         H           -0.766819849137     3.676072058608     1.676251182980     1.007825032230
         H           -0.765480870737     3.684943975408    -1.678272267420     1.007825032230
         H            2.087049071063    -1.644179927192     2.844472100280     1.007825032230
         H           -0.767175435937    -3.289996107192     2.350501497280     1.007825032230
         H           -0.763288628937    -0.386446862792     4.025856898780     1.007825032230

  Charge       = 0
  Multiplicity = 2
  Basis Set: ANONYMOUS19A4A333
    Blend: 6-31G_2DFP_
  Basis Set: (ANONYMOUS19A4A333 AUX)
    Blend: DEF2-UNIVERSAL-JKFIT

    Orbital Energies [Eh]
    ---------------------

    Alpha Occupied:

       1A    -10.180342     2A    -10.167199     3A    -10.166939
       4A    -10.166907     5A     -0.797767     6A     -0.686309
       7A     -0.686065     8A     -0.530775     9A     -0.441130
      10A     -0.434743    11A     -0.434599    12A     -0.382633
      13A     -0.382563    14A     -0.363611    15A     -0.338062
      16A     -0.337932    17A     -0.168961

    Alpha Virtual:

      18A      0.076073    19A      0.134121    20A      0.134186
      21A      0.142567    22A      0.142687    23A      0.154880
      24A      0.178739    25A      0.178819    26A      0.203530
      27A      0.214821    28A      0.275717    29A      0.276252
      30A      0.399183    31A      0.399268    32A      0.403351
      33A      0.424042    34A      0.424155    35A      0.456593
      36A      0.495331    37A      0.495449    38A      0.512159
      39A      0.513980    40A      0.578524    41A      0.579109
      42A      0.591337    43A      0.591927    44A      0.602575
      45A      0.624683    46A      0.631853    47A      0.636217
      48A      0.636287    49A      0.663378    50A      0.663443
      51A      0.683822    52A      0.683884    53A      0.734993
      54A      0.825190    55A      0.825623    56A      0.853916
      57A      0.914877    58A      0.915161    59A      0.944018
      60A      0.944703    61A      0.960601    62A      0.961991
      63A      1.003478    64A      1.127890    65A      1.128308
      66A      1.142216    67A      1.163178    68A      1.163377
      69A      1.223326    70A      1.274341    71A      1.274651
      72A      1.279344    73A      1.324350    74A      1.324362
      75A      1.355979    76A      1.365889    77A      1.366204
      78A      1.392465    79A      1.403715    80A      1.404345
      81A      1.416740    82A      1.417526    83A      1.427915
      84A      1.491495    85A      1.499082    86A      1.542559
      87A      1.543101    88A      1.574438    89A      1.574452
      90A      1.669838    91A      1.739046    92A      1.739804
      93A      1.768314    94A      1.830911    95A      1.831888
      96A      1.971728    97A      2.018034    98A      2.019006
      99A      2.019363   100A      2.051834   101A      2.053448
     102A      2.738209   103A      2.738757   104A      2.790926
     105A      2.811418   106A      2.889645   107A      2.890236
     108A      2.894983   109A      2.929474   110A      2.929523
     111A      2.958996   112A      2.964232   113A      2.964519
     114A      3.034014   115A      3.071145   116A      3.071424
     117A      3.084345   118A      3.168578   119A      3.168994
     120A      3.180583   121A      3.285259   122A      3.285346
     123A      3.326841   124A      3.327507   125A      3.375617
     126A      3.489998   127A      3.490280   128A      3.513938
     129A      3.525397   130A      3.568107   131A      3.568589
     132A      3.575249   133A      3.666212   134A      3.666522
     135A      3.679622   136A      3.693708   137A      3.694557
     138A      3.775590   139A      3.778056   140A      3.789150
     141A      3.911978   142A      3.912517   143A      4.034456
     144A      4.110101   145A      4.112615   146A      4.147205
     147A      4.149012   148A      4.173268   149A      4.202608
     150A      4.203068   151A      4.203099   152A      4.210871
     153A      4.315167   154A      4.316706   155A      4.359014
     156A      4.424203   157A      4.424712   158A      4.443456
     159A      4.516417   160A      4.517250   161A      4.577922
     162A      4.578591   163A      4.617539   164A      4.709432
     165A      4.773489   166A      4.775692   167A      4.836964
     168A      4.962885   169A      5.002615   170A      5.003297
     171A      5.228036   172A      5.246340   173A      5.247297
     174A      5.354779   175A      5.356226   176A      5.479356

    Beta Occupied:

       1A    -10.167957     2A    -10.167692     3A    -10.167675
       4A    -10.166520     5A     -0.781092     6A     -0.684104
       7A     -0.683876     8A     -0.511747     9A     -0.431104
      10A     -0.430987    11A     -0.421819    12A     -0.376714
      13A     -0.376653    14A     -0.362594    15A     -0.333182
      16A     -0.333059

    Beta Virtual:

      17A     -0.025743    18A      0.077082    19A      0.135019
      20A      0.135068    21A      0.144436    22A      0.144560
      23A      0.163339    24A      0.182428    25A      0.182472
      26A      0.214985    27A      0.218978    28A      0.282075
      29A      0.282590    30A      0.400360    31A      0.400436
      32A      0.419788    33A      0.426852    34A      0.426970
      35A      0.468500    36A      0.497594    37A      0.497708
      38A      0.513895    39A      0.556324    40A      0.584072
      41A      0.584659    42A      0.597532    43A      0.598093
      44A      0.609996    45A      0.628005    46A      0.632065
      47A      0.639483    48A      0.639592    49A      0.666941
      50A      0.667009    51A      0.686436    52A      0.686541
      53A      0.757515    54A      0.830337    55A      0.830813
      56A      0.855269    57A      0.922884    58A      0.923095
      59A      0.945936    60A      0.953546    61A      0.965962
      62A      0.967247    63A      1.008717    64A      1.131842
      65A      1.132409    66A      1.155596    67A      1.168324
      68A      1.168381    69A      1.232298    70A      1.279938
      71A      1.280246    72A      1.285098    73A      1.329334
      74A      1.329356    75A      1.365394    76A      1.371160
      77A      1.371416    78A      1.393526    79A      1.407158
      80A      1.407839    81A      1.421793    82A      1.422567
      83A      1.428185    84A      1.492544    85A      1.509524
      86A      1.546967    87A      1.547509    88A      1.582309
      89A      1.582324    90A      1.674685    91A      1.744800
      92A      1.745573    93A      1.779093    94A      1.834770
      95A      1.835741    96A      1.972590    97A      2.025397
      98A      2.025492    99A      2.039693   100A      2.058521
     101A      2.060188   102A      2.746560   103A      2.747079
     104A      2.811822   105A      2.816068   106A      2.902425
     107A      2.902862   108A      2.924658   109A      2.931968
     110A      2.931989   111A      2.960062   112A      2.968796
     113A      2.969046   114A      3.041949   115A      3.081065
     116A      3.081323   117A      3.086161   118A      3.184300
     119A      3.184780   120A      3.188258   121A      3.290032
     122A      3.290167   123A      3.330664   124A      3.331295
     125A      3.383434   126A      3.492747   127A      3.492990
     128A      3.512329   129A      3.528426   130A      3.574921
     131A      3.581393   132A      3.582151   133A      3.671057
     134A      3.671205   135A      3.692919   136A      3.725634
     137A      3.725865   138A      3.780162   139A      3.782539
     140A      3.817697   141A      3.921811   142A      3.922317
     143A      4.045343   144A      4.117032   145A      4.119319
     146A      4.154394   147A      4.156244   148A      4.187319
     149A      4.208953   150A      4.209050   151A      4.210608
     152A      4.215354   153A      4.322584   154A      4.324163
     155A      4.362384   156A      4.432463   157A      4.432883
     158A      4.446341   159A      4.524217   160A      4.525029
     161A      4.588522   162A      4.589190   163A      4.624734
     164A      4.719774   165A      4.780484   166A      4.782604
     167A      4.839886   168A      4.967678   169A      5.006646
     170A      5.007345   171A      5.233752   172A      5.248117
     173A      5.249090   174A      5.361237   175A      5.362727
     176A      5.481677

    Final Occupation by Irrep:
              A
    DOCC [    16 ]
    SOCC [     1 ]

  @DF-UKS Final Energy:  -157.81306338884843

   => Energetics <=

    Nuclear Repulsion Energy =            125.3946345446068733
    One-Electron Energy =                -458.7489166884366227
    Two-Electron Energy =                 195.8483621847089182
    DFT Exchange-Correlation Energy =     -20.3071434297275744
    Empirical Dispersion Energy =           0.0000000000000000
    VV10 Nonlocal Energy =                  0.0000000000000000
    Total Energy =                       -157.8130633888484340

  UHF NO Occupations:
  HONO-2 :   15  A 1.9996009
  HONO-1 :   16  A 1.9989804
  HONO-0 :   17  A 1.0000000
  LUNO+0 :   18  A 0.0010196
  LUNO+1 :   19  A 0.0003991
  LUNO+2 :   20  A 0.0001979
  LUNO+3 :   21  A 0.0001972

Computation Completed

Properties will be evaluated at   0.000000,   0.000000,   0.000000 [a0]

Properties computed using the SCF density matrix

  Nuclear Dipole Moment: [e a0]
     X:     0.8272      Y:     0.0033      Z:    -0.0000

  Electronic Dipole Moment: [e a0]
     X:    -0.7493      Y:    -0.0033      Z:     0.0000

  Dipole Moment: [e a0]
     X:     0.0779      Y:    -0.0000      Z:     0.0000     Total:     0.0779

  Dipole Moment: [D]
     X:     0.1980      Y:    -0.0001      Z:     0.0000     Total:     0.1980

*** tstop() called on n091 at Fri Nov  5 15:26:23 2021
Module time:
	user time   =     496.53 seconds =       8.28 minutes
	system time =       4.58 seconds =       0.08 minutes
	total time  =        126 seconds =       2.10 minutes
Total time:
	user time   =     496.53 seconds =       8.28 minutes
	system time =       4.58 seconds =       0.08 minutes
	total time  =        126 seconds =       2.10 minutes
Grab this energy -157.81306338884843
    Psi4 stopped on: Friday, 05 November 2021 03:26PM
    Psi4 wall time for execution: 0:02:06.00

*** Psi4 exiting successfully. Buy a developer a beer!
