                               Psi4 1.4a2.dev629

  ==> Input File <==

--------------------------------------------------------------------------
import os
memory 14 GB

molecule {
 C   -0.3233319702   -0.0019921080   -0.0050005883
 C    0.0605411123   -1.4076499972   -2.4298893220
 C    0.0611743371    2.8025923166    0.0062335618
 C    0.0615875764   -1.3953968993    2.4211292948
 H    2.0863712616   -1.6548070407   -2.8477600367
 H   -0.7634974751   -0.3948434482   -4.0284647110
 H   -0.7687990412   -3.2993230577   -2.3540449942
 H    2.0865658940    3.2926682596    0.0111560692
 H   -0.7689107487    3.6724179184    1.6866891304
 H   -0.7634020827    3.6876015157   -1.6678051159
 H    2.0877229716   -1.6372332679    2.8395915407
 H   -0.7642076576   -3.2877557973    2.3536293942
 H   -0.7644220543   -0.3763027076    4.0145357771
units bohr
0 2
}

basis {

assign 6-31g_2dfp_

[ 6-31g_2dfp_ ]

spherical

!----------------------------------------------------------------------
! Basis Set Exchange
! Version v0.8.13
! https://www.basissetexchange.org
!----------------------------------------------------------------------
!   Basis set: 6-31G(2df,p)
! Description: 6-31G(2df,p)
!        Role: orbital
!     Version: 0  (Data from the original Basis Set Exchange)
!----------------------------------------------------------------------

****
H     0
S    3   1.00
     18.7311370              0.03349460
      2.8253937              0.23472695
      0.6401217              0.81375733
S    1   1.00
      0.1612778              1.00000000
P    1   1.00
      1.5000000              1.0000000
P    1   1.00
      0.3750000              1.0000000
****
B     0
S    6   1.00
   2068.8823000              0.0018663
    310.6495700              0.0142515
     70.6830330              0.0695516
     19.8610800              0.2325729
      6.2993048              0.4670787
      2.1270270              0.3634314
SP   3   1.00
      4.7279710             -0.1303938              0.0745976
      1.1903377             -0.1307889              0.3078467
      0.3594117              1.1309444              0.7434568
SP   1   1.00
      0.1267512              1.0000000              1.0000000
D    1   1.00
      0.8020000              1.0000000
D    1   1.00
      0.2005000              1.0000000
F    1   1.00
      0.5000000              1.0000000
****
C     0
S    6   1.00
   3047.5249000              0.0018347
    457.3695100              0.0140373
    103.9486900              0.0688426
     29.2101550              0.2321844
      9.2866630              0.4679413
      3.1639270              0.3623120
SP   3   1.00
      7.8682724             -0.1193324              0.0689991
      1.8812885             -0.1608542              0.3164240
      0.5442493              1.1434564              0.7443083
SP   1   1.00
      0.1687144              1.0000000              1.0000000
D    1   1.00
      1.2520000              1.0000000
D    1   1.00
      0.3130000              1.0000000
F    1   1.00
      0.8000000              1.0000000
****
N     0
S    6   1.00
   4173.5110000              0.0018348
    627.4579000              0.0139950
    142.9021000              0.0685870
     40.2343300              0.2322410
     12.8202100              0.4690700
      4.3904370              0.3604550
SP   3   1.00
     11.6263580             -0.1149610              0.0675800
      2.7162800             -0.1691180              0.3239070
      0.7722180              1.1458520              0.7408950
SP   1   1.00
      0.2120313              1.0000000              1.0000000
D    1   1.00
      1.8260000              1.0000000
D    1   1.00
      0.4565000              1.0000000
F    1   1.00
      1.0000000              1.0000000
****
O     0
S    6   1.00
   5484.6717000              0.0018311
    825.2349500              0.0139501
    188.0469600              0.0684451
     52.9645000              0.2327143
     16.8975700              0.4701930
      5.7996353              0.3585209
SP   3   1.00
     15.5396160             -0.1107775              0.0708743
      3.5999336             -0.1480263              0.3397528
      1.0137618              1.1307670              0.7271586
SP   1   1.00
      0.2700058              1.0000000              1.0000000
D    1   1.00
      2.5840000              1.0000000
D    1   1.00
      0.6460000              1.0000000
F    1   1.00
      1.4000000              1.0000000
****
F     0
S    6   1.00
   7001.7130900              0.0018196169
   1051.3660900              0.0139160796
    239.2856900              0.0684053245
     67.3974453              0.233185760
     21.5199573              0.471267439
      7.40310130             0.356618546
SP   3   1.00
     20.8479528             -0.108506975            0.0716287243
      4.80830834            -0.146451658            0.3459121030
      1.34406986             1.128688580            0.7224699570
SP   1   1.00
      0.358151393            1.0000000              1.0000000
D    1   1.00
      3.5000000              1.0000000
D    1   1.00
      0.8750000              1.0000000
F    1   1.00
      1.8500000              1.0000000
****
Al     0
S    6   1.00
  13983.1000000              0.00194267
   2098.7500000              0.0148599
    477.7050000              0.0728494
    134.3600000              0.2468300
     42.8709000              0.4872580
     14.5189000              0.3234960
SP   6   1.00
    239.6680000             -0.00292619             0.00460285
     57.4419000             -0.0374080              0.0331990
     18.2859000             -0.1144870              0.1362820
      6.5991400              0.1156350              0.3304760
      2.4904900              0.6125950              0.4491460
      0.9445400              0.3937990              0.2657040
SP   3   1.00
      1.2779000             -0.2276060             -0.0175130
      0.3975900              0.00144583             0.2445330
      0.1600950              1.0927900              0.8049340
SP   1   1.00
      0.0556577              1.0000000              1.0000000
D    1   1.00
      0.6500000              1.0000000
D    1   1.00
      0.1625000              1.0000000
F    1   1.00
      0.2500000              1.0000000
****
Si     0
S    6   1.00
  16115.9000000              0.00195948
   2425.5800000              0.01492880
    553.8670000              0.07284780
    156.3400000              0.24613000
     50.0683000              0.48591400
     17.0178000              0.32500200
SP   6   1.00
    292.7180000             -0.00278094             0.00443826
     69.8731000             -0.03571460             0.03266790
     22.3363000             -0.11498500             0.13472100
      8.1503900              0.09356340             0.32867800
      3.1345800              0.60301700             0.44964000
      1.2254300              0.41895900             0.26137200
SP   3   1.00
      1.7273800             -0.24463000            -0.01779510
      0.5729220              0.00431572             0.25353900
      0.2221920              1.09818000             0.80066900
SP   1   1.00
      0.0778369              1.00000000             1.00000000
D    1   1.00
      0.9000000              1.0000000
D    1   1.00
      0.2250000              1.0000000
F    1   1.00
      0.3200000              1.0000000
****
P     0
S    6   1.00
  19413.3000000              0.0018516
   2909.4200000              0.0142062
    661.3640000              0.0699995
    185.7590000              0.2400790
     59.1943000              0.4847620
     20.0310000              0.3352000
SP   6   1.00
    339.4780000             -0.00278217             0.00456462
     81.0101000             -0.0360499              0.03369360
     25.8780000             -0.1166310              0.13975500
      9.4522100              0.0968328              0.33936200
      3.6656600              0.6144180              0.45092100
      1.4674600              0.4037980              0.23858600
SP   3   1.00
      2.1562300             -0.2529230             -0.01776530
      0.7489970              0.0328517              0.27405800
      0.2831450              1.0812500              0.78542100
SP   1   1.00
      0.0998317              1.0000000              1.00000000
D    1   1.00
      1.1000000              1.0000000
D    1   1.00
      0.2750000              1.0000000
F    1   1.00
      0.4500000              1.0000000
****
S     0
S    6   1.00
  21917.1000000              0.0018690
   3301.4900000              0.0142300
    754.1460000              0.0696960
    212.7110000              0.2384870
     67.9896000              0.4833070
     23.0515000              0.3380740
SP   6   1.00
    423.7350000             -0.0023767              0.0040610
    100.7100000             -0.0316930              0.0306810
     32.1599000             -0.1133170              0.1304520
     11.8079000              0.0560900              0.3272050
      4.6311000              0.5922550              0.4528510
      1.8702500              0.4550060              0.2560420
SP   3   1.00
      2.6158400             -0.2503740             -0.0145110
      0.9221670              0.0669570              0.3102630
      0.3412870              1.0545100              0.7544830
SP   1   1.00
      0.1171670              1.0000000              1.0000000
D    1   1.00
      1.3000000              1.0000000
D    1   1.00
      0.3250000              1.0000000
F    1   1.00
      0.5500000              1.0000000
****
Cl     0
S    6   1.00
  25180.1000000              0.0018330
   3780.3500000              0.0140340
    860.4740000              0.0690970
    242.1450000              0.2374520
     77.3349000              0.4830340
     26.2470000              0.3398560
SP   6   1.00
    491.7650000             -0.0022974              0.0039894
    116.9840000             -0.0307140              0.0303180
     37.4153000             -0.1125280              0.1298800
     13.7834000              0.0450160              0.3279510
      5.4521500              0.5893530              0.4535270
      2.2258800              0.4652060              0.2521540
SP   3   1.00
      3.1864900             -0.2518300             -0.0142990
      1.1442700              0.0615890              0.3235720
      0.4203770              1.0601800              0.7435070
SP   1   1.00
      0.1426570              1.0000000              1.0000000
D    1   1.00
      1.5000000              1.0000000
D    1   1.00
      0.3750000              1.0000000
F    1   1.00
      0.7000000              1.0000000
****
}

set {
reference uhf
freeze_core true
e_convergence 10
d_convergence 10
dft_spherical_points 1202
dft_radial_points 99
}

e = energy('b3lyp')

print_out('Grab this energy {0}'.format(e))
--------------------------------------------------------------------------

    Molecular point group: c1

    Geometry (in Bohr), charge = 0, multiplicity = 2:

       Center              X                  Y                   Z               Mass
    ------------   -----------------  -----------------  -----------------  -----------------
         C           -0.323334096667    -0.001520428926    -0.003550823545    12.000000000000
         C            0.060538985833    -1.407178318126    -2.428439557245    12.000000000000
         C            0.061172210633     2.803063995674     0.007683326555    12.000000000000
         C            0.061585449933    -1.394925220226     2.422579059555    12.000000000000
         H            2.086369135133    -1.654335361626    -2.846310271945     1.007825032230
         H           -0.763499601567    -0.394371769126    -4.027014946245     1.007825032230
         H           -0.768801167667    -3.298851378626    -2.352595229445     1.007825032230
         H            2.086563767533     3.293139938674     0.012605833955     1.007825032230
         H           -0.768912875167     3.672889597474     1.688138895155     1.007825032230
         H           -0.763404209167     3.688073194774    -1.666355351145     1.007825032230
         H            2.087720845133    -1.636761588826     2.841041305455     1.007825032230
         H           -0.764209784067    -3.287284118226     2.355079158955     1.007825032230
         H           -0.764424180767    -0.375831028526     4.015985541855     1.007825032230

  Charge       = 0
  Multiplicity = 2
  Basis Set: ANONYMOUS36407E66
    Blend: 6-31G_2DFP_
  Basis Set: (ANONYMOUS36407E66 AUX)
    Blend: DEF2-UNIVERSAL-JKFIT

    Orbital Energies [Eh]
    ---------------------

    Alpha Occupied:

       1A    -10.180342     2A    -10.167211     3A    -10.167182
       4A    -10.166653     5A     -0.797770     6A     -0.686438
       7A     -0.685933     8A     -0.530776     9A     -0.441131
      10A     -0.434943    11A     -0.434396    12A     -0.382748
      13A     -0.382448    14A     -0.363611    15A     -0.338276
      16A     -0.337717    17A     -0.168961

    Alpha Virtual:

      18A      0.076072    19A      0.133914    20A      0.134396
      21A      0.142477    22A      0.142774    23A      0.154881
      24A      0.178552    25A      0.179005    26A      0.203545
      27A      0.214809    28A      0.275669    29A      0.276302
      30A      0.399080    31A      0.399303    32A      0.403423
      33A      0.423958    34A      0.424248    35A      0.456595
      36A      0.494983    37A      0.495787    38A      0.512171
      39A      0.513987    40A      0.578425    41A      0.579182
      42A      0.591344    43A      0.591927    44A      0.602578
      45A      0.624764    46A      0.631769    47A      0.636036
      48A      0.636474    49A      0.663194    50A      0.663632
      51A      0.683610    52A      0.684100    53A      0.734993
      54A      0.824549    55A      0.826251    56A      0.853914
      57A      0.914744    58A      0.915297    59A      0.944051
      60A      0.944514    61A      0.960657    62A      0.962141
      63A      1.003480    64A      1.126917    65A      1.129306
      66A      1.142214    67A      1.162782    68A      1.163768
      69A      1.223334    70A      1.273937    71A      1.275054
      72A      1.279349    73A      1.324278    74A      1.324431
      75A      1.355994    76A      1.365272    77A      1.366776
      78A      1.392429    79A      1.403251    80A      1.404932
      81A      1.416490    82A      1.417756    83A      1.427929
      84A      1.491436    85A      1.499063    86A      1.542373
      87A      1.543296    88A      1.572628    89A      1.576371
      90A      1.669826    91A      1.738274    92A      1.740529
      93A      1.768345    94A      1.830694    95A      1.832117
      96A      1.971724    97A      2.017372    98A      2.018468
      99A      2.020523   100A      2.050016   101A      2.055363
     102A      2.738104   103A      2.738862   104A      2.790927
     105A      2.811429   106A      2.889618   107A      2.890248
     108A      2.894990   109A      2.929321   110A      2.929669
     111A      2.958988   112A      2.963476   113A      2.965305
     114A      3.034012   115A      3.070278   116A      3.072260
     117A      3.084382   118A      3.168023   119A      3.169589
     120A      3.180558   121A      3.284607   122A      3.286008
     123A      3.326171   124A      3.328156   125A      3.375666
     126A      3.489632   127A      3.490591   128A      3.514042
     129A      3.525284   130A      3.567210   131A      3.569317
     132A      3.575509   133A      3.666167   134A      3.666567
     135A      3.679629   136A      3.693505   137A      3.694761
     138A      3.775235   139A      3.778291   140A      3.789317
     141A      3.910776   142A      3.913697   143A      4.034470
     144A      4.109509   145A      4.113231   146A      4.146208
     147A      4.149968   148A      4.173270   149A      4.201371
     150A      4.202705   151A      4.204656   152A      4.210987
     153A      4.315151   154A      4.316702   155A      4.359053
     156A      4.424139   157A      4.424652   158A      4.443562
     159A      4.515945   160A      4.517747   161A      4.577136
     162A      4.579371   163A      4.617531   164A      4.709445
     165A      4.772882   166A      4.776318   167A      4.836989
     168A      4.962857   169A      5.001905   170A      5.004020
     171A      5.228022   172A      5.246329   173A      5.247319
     174A      5.354485   175A      5.356514   176A      5.479338

    Beta Occupied:

       1A    -10.167964     2A    -10.167945     3A    -10.167417
       4A    -10.166518     5A     -0.781096     6A     -0.684241
       7A     -0.683736     8A     -0.511748     9A     -0.431326
      10A     -0.430764    11A     -0.421819    12A     -0.376842
      13A     -0.376525    14A     -0.362595    15A     -0.333402
      16A     -0.332837

    Beta Virtual:

      17A     -0.025743    18A      0.077081    19A      0.134794
      20A      0.135296    21A      0.144353    22A      0.144641
      23A      0.163340    24A      0.182217    25A      0.182683
      26A      0.215039    27A      0.218927    28A      0.282019
      29A      0.282648    30A      0.400279    31A      0.400508
      32A      0.419797    33A      0.426758    34A      0.427074
      35A      0.468505    36A      0.497241    37A      0.498055
      38A      0.513907    39A      0.556327    40A      0.583993
      41A      0.584716    42A      0.597536    43A      0.598093
      44A      0.609997    45A      0.628147    46A      0.631927
      47A      0.639300    48A      0.639779    49A      0.666731
      50A      0.667221    51A      0.686192    52A      0.686791
      53A      0.757515    54A      0.829702    55A      0.831434
      56A      0.855268    57A      0.922715    58A      0.923265
      59A      0.945910    60A      0.953424    61A      0.966005
      62A      0.967409    63A      1.008718    64A      1.130939
      65A      1.133345    66A      1.155586    67A      1.167831
      68A      1.168867    69A      1.232303    70A      1.279530
      71A      1.280655    72A      1.285103    73A      1.329250
      74A      1.329438    75A      1.365411    76A      1.370420
      77A      1.372105    78A      1.393495    79A      1.406734
      80A      1.408382    81A      1.421538    82A      1.422800
      83A      1.428202    84A      1.492488    85A      1.509506
      86A      1.546694    87A      1.547787    88A      1.580647
      89A      1.584097    90A      1.674672    91A      1.744039
      92A      1.746290    93A      1.779122    94A      1.834538
      95A      1.835984    96A      1.972587    97A      2.023940
      98A      2.026933    99A      2.039661   100A      2.056806
     101A      2.062006   102A      2.746417   103A      2.747222
     104A      2.811842   105A      2.816059   106A      2.902408
     107A      2.902865   108A      2.924663   109A      2.931896
     110A      2.932061   111A      2.960055   112A      2.968052
     113A      2.969812   114A      3.041947   115A      3.080045
     116A      3.082174   117A      3.086347   118A      3.183868
     119A      3.185227   120A      3.188242   121A      3.289474
     122A      3.290743   123A      3.329975   124A      3.331963
     125A      3.383483   126A      3.492373   127A      3.493300
     128A      3.512421   129A      3.528344   130A      3.574712
     131A      3.580616   132A      3.583230   133A      3.670973
     134A      3.671290   135A      3.692929   136A      3.725300
     137A      3.726185   138A      3.779853   139A      3.782795
     140A      3.817792   141A      3.920596   142A      3.923510
     143A      4.045357   144A      4.116404   145A      4.119968
     146A      4.153457   147A      4.157145   148A      4.187322
     149A      4.207308   150A      4.210532   151A      4.210696
     152A      4.215501   153A      4.322568   154A      4.324158
     155A      4.362422   156A      4.432389   157A      4.432785
     158A      4.446499   159A      4.523823   160A      4.525440
     161A      4.587661   162A      4.590047   163A      4.624728
     164A      4.719790   165A      4.779829   166A      4.783276
     167A      4.839910   168A      4.967650   169A      5.005941
     170A      5.008063   171A      5.233735   172A      5.248107
     173A      5.249113   174A      5.360937   175A      5.363022
     176A      5.481659

    Final Occupation by Irrep:
              A
    DOCC [    16 ]
    SOCC [     1 ]

  @DF-UKS Final Energy:  -157.81306020465686

   => Energetics <=

    Nuclear Repulsion Energy =            125.3948753752786587
    One-Electron Energy =                -458.7493919716938535
    Two-Electron Energy =                 195.8486026717707205
    DFT Exchange-Correlation Energy =     -20.3071462800123967
    Empirical Dispersion Energy =           0.0000000000000000
    VV10 Nonlocal Energy =                  0.0000000000000000
    Total Energy =                       -157.8130602046568640

  UHF NO Occupations:
  HONO-2 :   15  A 1.9996009
  HONO-1 :   16  A 1.9989804
  HONO-0 :   17  A 1.0000000
  LUNO+0 :   18  A 0.0010196
  LUNO+1 :   19  A 0.0003991
  LUNO+2 :   20  A 0.0001980
  LUNO+3 :   21  A 0.0001971

Computation Completed

Properties will be evaluated at   0.000000,   0.000000,   0.000000 [a0]

Properties computed using the SCF density matrix

  Nuclear Dipole Moment: [e a0]
     X:     0.8272      Y:     0.0033      Z:     0.0102

  Electronic Dipole Moment: [e a0]
     X:    -0.7493      Y:    -0.0033      Z:    -0.0110

  Dipole Moment: [e a0]
     X:     0.0779      Y:    -0.0000      Z:    -0.0008     Total:     0.0779

  Dipole Moment: [D]
     X:     0.1980      Y:    -0.0001      Z:    -0.0019     Total:     0.1981

*** tstop() called on n032 at Fri Nov  5 15:34:45 2021
Module time:
	user time   =     634.51 seconds =      10.58 minutes
	system time =      12.30 seconds =       0.20 minutes
	total time  =        162 seconds =       2.70 minutes
Total time:
	user time   =     634.51 seconds =      10.58 minutes
	system time =      12.30 seconds =       0.20 minutes
	total time  =        162 seconds =       2.70 minutes
Grab this energy -157.81306020465686
    Psi4 stopped on: Friday, 05 November 2021 03:34PM
    Psi4 wall time for execution: 0:02:42.63

*** Psi4 exiting successfully. Buy a developer a beer!
