                               Psi4 1.4a2.dev629

  ==> Input File <==

--------------------------------------------------------------------------
import os
memory 14 GB

molecule {
 C   -0.3233383099    0.0021725071    0.0000000000
 C    0.0605142490   -1.3996754093   -2.4278017677
 C    0.0622754407    2.8005006226    0.0000000000
 C    0.0605142490   -1.3996754093    2.4278017677
 H    2.0883190923   -1.6465813365   -2.8455265052
 H   -0.7607196623   -0.3878582954   -4.0303012373
 H   -0.7681934994   -3.2890531397   -2.3494177410
 H    2.0840260365    3.2889291457   -0.0000000000
 H   -0.7677057015    3.6773548865    1.6765290606
 H   -0.7677057015    3.6773548865   -1.6765290606
 H    2.0883190923   -1.6465813365    2.8455265052
 H   -0.7681934994   -3.2890531397    2.3494177410
 H   -0.7607196623   -0.3878582954    4.0303012373
units bohr
0 2
}

basis {

assign 6-31g_2dfp_

[ 6-31g_2dfp_ ]

spherical

!----------------------------------------------------------------------
! Basis Set Exchange
! Version v0.8.13
! https://www.basissetexchange.org
!----------------------------------------------------------------------
!   Basis set: 6-31G(2df,p)
! Description: 6-31G(2df,p)
!        Role: orbital
!     Version: 0  (Data from the original Basis Set Exchange)
!----------------------------------------------------------------------

****
H     0
S    3   1.00
     18.7311370              0.03349460
      2.8253937              0.23472695
      0.6401217              0.81375733
S    1   1.00
      0.1612778              1.00000000
P    1   1.00
      1.5000000              1.0000000
P    1   1.00
      0.3750000              1.0000000
****
B     0
S    6   1.00
   2068.8823000              0.0018663
    310.6495700              0.0142515
     70.6830330              0.0695516
     19.8610800              0.2325729
      6.2993048              0.4670787
      2.1270270              0.3634314
SP   3   1.00
      4.7279710             -0.1303938              0.0745976
      1.1903377             -0.1307889              0.3078467
      0.3594117              1.1309444              0.7434568
SP   1   1.00
      0.1267512              1.0000000              1.0000000
D    1   1.00
      0.8020000              1.0000000
D    1   1.00
      0.2005000              1.0000000
F    1   1.00
      0.5000000              1.0000000
****
C     0
S    6   1.00
   3047.5249000              0.0018347
    457.3695100              0.0140373
    103.9486900              0.0688426
     29.2101550              0.2321844
      9.2866630              0.4679413
      3.1639270              0.3623120
SP   3   1.00
      7.8682724             -0.1193324              0.0689991
      1.8812885             -0.1608542              0.3164240
      0.5442493              1.1434564              0.7443083
SP   1   1.00
      0.1687144              1.0000000              1.0000000
D    1   1.00
      1.2520000              1.0000000
D    1   1.00
      0.3130000              1.0000000
F    1   1.00
      0.8000000              1.0000000
****
N     0
S    6   1.00
   4173.5110000              0.0018348
    627.4579000              0.0139950
    142.9021000              0.0685870
     40.2343300              0.2322410
     12.8202100              0.4690700
      4.3904370              0.3604550
SP   3   1.00
     11.6263580             -0.1149610              0.0675800
      2.7162800             -0.1691180              0.3239070
      0.7722180              1.1458520              0.7408950
SP   1   1.00
      0.2120313              1.0000000              1.0000000
D    1   1.00
      1.8260000              1.0000000
D    1   1.00
      0.4565000              1.0000000
F    1   1.00
      1.0000000              1.0000000
****
O     0
S    6   1.00
   5484.6717000              0.0018311
    825.2349500              0.0139501
    188.0469600              0.0684451
     52.9645000              0.2327143
     16.8975700              0.4701930
      5.7996353              0.3585209
SP   3   1.00
     15.5396160             -0.1107775              0.0708743
      3.5999336             -0.1480263              0.3397528
      1.0137618              1.1307670              0.7271586
SP   1   1.00
      0.2700058              1.0000000              1.0000000
D    1   1.00
      2.5840000              1.0000000
D    1   1.00
      0.6460000              1.0000000
F    1   1.00
      1.4000000              1.0000000
****
F     0
S    6   1.00
   7001.7130900              0.0018196169
   1051.3660900              0.0139160796
    239.2856900              0.0684053245
     67.3974453              0.233185760
     21.5199573              0.471267439
      7.40310130             0.356618546
SP   3   1.00
     20.8479528             -0.108506975            0.0716287243
      4.80830834            -0.146451658            0.3459121030
      1.34406986             1.128688580            0.7224699570
SP   1   1.00
      0.358151393            1.0000000              1.0000000
D    1   1.00
      3.5000000              1.0000000
D    1   1.00
      0.8750000              1.0000000
F    1   1.00
      1.8500000              1.0000000
****
Al     0
S    6   1.00
  13983.1000000              0.00194267
   2098.7500000              0.0148599
    477.7050000              0.0728494
    134.3600000              0.2468300
     42.8709000              0.4872580
     14.5189000              0.3234960
SP   6   1.00
    239.6680000             -0.00292619             0.00460285
     57.4419000             -0.0374080              0.0331990
     18.2859000             -0.1144870              0.1362820
      6.5991400              0.1156350              0.3304760
      2.4904900              0.6125950              0.4491460
      0.9445400              0.3937990              0.2657040
SP   3   1.00
      1.2779000             -0.2276060             -0.0175130
      0.3975900              0.00144583             0.2445330
      0.1600950              1.0927900              0.8049340
SP   1   1.00
      0.0556577              1.0000000              1.0000000
D    1   1.00
      0.6500000              1.0000000
D    1   1.00
      0.1625000              1.0000000
F    1   1.00
      0.2500000              1.0000000
****
Si     0
S    6   1.00
  16115.9000000              0.00195948
   2425.5800000              0.01492880
    553.8670000              0.07284780
    156.3400000              0.24613000
     50.0683000              0.48591400
     17.0178000              0.32500200
SP   6   1.00
    292.7180000             -0.00278094             0.00443826
     69.8731000             -0.03571460             0.03266790
     22.3363000             -0.11498500             0.13472100
      8.1503900              0.09356340             0.32867800
      3.1345800              0.60301700             0.44964000
      1.2254300              0.41895900             0.26137200
SP   3   1.00
      1.7273800             -0.24463000            -0.01779510
      0.5729220              0.00431572             0.25353900
      0.2221920              1.09818000             0.80066900
SP   1   1.00
      0.0778369              1.00000000             1.00000000
D    1   1.00
      0.9000000              1.0000000
D    1   1.00
      0.2250000              1.0000000
F    1   1.00
      0.3200000              1.0000000
****
P     0
S    6   1.00
  19413.3000000              0.0018516
   2909.4200000              0.0142062
    661.3640000              0.0699995
    185.7590000              0.2400790
     59.1943000              0.4847620
     20.0310000              0.3352000
SP   6   1.00
    339.4780000             -0.00278217             0.00456462
     81.0101000             -0.0360499              0.03369360
     25.8780000             -0.1166310              0.13975500
      9.4522100              0.0968328              0.33936200
      3.6656600              0.6144180              0.45092100
      1.4674600              0.4037980              0.23858600
SP   3   1.00
      2.1562300             -0.2529230             -0.01776530
      0.7489970              0.0328517              0.27405800
      0.2831450              1.0812500              0.78542100
SP   1   1.00
      0.0998317              1.0000000              1.00000000
D    1   1.00
      1.1000000              1.0000000
D    1   1.00
      0.2750000              1.0000000
F    1   1.00
      0.4500000              1.0000000
****
S     0
S    6   1.00
  21917.1000000              0.0018690
   3301.4900000              0.0142300
    754.1460000              0.0696960
    212.7110000              0.2384870
     67.9896000              0.4833070
     23.0515000              0.3380740
SP   6   1.00
    423.7350000             -0.0023767              0.0040610
    100.7100000             -0.0316930              0.0306810
     32.1599000             -0.1133170              0.1304520
     11.8079000              0.0560900              0.3272050
      4.6311000              0.5922550              0.4528510
      1.8702500              0.4550060              0.2560420
SP   3   1.00
      2.6158400             -0.2503740             -0.0145110
      0.9221670              0.0669570              0.3102630
      0.3412870              1.0545100              0.7544830
SP   1   1.00
      0.1171670              1.0000000              1.0000000
D    1   1.00
      1.3000000              1.0000000
D    1   1.00
      0.3250000              1.0000000
F    1   1.00
      0.5500000              1.0000000
****
Cl     0
S    6   1.00
  25180.1000000              0.0018330
   3780.3500000              0.0140340
    860.4740000              0.0690970
    242.1450000              0.2374520
     77.3349000              0.4830340
     26.2470000              0.3398560
SP   6   1.00
    491.7650000             -0.0022974              0.0039894
    116.9840000             -0.0307140              0.0303180
     37.4153000             -0.1125280              0.1298800
     13.7834000              0.0450160              0.3279510
      5.4521500              0.5893530              0.4535270
      2.2258800              0.4652060              0.2521540
SP   3   1.00
      3.1864900             -0.2518300             -0.0142990
      1.1442700              0.0615890              0.3235720
      0.4203770              1.0601800              0.7435070
SP   1   1.00
      0.1426570              1.0000000              1.0000000
D    1   1.00
      1.5000000              1.0000000
D    1   1.00
      0.3750000              1.0000000
F    1   1.00
      0.7000000              1.0000000
****
}

set {
reference uhf
freeze_core true
e_convergence 10
d_convergence 10
dft_spherical_points 1202
dft_radial_points 99
}

e = energy('b3lyp')

print_out('Grab this energy {0}'.format(e))
--------------------------------------------------------------------------

    Molecular point group: cs

    Geometry (in Bohr), charge = 0, multiplicity = 2:

       Center              X                  Y                   Z               Mass
    ------------   -----------------  -----------------  -----------------  -----------------
         C           -0.323339391132     0.001533035411     0.000000000000    12.000000000000
         C            0.060513167768    -1.400314880989    -2.427801767700    12.000000000000
         C            0.062274359468     2.799861150911     0.000000000000    12.000000000000
         C            0.060513167768    -1.400314880989     2.427801767700    12.000000000000
         H            2.088318011068    -1.647220808189    -2.845526505200     1.007825032230
         H           -0.760720743532    -0.388497767089    -4.030301237300     1.007825032230
         H           -0.768194580632    -3.289692611389    -2.349417741000     1.007825032230
         H            2.084024955268     3.288289674011     0.000000000000     1.007825032230
         H           -0.767706782732     3.676715414811     1.676529060600     1.007825032230
         H           -0.767706782732     3.676715414811    -1.676529060600     1.007825032230
         H            2.088318011068    -1.647220808189     2.845526505200     1.007825032230
         H           -0.768194580632    -3.289692611389     2.349417741000     1.007825032230
         H           -0.760720743532    -0.388497767089     4.030301237300     1.007825032230

  Charge       = 0
  Multiplicity = 2
  Basis Set: ANONYMOUSF7E48310
    Blend: 6-31G_2DFP_
  Basis Set: (ANONYMOUSF7E48310 AUX)
    Blend: DEF2-UNIVERSAL-JKFIT

    Orbital Energies [Eh]
    ---------------------

    Alpha Occupied:

       1Ap   -10.180342     1App  -10.167154     2Ap   -10.167125
       3Ap   -10.166765     4Ap    -0.797767     5Ap    -0.686296
       2App   -0.686076     6Ap    -0.530776     7Ap    -0.441127
       8Ap    -0.434699     3App   -0.434643     9Ap    -0.382793
       4App   -0.382403     5App   -0.363615    10Ap    -0.338063
       6App   -0.337931    11Ap    -0.168960

    Alpha Virtual:

      12Ap     0.076072     7App    0.134061    13Ap     0.134251
       8App    0.142578    14Ap     0.142677    15Ap     0.154877
       9App    0.178667    16Ap     0.178887    17Ap     0.203549
      10App    0.214802    11App    0.275704    18Ap     0.276267
      19Ap     0.399047    12App    0.399382    20Ap     0.403371
      21Ap     0.424085    13App    0.424112    22Ap     0.456593
      23Ap     0.495310    14App    0.495469    15App    0.512160
      24Ap     0.513979    16App    0.578546    25Ap     0.579089
      17App    0.591287    26Ap     0.591972    27Ap     0.602581
      28Ap     0.624762    18App    0.631775    19App    0.636049
      29Ap     0.636445    20App    0.663040    30Ap     0.663790
      31Ap     0.683682    21App    0.684022    32Ap     0.734994
      22App    0.825388    33Ap     0.825426    23App    0.853917
      24App    0.914873    34Ap     0.915182    25App    0.944124
      35Ap     0.944613    26App    0.961168    36Ap     0.961415
      37Ap     1.003455    27App    1.128056    38Ap     1.128161
      39Ap     1.142195    40Ap     1.163246    28App    1.163303
      41Ap     1.223343    29App    1.274168    42Ap     1.274794
      43Ap     1.279378    30App    1.323979    44Ap     1.324735
      45Ap     1.355989    31App    1.366045    46Ap     1.366047
      32App    1.392439    33App    1.403622    47Ap     1.404483
      34App    1.416549    48Ap     1.417681    35App    1.427926
      36App    1.491491    49Ap     1.499090    37App    1.542644
      50Ap     1.543000    51Ap     1.574074    38App    1.574830
      52Ap     1.669833    39App    1.738753    53Ap     1.740071
      54Ap     1.768331    40App    1.831175    55Ap     1.831611
      41App    1.971728    56Ap     2.018101    42App    2.018384
      57Ap     2.019876    43App    2.051313    58Ap     2.054000
      44App    2.738393    59Ap     2.738568    60Ap     2.790934
      45App    2.811422    46App    2.889815    61Ap     2.890059
      62Ap     2.894974    63Ap     2.929295    47App    2.929705
      48App    2.958995    64Ap     2.964211    49App    2.964542
      65Ap     3.034006    50App    3.071093    66Ap     3.071464
      51App    3.084360    52App    3.168616    67Ap     3.168902
      68Ap     3.180631    53App    3.285233    69Ap     3.285397
      54App    3.326566    70Ap     3.327755    71Ap     3.375618
      72Ap     3.490096    55App    3.490224    56App    3.514005
      73Ap     3.525320    57App    3.567438    74Ap     3.569351
      58App    3.575150    59App    3.666308    75Ap     3.666432
      76Ap     3.679669    60App    3.693781    77Ap     3.694461
      78Ap     3.775480    61App    3.778104    79Ap     3.789150
      62App    3.911816    80Ap     3.912633    81Ap     4.034460
      63App    4.110438    82Ap     4.112308    64App    4.147628
      83Ap     4.148618    84Ap     4.173240    65App    4.202384
      85Ap     4.202649    86Ap     4.203727    66App    4.210888
      67App    4.315852    87Ap     4.316054    68App    4.359011
      88Ap     4.423830    69App    4.425052    70App    4.443458
      71App    4.515024    89Ap     4.518641    72App    4.577815
      90Ap     4.578718    91Ap     4.617523    92Ap     4.709452
      93Ap     4.774522    73App    4.774700    74App    4.836922
      94Ap     4.962843    75App    5.001863    95Ap     5.004043
      96Ap     5.228046    97Ap     5.246717    76App    5.246913
      77App    5.354821    98Ap     5.356198    78App    5.479346

    Beta Occupied:

       1App  -10.167907     1Ap   -10.167890     2Ap   -10.167527
       3Ap   -10.166518     4Ap    -0.781092     5Ap    -0.684088
       2App   -0.683891     6Ap    -0.511747     7Ap    -0.431070
       3App   -0.431015     8Ap    -0.421823     9Ap    -0.376874
       4App   -0.376491     5App   -0.362599    10Ap    -0.333185
       6App   -0.333055

    Beta Virtual:

      11Ap    -0.025742    12Ap     0.077081     7App    0.134955
      13Ap     0.135137     8App    0.144463    14Ap     0.144533
      15Ap     0.163335     9App    0.182329    16Ap     0.182570
      10App    0.215031    17Ap     0.218931    11App    0.282059
      18Ap     0.282606    19Ap     0.400232    12App    0.400558
      20Ap     0.419795    21Ap     0.426908    13App    0.426913
      22Ap     0.468502    23Ap     0.497582    14App    0.497719
      15App    0.513895    24Ap     0.556325    16App    0.584088
      25Ap     0.584647    17App    0.597482    26Ap     0.598136
      27Ap     0.610003    28Ap     0.628136    18App    0.631932
      19App    0.639312    29Ap     0.639754    20App    0.666630
      30Ap     0.667327    31Ap     0.686327    21App    0.686648
      32Ap     0.757517    33Ap     0.830568    22App    0.830582
      23App    0.855271    24App    0.922842    34Ap     0.923156
      25App    0.945961    35Ap     0.953541    26App    0.966438
      36Ap     0.966759    37Ap     1.008695    27App    1.132100
      38Ap     1.132175    39Ap     1.155570    40Ap     1.168338
      28App    1.168360    41Ap     1.232316    29App    1.279755
      42Ap     1.280397    43Ap     1.285135    30App    1.328971
      44Ap     1.329723    45Ap     1.365403    46Ap     1.371252
      31App    1.371327    32App    1.393497    33App    1.407044
      47Ap     1.407989    34App    1.421620    48Ap     1.422710
      35App    1.428200    36App    1.492539    49Ap     1.509533
      37App    1.547153    50Ap     1.547306    51Ap     1.582045
      38App    1.582604    52Ap     1.674680    39App    1.744508
      53Ap     1.745841    54Ap     1.779110    40App    1.835024
      55Ap     1.835473    41App    1.972587    42App    2.024721
      56Ap     2.026125    57Ap     2.039690    43App    2.058088
      58Ap     2.060661    44App    2.746706    59Ap     2.746928
      45App    2.811834    60Ap     2.816067    46App    2.902552
      61Ap     2.902731    62Ap     2.924628    63Ap     2.931802
      47App    2.932180    48App    2.960056    64Ap     2.968769
      49App    2.969075    65Ap     3.041941    50App    3.081023
      66Ap     3.081338    51App    3.086192    52App    3.184318
      67Ap     3.184580    68Ap     3.188433    53App    3.290038
      69Ap     3.290188    54App    3.330364    70Ap     3.331566
      71Ap     3.383437    72Ap     3.492849    55App    3.492933
      56App    3.512373    73Ap     3.528366    57App    3.574976
      58App    3.580900    74Ap     3.582594    59App    3.670986
      75Ap     3.671266    76Ap     3.692946    60App    3.725415
      77Ap     3.726096    78Ap     3.780053    61App    3.782595
      79Ap     3.817682    62App    3.921692    80Ap     3.922392
      81Ap     4.045347    63App    4.117203    82Ap     4.119175
      64App    4.154948    83Ap     4.155716    84Ap     4.187299
      65App    4.208309    85Ap     4.209663    86Ap     4.210629
      66App    4.215363    67App    4.323280    87Ap     4.323502
      68App    4.362379    88Ap     4.432079    69App    4.433217
      70App    4.446355    71App    4.522829    89Ap     4.526415
      72App    4.588400    90Ap     4.589335    91Ap     4.624718
      92Ap     4.719797    93Ap     4.781498    73App    4.781632
      74App    4.839838    94Ap     4.967638    75App    5.005902
      95Ap     5.008083    96Ap     5.233762    97Ap     5.248489
      76App    5.248708    77App    5.361279    98Ap     5.362702
      78App    5.481668

    Final Occupation by Irrep:
             Ap   App
    DOCC [    10,    6 ]
    SOCC [     1,    0 ]

  @DF-UKS Final Energy:  -157.81306694446863

   => Energetics <=

    Nuclear Repulsion Energy =            125.3946299169789711
    One-Electron Energy =                -458.7489205402520156
    Two-Electron Energy =                 195.8483674558642917
    DFT Exchange-Correlation Energy =     -20.3071437770598422
    Empirical Dispersion Energy =           0.0000000000000000
    VV10 Nonlocal Energy =                  0.0000000000000000
    Total Energy =                       -157.8130669444686305

  UHF NO Occupations:
  HONO-2 :    9 Ap 1.9996009
  HONO-1 :   10 Ap 1.9989805
  HONO-0 :   11 Ap 1.0000000
  LUNO+0 :   12 Ap 0.0010195
  LUNO+1 :   13 Ap 0.0003991
  LUNO+2 :    7App 0.0001980
  LUNO+3 :   14 Ap 0.0001971

Computation Completed

Properties will be evaluated at   0.000000,   0.000000,   0.000000 [a0]

Properties computed using the SCF density matrix

  Nuclear Dipole Moment: [e a0]
     X:     0.8272      Y:    -0.0045      Z:     0.0000

  Electronic Dipole Moment: [e a0]
     X:    -0.7493      Y:     0.0044      Z:     0.0000

  Dipole Moment: [e a0]
     X:     0.0779      Y:    -0.0001      Z:     0.0000     Total:     0.0779

  Dipole Moment: [D]
     X:     0.1980      Y:    -0.0004      Z:     0.0000     Total:     0.1980

*** tstop() called on n070 at Fri Nov  5 12:38:49 2021
Module time:
	user time   =     573.72 seconds =       9.56 minutes
	system time =      13.45 seconds =       0.22 minutes
	total time  =        148 seconds =       2.47 minutes
Total time:
	user time   =     573.72 seconds =       9.56 minutes
	system time =      13.45 seconds =       0.22 minutes
	total time  =        148 seconds =       2.47 minutes
Grab this energy -157.81306694446863
    Psi4 stopped on: Friday, 05 November 2021 12:38PM
    Psi4 wall time for execution: 0:02:27.93

*** Psi4 exiting successfully. Buy a developer a beer!
