                               Psi4 1.4a2.dev629

  ==> Input File <==

--------------------------------------------------------------------------
import os
memory 14 GB

molecule {
 C   -0.3233407944   -0.0000012579    0.0002565935
 C    0.0629162416   -1.4019265663   -2.4257657173
 C    0.0610194313    2.8017592725   -0.0023686668
 C    0.0593648173   -1.3998266385    2.4269943972
 H    2.0867630441   -1.6436645870   -2.8476944561
 H   -0.7658354335   -0.3881605590   -4.0254502580
 H   -0.7662515020   -3.2916655030   -2.3492112268
 H    2.0867965251    3.2880988586    0.0008560476
 H   -0.7653116240    3.6801418471    1.6769698819
 H   -0.7659778217    3.6803616739   -1.6760340705
 H    2.0871128534   -1.6445302219    2.8471818371
 H   -0.7648825701   -3.2923291702    2.3487571290
 H   -0.7649810437   -0.3882814619    4.0255085092
units bohr
0 2
}

basis {

assign 6-31g_2dfp_

[ 6-31g_2dfp_ ]

spherical

!----------------------------------------------------------------------
! Basis Set Exchange
! Version v0.8.13
! https://www.basissetexchange.org
!----------------------------------------------------------------------
!   Basis set: 6-31G(2df,p)
! Description: 6-31G(2df,p)
!        Role: orbital
!     Version: 0  (Data from the original Basis Set Exchange)
!----------------------------------------------------------------------

****
H     0
S    3   1.00
     18.7311370              0.03349460
      2.8253937              0.23472695
      0.6401217              0.81375733
S    1   1.00
      0.1612778              1.00000000
P    1   1.00
      1.5000000              1.0000000
P    1   1.00
      0.3750000              1.0000000
****
B     0
S    6   1.00
   2068.8823000              0.0018663
    310.6495700              0.0142515
     70.6830330              0.0695516
     19.8610800              0.2325729
      6.2993048              0.4670787
      2.1270270              0.3634314
SP   3   1.00
      4.7279710             -0.1303938              0.0745976
      1.1903377             -0.1307889              0.3078467
      0.3594117              1.1309444              0.7434568
SP   1   1.00
      0.1267512              1.0000000              1.0000000
D    1   1.00
      0.8020000              1.0000000
D    1   1.00
      0.2005000              1.0000000
F    1   1.00
      0.5000000              1.0000000
****
C     0
S    6   1.00
   3047.5249000              0.0018347
    457.3695100              0.0140373
    103.9486900              0.0688426
     29.2101550              0.2321844
      9.2866630              0.4679413
      3.1639270              0.3623120
SP   3   1.00
      7.8682724             -0.1193324              0.0689991
      1.8812885             -0.1608542              0.3164240
      0.5442493              1.1434564              0.7443083
SP   1   1.00
      0.1687144              1.0000000              1.0000000
D    1   1.00
      1.2520000              1.0000000
D    1   1.00
      0.3130000              1.0000000
F    1   1.00
      0.8000000              1.0000000
****
N     0
S    6   1.00
   4173.5110000              0.0018348
    627.4579000              0.0139950
    142.9021000              0.0685870
     40.2343300              0.2322410
     12.8202100              0.4690700
      4.3904370              0.3604550
SP   3   1.00
     11.6263580             -0.1149610              0.0675800
      2.7162800             -0.1691180              0.3239070
      0.7722180              1.1458520              0.7408950
SP   1   1.00
      0.2120313              1.0000000              1.0000000
D    1   1.00
      1.8260000              1.0000000
D    1   1.00
      0.4565000              1.0000000
F    1   1.00
      1.0000000              1.0000000
****
O     0
S    6   1.00
   5484.6717000              0.0018311
    825.2349500              0.0139501
    188.0469600              0.0684451
     52.9645000              0.2327143
     16.8975700              0.4701930
      5.7996353              0.3585209
SP   3   1.00
     15.5396160             -0.1107775              0.0708743
      3.5999336             -0.1480263              0.3397528
      1.0137618              1.1307670              0.7271586
SP   1   1.00
      0.2700058              1.0000000              1.0000000
D    1   1.00
      2.5840000              1.0000000
D    1   1.00
      0.6460000              1.0000000
F    1   1.00
      1.4000000              1.0000000
****
F     0
S    6   1.00
   7001.7130900              0.0018196169
   1051.3660900              0.0139160796
    239.2856900              0.0684053245
     67.3974453              0.233185760
     21.5199573              0.471267439
      7.40310130             0.356618546
SP   3   1.00
     20.8479528             -0.108506975            0.0716287243
      4.80830834            -0.146451658            0.3459121030
      1.34406986             1.128688580            0.7224699570
SP   1   1.00
      0.358151393            1.0000000              1.0000000
D    1   1.00
      3.5000000              1.0000000
D    1   1.00
      0.8750000              1.0000000
F    1   1.00
      1.8500000              1.0000000
****
Al     0
S    6   1.00
  13983.1000000              0.00194267
   2098.7500000              0.0148599
    477.7050000              0.0728494
    134.3600000              0.2468300
     42.8709000              0.4872580
     14.5189000              0.3234960
SP   6   1.00
    239.6680000             -0.00292619             0.00460285
     57.4419000             -0.0374080              0.0331990
     18.2859000             -0.1144870              0.1362820
      6.5991400              0.1156350              0.3304760
      2.4904900              0.6125950              0.4491460
      0.9445400              0.3937990              0.2657040
SP   3   1.00
      1.2779000             -0.2276060             -0.0175130
      0.3975900              0.00144583             0.2445330
      0.1600950              1.0927900              0.8049340
SP   1   1.00
      0.0556577              1.0000000              1.0000000
D    1   1.00
      0.6500000              1.0000000
D    1   1.00
      0.1625000              1.0000000
F    1   1.00
      0.2500000              1.0000000
****
Si     0
S    6   1.00
  16115.9000000              0.00195948
   2425.5800000              0.01492880
    553.8670000              0.07284780
    156.3400000              0.24613000
     50.0683000              0.48591400
     17.0178000              0.32500200
SP   6   1.00
    292.7180000             -0.00278094             0.00443826
     69.8731000             -0.03571460             0.03266790
     22.3363000             -0.11498500             0.13472100
      8.1503900              0.09356340             0.32867800
      3.1345800              0.60301700             0.44964000
      1.2254300              0.41895900             0.26137200
SP   3   1.00
      1.7273800             -0.24463000            -0.01779510
      0.5729220              0.00431572             0.25353900
      0.2221920              1.09818000             0.80066900
SP   1   1.00
      0.0778369              1.00000000             1.00000000
D    1   1.00
      0.9000000              1.0000000
D    1   1.00
      0.2250000              1.0000000
F    1   1.00
      0.3200000              1.0000000
****
P     0
S    6   1.00
  19413.3000000              0.0018516
   2909.4200000              0.0142062
    661.3640000              0.0699995
    185.7590000              0.2400790
     59.1943000              0.4847620
     20.0310000              0.3352000
SP   6   1.00
    339.4780000             -0.00278217             0.00456462
     81.0101000             -0.0360499              0.03369360
     25.8780000             -0.1166310              0.13975500
      9.4522100              0.0968328              0.33936200
      3.6656600              0.6144180              0.45092100
      1.4674600              0.4037980              0.23858600
SP   3   1.00
      2.1562300             -0.2529230             -0.01776530
      0.7489970              0.0328517              0.27405800
      0.2831450              1.0812500              0.78542100
SP   1   1.00
      0.0998317              1.0000000              1.00000000
D    1   1.00
      1.1000000              1.0000000
D    1   1.00
      0.2750000              1.0000000
F    1   1.00
      0.4500000              1.0000000
****
S     0
S    6   1.00
  21917.1000000              0.0018690
   3301.4900000              0.0142300
    754.1460000              0.0696960
    212.7110000              0.2384870
     67.9896000              0.4833070
     23.0515000              0.3380740
SP   6   1.00
    423.7350000             -0.0023767              0.0040610
    100.7100000             -0.0316930              0.0306810
     32.1599000             -0.1133170              0.1304520
     11.8079000              0.0560900              0.3272050
      4.6311000              0.5922550              0.4528510
      1.8702500              0.4550060              0.2560420
SP   3   1.00
      2.6158400             -0.2503740             -0.0145110
      0.9221670              0.0669570              0.3102630
      0.3412870              1.0545100              0.7544830
SP   1   1.00
      0.1171670              1.0000000              1.0000000
D    1   1.00
      1.3000000              1.0000000
D    1   1.00
      0.3250000              1.0000000
F    1   1.00
      0.5500000              1.0000000
****
Cl     0
S    6   1.00
  25180.1000000              0.0018330
   3780.3500000              0.0140340
    860.4740000              0.0690970
    242.1450000              0.2374520
     77.3349000              0.4830340
     26.2470000              0.3398560
SP   6   1.00
    491.7650000             -0.0022974              0.0039894
    116.9840000             -0.0307140              0.0303180
     37.4153000             -0.1125280              0.1298800
     13.7834000              0.0450160              0.3279510
      5.4521500              0.5893530              0.4535270
      2.2258800              0.4652060              0.2521540
SP   3   1.00
      3.1864900             -0.2518300             -0.0142990
      1.1442700              0.0615890              0.3235720
      0.4203770              1.0601800              0.7435070
SP   1   1.00
      0.1426570              1.0000000              1.0000000
D    1   1.00
      1.5000000              1.0000000
D    1   1.00
      0.3750000              1.0000000
F    1   1.00
      0.7000000              1.0000000
****
}

set {
reference uhf
freeze_core true
e_convergence 10
d_convergence 10
dft_spherical_points 1202
dft_radial_points 99
}

e = energy('b3lyp')

print_out('Grab this energy {0}'.format(e))
--------------------------------------------------------------------------

    Molecular point group: c1

    Geometry (in Bohr), charge = 0, multiplicity = 2:

       Center              X                  Y                   Z               Mass
    ------------   -----------------  -----------------  -----------------  -----------------
         C           -0.323340732892    -0.000001754940     0.000426741432    12.000000000000
         C            0.062916303108    -1.401927063340    -2.425595569368    12.000000000000
         C            0.061019492808     2.801758775460    -0.002198518868    12.000000000000
         C            0.059364878808    -1.399827135540     2.427164545132    12.000000000000
         H            2.086763105608    -1.643665084040    -2.847524308168     1.007825032230
         H           -0.765835371992    -0.388161056040    -4.025280110068     1.007825032230
         H           -0.766251440492    -3.291666000040    -2.349041078868     1.007825032230
         H            2.086796586608     3.288098361560     0.001026195532     1.007825032230
         H           -0.765311562492     3.680141350060     1.677140029832     1.007825032230
         H           -0.765977760192     3.680361176860    -1.675863922568     1.007825032230
         H            2.087112914908    -1.644530718940     2.847351985032     1.007825032230
         H           -0.764882508592    -3.292329667240     2.348927276932     1.007825032230
         H           -0.764980982192    -0.388281958940     4.025678657132     1.007825032230

  Charge       = 0
  Multiplicity = 2
  Basis Set: ANONYMOUSFF987C7E
    Blend: 6-31G_2DFP_
  Basis Set: (ANONYMOUSFF987C7E AUX)
    Blend: DEF2-UNIVERSAL-JKFIT

    Orbital Energies [Eh]
    ---------------------

    Alpha Occupied:

       1A    -10.180342     2A    -10.167051     3A    -10.167020
       4A    -10.166974     5A     -0.797766     6A     -0.686220
       7A     -0.686154     8A     -0.530776     9A     -0.441126
      10A     -0.434772    11A     -0.434570    12A     -0.382750
      13A     -0.382448    14A     -0.363611    15A     -0.338083
      16A     -0.337913    17A     -0.168961

    Alpha Virtual:

      18A      0.076072    19A      0.134122    20A      0.134188
      21A      0.142566    22A      0.142690    23A      0.154879
      24A      0.178665    25A      0.178893    26A      0.203545
      27A      0.214804    28A      0.275930    29A      0.276040
      30A      0.399070    31A      0.399385    32A      0.403347
      33A      0.424049    34A      0.424145    35A      0.456592
      36A      0.495361    37A      0.495418    38A      0.512153
      39A      0.513986    40A      0.578732    41A      0.578904
      42A      0.591513    43A      0.591753    44A      0.602572
      45A      0.624750    46A      0.631788    47A      0.636139
      48A      0.636353    49A      0.663243    50A      0.663582
      51A      0.683705    52A      0.684003    53A      0.734994
      54A      0.825393    55A      0.825421    56A      0.853916
      57A      0.915005    58A      0.915047    59A      0.944125
      60A      0.944615    61A      0.961213    62A      0.961369
      63A      1.003453    64A      1.128004    65A      1.128214
      66A      1.142217    67A      1.163173    68A      1.163366
      69A      1.223321    70A      1.274347    71A      1.274630
      72A      1.279356    73A      1.324101    74A      1.324609
      75A      1.355976    76A      1.365754    77A      1.366364
      78A      1.392461    79A      1.403937    80A      1.404177
      81A      1.416813    82A      1.417400    83A      1.427905
      84A      1.491454    85A      1.499127    86A      1.542781
      87A      1.542867    88A      1.574299    89A      1.574608
      90A      1.669826    91A      1.739012    92A      1.739824
      93A      1.768332    94A      1.831196    95A      1.831589
      96A      1.971731    97A      2.018172    98A      2.018537
      99A      2.019687   100A      2.052266   101A      2.053011
     102A      2.738445   103A      2.738524   104A      2.790918
     105A      2.811434   106A      2.889679   107A      2.890224
     108A      2.894941   109A      2.929467   110A      2.929530
     111A      2.958998   112A      2.964272   113A      2.964482
     114A      3.034009   115A      3.071162   116A      3.071401
     117A      3.084354   118A      3.168662   119A      3.168905
     120A      3.180586   121A      3.285279   122A      3.285348
     123A      3.327009   124A      3.327318   125A      3.375619
     126A      3.489853   127A      3.490473   128A      3.513987
     129A      3.525351   130A      3.568278   131A      3.568497
     132A      3.575148   133A      3.666088   134A      3.666680
     135A      3.679651   136A      3.694110   137A      3.694145
     138A      3.776762   139A      3.776858   140A      3.789117
     141A      3.912140   142A      3.912302   143A      4.034456
     144A      4.111285   145A      4.111464   146A      4.148072
     147A      4.148186   148A      4.173241   149A      4.202463
     150A      4.202982   151A      4.203334   152A      4.210851
     153A      4.315519   154A      4.316379   155A      4.358984
     156A      4.424329   157A      4.424575   158A      4.443412
     159A      4.515795   160A      4.517901   161A      4.578067
     162A      4.578488   163A      4.617532   164A      4.709451
     165A      4.774082   166A      4.775103   167A      4.836915
     168A      4.962863   169A      5.002486   170A      5.003392
     171A      5.228050   172A      5.246794   173A      5.246837
     174A      5.355240   175A      5.355773   176A      5.479352

    Beta Occupied:

       1A    -10.167807     2A    -10.167776     3A    -10.167741
       4A    -10.166519     5A     -0.781091     6A     -0.684022
       7A     -0.683956     8A     -0.511747     9A     -0.431149
      10A     -0.430937    11A     -0.421822    12A     -0.376843
      13A     -0.376524    14A     -0.362595    15A     -0.333207
      16A     -0.333035

    Beta Virtual:

      17A     -0.025742    18A      0.077081    19A      0.135020
      20A      0.135070    21A      0.144441    22A      0.144557
      23A      0.163338    24A      0.182335    25A      0.182566
      26A      0.215027    27A      0.218935    28A      0.282281
      29A      0.282385    30A      0.400239    31A      0.400557
      32A      0.419791    33A      0.426857    34A      0.426959
      35A      0.468500    36A      0.497625    37A      0.497675
      38A      0.513895    39A      0.556325    40A      0.584286
      41A      0.584449    42A      0.597688    43A      0.597937
      44A      0.609995    45A      0.628119    46A      0.631950
      47A      0.639425    48A      0.639640    49A      0.666822
      50A      0.667130    51A      0.686337    52A      0.686640
      53A      0.757518    54A      0.830564    55A      0.830587
      56A      0.855270    57A      0.922978    58A      0.923017
      59A      0.945963    60A      0.953543    61A      0.966512
      62A      0.966682    63A      1.008693    64A      1.131995
      65A      1.132279    66A      1.155597    67A      1.168294
      68A      1.168391    69A      1.232294    70A      1.279940
      71A      1.280232    72A      1.285108    73A      1.329080
      74A      1.329608    75A      1.365389    76A      1.370996
      77A      1.371608    78A      1.393522    79A      1.407389
      80A      1.407656    81A      1.421880    82A      1.422435
      83A      1.428174    84A      1.492521    85A      1.509550
      86A      1.547204    87A      1.547259    88A      1.582225
      89A      1.582426    90A      1.674672    91A      1.744781
      92A      1.745579    93A      1.779111    94A      1.835052
      95A      1.835445    96A      1.972591    97A      2.024811
      98A      2.026083    99A      2.039682   100A      2.059006
     101A      2.059698   102A      2.746786   103A      2.746855
     104A      2.811804   105A      2.816095   106A      2.902376
     107A      2.902903   108A      2.924651   109A      2.931950
     110A      2.932008   111A      2.960060   112A      2.968820
     113A      2.969022   114A      3.041944   115A      3.081073
     116A      3.081300   117A      3.086181   118A      3.184433
     119A      3.184633   120A      3.188270   121A      3.290087
     122A      3.290136   123A      3.330800   124A      3.331136
     125A      3.383437   126A      3.492584   127A      3.493202
     128A      3.512358   129A      3.528388   130A      3.575006
     131A      3.581681   132A      3.581776   133A      3.670893
     134A      3.671368   135A      3.692947   136A      3.725615
     137A      3.725907   138A      3.781297   139A      3.781373
     140A      3.817663   141A      3.921940   142A      3.922135
     143A      4.045343   144A      4.118153   145A      4.118227
     146A      4.155235   147A      4.155438   148A      4.187303
     149A      4.208802   150A      4.209158   151A      4.210662
     152A      4.215324   153A      4.322934   154A      4.323843
     155A      4.362348   156A      4.432555   157A      4.432780
     158A      4.446294   159A      4.523589   160A      4.525687
     161A      4.588684   162A      4.589076   163A      4.624724
     164A      4.719795   165A      4.781054   166A      4.782038
     167A      4.839832   168A      4.967658   169A      5.006543
     170A      5.007414   171A      5.233766   172A      5.248578
     173A      5.248621   174A      5.361721   175A      5.362252
     176A      5.481674

    Final Occupation by Irrep:
              A
    DOCC [    16 ]
    SOCC [     1 ]

  @DF-UKS Final Energy:  -157.81306945271342

   => Energetics <=

    Nuclear Repulsion Energy =            125.3946059218479405
    One-Electron Energy =                -458.7488769377741846
    Two-Electron Energy =                 195.8483440462272540
    DFT Exchange-Correlation Energy =     -20.3071424830144238
    Empirical Dispersion Energy =           0.0000000000000000
    VV10 Nonlocal Energy =                  0.0000000000000000
    Total Energy =                       -157.8130694527134210

  UHF NO Occupations:
  HONO-2 :   15  A 1.9996009
  HONO-1 :   16  A 1.9989805
  HONO-0 :   17  A 1.0000000
  LUNO+0 :   18  A 0.0010195
  LUNO+1 :   19  A 0.0003991
  LUNO+2 :   20  A 0.0001977
  LUNO+3 :   21  A 0.0001974

Computation Completed

Properties will be evaluated at   0.000000,   0.000000,   0.000000 [a0]

Properties computed using the SCF density matrix

  Nuclear Dipole Moment: [e a0]
     X:     0.8272      Y:    -0.0000      Z:     0.0012

  Electronic Dipole Moment: [e a0]
     X:    -0.7493      Y:     0.0000      Z:    -0.0011

  Dipole Moment: [e a0]
     X:     0.0779      Y:    -0.0000      Z:     0.0001     Total:     0.0779

  Dipole Moment: [D]
     X:     0.1980      Y:    -0.0000      Z:     0.0003     Total:     0.1980

*** tstop() called on n023 at Fri Nov  5 12:14:31 2021
Module time:
	user time   =     637.34 seconds =      10.62 minutes
	system time =      12.10 seconds =       0.20 minutes
	total time  =        163 seconds =       2.72 minutes
Total time:
	user time   =     637.34 seconds =      10.62 minutes
	system time =      12.10 seconds =       0.20 minutes
	total time  =        163 seconds =       2.72 minutes
Grab this energy -157.81306945271342
    Psi4 stopped on: Friday, 05 November 2021 12:14PM
    Psi4 wall time for execution: 0:02:43.26

*** Psi4 exiting successfully. Buy a developer a beer!
