                               Psi4 1.4a2.dev629

  ==> Input File <==

--------------------------------------------------------------------------
import os
memory 14 GB

molecule {
 C   -0.3233385507   -0.0004354226   -0.0010213357
 C    0.0619441383   -1.4025012240   -2.4249873410
 C    0.0607100123    2.8018645167    0.0018020066
 C    0.0606481555   -1.4012831647    2.4264793559
 H    2.0864118667   -1.6464596145   -2.8461784702
 H   -0.7681194679   -0.3863430913   -4.0274068419
 H   -0.7628750256   -3.2900375738   -2.3492572453
 H    2.0877084007    3.2880904764   -0.0007006789
 H   -0.7661419490    3.6804877809    1.6753033154
 H   -0.7658481554    3.6803094227   -1.6758670178
 H    2.0865513242   -1.6469831456    2.8456838985
 H   -0.7623619055   -3.2903093466    2.3488415042
 H   -0.7678967204   -0.3864239272    4.0273088502
units bohr
0 2
}

basis {

assign 6-31g_2dfp_

[ 6-31g_2dfp_ ]

spherical

!----------------------------------------------------------------------
! Basis Set Exchange
! Version v0.8.13
! https://www.basissetexchange.org
!----------------------------------------------------------------------
!   Basis set: 6-31G(2df,p)
! Description: 6-31G(2df,p)
!        Role: orbital
!     Version: 0  (Data from the original Basis Set Exchange)
!----------------------------------------------------------------------

****
H     0
S    3   1.00
     18.7311370              0.03349460
      2.8253937              0.23472695
      0.6401217              0.81375733
S    1   1.00
      0.1612778              1.00000000
P    1   1.00
      1.5000000              1.0000000
P    1   1.00
      0.3750000              1.0000000
****
B     0
S    6   1.00
   2068.8823000              0.0018663
    310.6495700              0.0142515
     70.6830330              0.0695516
     19.8610800              0.2325729
      6.2993048              0.4670787
      2.1270270              0.3634314
SP   3   1.00
      4.7279710             -0.1303938              0.0745976
      1.1903377             -0.1307889              0.3078467
      0.3594117              1.1309444              0.7434568
SP   1   1.00
      0.1267512              1.0000000              1.0000000
D    1   1.00
      0.8020000              1.0000000
D    1   1.00
      0.2005000              1.0000000
F    1   1.00
      0.5000000              1.0000000
****
C     0
S    6   1.00
   3047.5249000              0.0018347
    457.3695100              0.0140373
    103.9486900              0.0688426
     29.2101550              0.2321844
      9.2866630              0.4679413
      3.1639270              0.3623120
SP   3   1.00
      7.8682724             -0.1193324              0.0689991
      1.8812885             -0.1608542              0.3164240
      0.5442493              1.1434564              0.7443083
SP   1   1.00
      0.1687144              1.0000000              1.0000000
D    1   1.00
      1.2520000              1.0000000
D    1   1.00
      0.3130000              1.0000000
F    1   1.00
      0.8000000              1.0000000
****
N     0
S    6   1.00
   4173.5110000              0.0018348
    627.4579000              0.0139950
    142.9021000              0.0685870
     40.2343300              0.2322410
     12.8202100              0.4690700
      4.3904370              0.3604550
SP   3   1.00
     11.6263580             -0.1149610              0.0675800
      2.7162800             -0.1691180              0.3239070
      0.7722180              1.1458520              0.7408950
SP   1   1.00
      0.2120313              1.0000000              1.0000000
D    1   1.00
      1.8260000              1.0000000
D    1   1.00
      0.4565000              1.0000000
F    1   1.00
      1.0000000              1.0000000
****
O     0
S    6   1.00
   5484.6717000              0.0018311
    825.2349500              0.0139501
    188.0469600              0.0684451
     52.9645000              0.2327143
     16.8975700              0.4701930
      5.7996353              0.3585209
SP   3   1.00
     15.5396160             -0.1107775              0.0708743
      3.5999336             -0.1480263              0.3397528
      1.0137618              1.1307670              0.7271586
SP   1   1.00
      0.2700058              1.0000000              1.0000000
D    1   1.00
      2.5840000              1.0000000
D    1   1.00
      0.6460000              1.0000000
F    1   1.00
      1.4000000              1.0000000
****
F     0
S    6   1.00
   7001.7130900              0.0018196169
   1051.3660900              0.0139160796
    239.2856900              0.0684053245
     67.3974453              0.233185760
     21.5199573              0.471267439
      7.40310130             0.356618546
SP   3   1.00
     20.8479528             -0.108506975            0.0716287243
      4.80830834            -0.146451658            0.3459121030
      1.34406986             1.128688580            0.7224699570
SP   1   1.00
      0.358151393            1.0000000              1.0000000
D    1   1.00
      3.5000000              1.0000000
D    1   1.00
      0.8750000              1.0000000
F    1   1.00
      1.8500000              1.0000000
****
Al     0
S    6   1.00
  13983.1000000              0.00194267
   2098.7500000              0.0148599
    477.7050000              0.0728494
    134.3600000              0.2468300
     42.8709000              0.4872580
     14.5189000              0.3234960
SP   6   1.00
    239.6680000             -0.00292619             0.00460285
     57.4419000             -0.0374080              0.0331990
     18.2859000             -0.1144870              0.1362820
      6.5991400              0.1156350              0.3304760
      2.4904900              0.6125950              0.4491460
      0.9445400              0.3937990              0.2657040
SP   3   1.00
      1.2779000             -0.2276060             -0.0175130
      0.3975900              0.00144583             0.2445330
      0.1600950              1.0927900              0.8049340
SP   1   1.00
      0.0556577              1.0000000              1.0000000
D    1   1.00
      0.6500000              1.0000000
D    1   1.00
      0.1625000              1.0000000
F    1   1.00
      0.2500000              1.0000000
****
Si     0
S    6   1.00
  16115.9000000              0.00195948
   2425.5800000              0.01492880
    553.8670000              0.07284780
    156.3400000              0.24613000
     50.0683000              0.48591400
     17.0178000              0.32500200
SP   6   1.00
    292.7180000             -0.00278094             0.00443826
     69.8731000             -0.03571460             0.03266790
     22.3363000             -0.11498500             0.13472100
      8.1503900              0.09356340             0.32867800
      3.1345800              0.60301700             0.44964000
      1.2254300              0.41895900             0.26137200
SP   3   1.00
      1.7273800             -0.24463000            -0.01779510
      0.5729220              0.00431572             0.25353900
      0.2221920              1.09818000             0.80066900
SP   1   1.00
      0.0778369              1.00000000             1.00000000
D    1   1.00
      0.9000000              1.0000000
D    1   1.00
      0.2250000              1.0000000
F    1   1.00
      0.3200000              1.0000000
****
P     0
S    6   1.00
  19413.3000000              0.0018516
   2909.4200000              0.0142062
    661.3640000              0.0699995
    185.7590000              0.2400790
     59.1943000              0.4847620
     20.0310000              0.3352000
SP   6   1.00
    339.4780000             -0.00278217             0.00456462
     81.0101000             -0.0360499              0.03369360
     25.8780000             -0.1166310              0.13975500
      9.4522100              0.0968328              0.33936200
      3.6656600              0.6144180              0.45092100
      1.4674600              0.4037980              0.23858600
SP   3   1.00
      2.1562300             -0.2529230             -0.01776530
      0.7489970              0.0328517              0.27405800
      0.2831450              1.0812500              0.78542100
SP   1   1.00
      0.0998317              1.0000000              1.00000000
D    1   1.00
      1.1000000              1.0000000
D    1   1.00
      0.2750000              1.0000000
F    1   1.00
      0.4500000              1.0000000
****
S     0
S    6   1.00
  21917.1000000              0.0018690
   3301.4900000              0.0142300
    754.1460000              0.0696960
    212.7110000              0.2384870
     67.9896000              0.4833070
     23.0515000              0.3380740
SP   6   1.00
    423.7350000             -0.0023767              0.0040610
    100.7100000             -0.0316930              0.0306810
     32.1599000             -0.1133170              0.1304520
     11.8079000              0.0560900              0.3272050
      4.6311000              0.5922550              0.4528510
      1.8702500              0.4550060              0.2560420
SP   3   1.00
      2.6158400             -0.2503740             -0.0145110
      0.9221670              0.0669570              0.3102630
      0.3412870              1.0545100              0.7544830
SP   1   1.00
      0.1171670              1.0000000              1.0000000
D    1   1.00
      1.3000000              1.0000000
D    1   1.00
      0.3250000              1.0000000
F    1   1.00
      0.5500000              1.0000000
****
Cl     0
S    6   1.00
  25180.1000000              0.0018330
   3780.3500000              0.0140340
    860.4740000              0.0690970
    242.1450000              0.2374520
     77.3349000              0.4830340
     26.2470000              0.3398560
SP   6   1.00
    491.7650000             -0.0022974              0.0039894
    116.9840000             -0.0307140              0.0303180
     37.4153000             -0.1125280              0.1298800
     13.7834000              0.0450160              0.3279510
      5.4521500              0.5893530              0.4535270
      2.2258800              0.4652060              0.2521540
SP   3   1.00
      3.1864900             -0.2518300             -0.0142990
      1.1442700              0.0615890              0.3235720
      0.4203770              1.0601800              0.7435070
SP   1   1.00
      0.1426570              1.0000000              1.0000000
D    1   1.00
      1.5000000              1.0000000
D    1   1.00
      0.3750000              1.0000000
F    1   1.00
      0.7000000              1.0000000
****
}

set {
reference uhf
freeze_core true
e_convergence 10
d_convergence 10
dft_spherical_points 1202
dft_radial_points 99
}

e = energy('b3lyp')

print_out('Grab this energy {0}'.format(e))
--------------------------------------------------------------------------

    Molecular point group: c1

    Geometry (in Bohr), charge = 0, multiplicity = 2:

       Center              X                  Y                   Z               Mass
    ------------   -----------------  -----------------  -----------------  -----------------
         C           -0.323339271096     0.000018653466    -0.001459071354    12.000000000000
         C            0.061943417904    -1.402047147934    -2.425425076654    12.000000000000
         C            0.060709291904     2.802318592766     0.001364270946    12.000000000000
         C            0.060647435104    -1.400829088634     2.426041620246    12.000000000000
         H            2.086411146304    -1.646005538434    -2.846616205854     1.007825032230
         H           -0.768120188296    -0.385889015234    -4.027844577554     1.007825032230
         H           -0.762875745996    -3.289583497734    -2.349694980954     1.007825032230
         H            2.087707680304     3.288544552466    -0.001138414554     1.007825032230
         H           -0.766142669396     3.680941856966     1.674865579746     1.007825032230
         H           -0.765848875796     3.680763498766    -1.676304753454     1.007825032230
         H            2.086550603804    -1.646529069534     2.845246162846     1.007825032230
         H           -0.762362625896    -3.289855270534     2.348403768546     1.007825032230
         H           -0.767897440796    -0.385969851134     4.026871114546     1.007825032230

  Charge       = 0
  Multiplicity = 2
  Basis Set: ANONYMOUS3C602BBF
    Blend: 6-31G_2DFP_
  Basis Set: (ANONYMOUS3C602BBF AUX)
    Blend: DEF2-UNIVERSAL-JKFIT

    Orbital Energies [Eh]
    ---------------------

    Alpha Occupied:

       1A    -10.180342     2A    -10.167052     3A    -10.167017
       4A    -10.166976     5A     -0.797766     6A     -0.686287
       7A     -0.686088     8A     -0.530778     9A     -0.441127
      10A     -0.434858    11A     -0.434480    12A     -0.382644
      13A     -0.382555    14A     -0.363610    15A     -0.338334
      16A     -0.337663    17A     -0.168961

    Alpha Virtual:

      18A      0.076070    19A      0.134034    20A      0.134273
      21A      0.142411    22A      0.142843    23A      0.154883
      24A      0.178672    25A      0.178884    26A      0.203547
      27A      0.214804    28A      0.275819    29A      0.276153
      30A      0.398961    31A      0.399494    32A      0.403344
      33A      0.423936    34A      0.424259    35A      0.456593
      36A      0.495328    37A      0.495452    38A      0.512161
      39A      0.513979    40A      0.578742    41A      0.578892
      42A      0.591488    43A      0.591775    44A      0.602571
      45A      0.624713    46A      0.631763    47A      0.636024
      48A      0.636532    49A      0.663183    50A      0.663641
      51A      0.683667    52A      0.684057    53A      0.734994
      54A      0.825157    55A      0.825656    56A      0.853915
      57A      0.914784    58A      0.915267    59A      0.944125
      60A      0.944607    61A      0.961180    62A      0.961407
      63A      1.003455    64A      1.127839    65A      1.128388
      66A      1.142212    67A      1.163218    68A      1.163325
      69A      1.223323    70A      1.274184    71A      1.274789
      72A      1.279358    73A      1.324134    74A      1.324570
      75A      1.355989    76A      1.365676    77A      1.366430
      78A      1.392429    79A      1.403806    80A      1.404302
      81A      1.416360    82A      1.417867    83A      1.427909
      84A      1.491497    85A      1.499073    86A      1.542669
      87A      1.543004    88A      1.574069    89A      1.574834
      90A      1.669822    91A      1.738695    92A      1.740123
      93A      1.768342    94A      1.830602    95A      1.832178
      96A      1.971750    97A      2.017510    98A      2.018874
      99A      2.020001   100A      2.051849   101A      2.053450
     102A      2.738297   103A      2.738672   104A      2.790924
     105A      2.811427   106A      2.889265   107A      2.890641
     108A      2.894937   109A      2.929328   110A      2.929668
     111A      2.958961   112A      2.964084   113A      2.964713
     114A      3.034010   115A      3.070651   116A      3.071862
     117A      3.084432   118A      3.168341   119A      3.169199
     120A      3.180610   121A      3.285040   122A      3.285580
     123A      3.326774   124A      3.327549   125A      3.375629
     126A      3.489872   127A      3.490450   128A      3.514019
     129A      3.525328   130A      3.567933   131A      3.568843
     132A      3.575126   133A      3.665853   134A      3.666921
     135A      3.679676   136A      3.693885   137A      3.694387
     138A      3.776664   139A      3.776925   140A      3.789126
     141A      3.911543   142A      3.912898   143A      4.034448
     144A      4.110774   145A      4.111901   146A      4.147774
     147A      4.148396   148A      4.173341   149A      4.202113
     150A      4.202713   151A      4.203909   152A      4.210962
     153A      4.314945   154A      4.316986   155A      4.358970
     156A      4.423638   157A      4.425240   158A      4.443478
     159A      4.515770   160A      4.517908   161A      4.577988
     162A      4.578552   163A      4.617544   164A      4.709436
     165A      4.773621   166A      4.775594   167A      4.836916
     168A      4.962863   169A      5.002488   170A      5.003426
     171A      5.227577   172A      5.246660   173A      5.247382
     174A      5.354275   175A      5.356765   176A      5.479416

    Beta Occupied:

       1A    -10.167808     2A    -10.167771     3A    -10.167745
       4A    -10.166519     5A     -0.781091     6A     -0.684089
       7A     -0.683892     8A     -0.511750     9A     -0.431232
      10A     -0.430853    11A     -0.421820    12A     -0.376735
      13A     -0.376635    14A     -0.362593    15A     -0.333454
      16A     -0.332789

    Beta Virtual:

      17A     -0.025742    18A      0.077079    19A      0.134896
      20A      0.135191    21A      0.144261    22A      0.144735
      23A      0.163340    24A      0.182349    25A      0.182549
      26A      0.215034    27A      0.218930    28A      0.282178
      29A      0.282490    30A      0.400126    31A      0.400669
      32A      0.419788    33A      0.426748    34A      0.427071
      35A      0.468501    36A      0.497586    37A      0.497715
      38A      0.513896    39A      0.556325    40A      0.584294
      41A      0.584440    42A      0.597641    43A      0.597980
      44A      0.609995    45A      0.628093    46A      0.631923
      47A      0.639325    48A      0.639796    49A      0.666758
      50A      0.667194    51A      0.686323    52A      0.686669
      53A      0.757518    54A      0.830337    55A      0.830813
      56A      0.855268    57A      0.922773    58A      0.923221
      59A      0.945961    60A      0.953534    61A      0.966476
      62A      0.966725    63A      1.008696    64A      1.131872
      65A      1.132412    66A      1.155583    67A      1.168299
      68A      1.168398    69A      1.232295    70A      1.279751
      71A      1.280413    72A      1.285114    73A      1.329122
      74A      1.329561    75A      1.365405    76A      1.370948
      77A      1.371644    78A      1.393490    79A      1.407256
      80A      1.407781    81A      1.421463    82A      1.422860
      83A      1.428181    84A      1.492547    85A      1.509517
      86A      1.547062    87A      1.547429    88A      1.581947
      89A      1.582695    90A      1.674670    91A      1.744445
      92A      1.745900    93A      1.779117    94A      1.834452
      95A      1.836038    96A      1.972611    97A      2.024734
      98A      2.026123    99A      2.039692   100A      2.058546
     101A      2.060196   102A      2.746623   103A      2.747017
     104A      2.811839   105A      2.816059   106A      2.901955
     107A      2.903325   108A      2.924644   109A      2.931778
     110A      2.932183   111A      2.960037   112A      2.968637
     113A      2.969235   114A      3.041944   115A      3.080452
     116A      3.081772   117A      3.086358   118A      3.184100
     119A      3.184899   120A      3.188333   121A      3.289856
     122A      3.290362   123A      3.330543   124A      3.331388
     125A      3.383448   126A      3.492612   127A      3.493169
     128A      3.512383   129A      3.528373   130A      3.574973
     131A      3.581202   132A      3.582268   133A      3.670660
     134A      3.671620   135A      3.692971   136A      3.725578
     137A      3.725944   138A      3.781157   139A      3.781492
     140A      3.817665   141A      3.921292   142A      3.922781
     143A      4.045336   144A      4.117393   145A      4.118917
     146A      4.154798   147A      4.155803   148A      4.187378
     149A      4.208112   150A      4.209819   151A      4.210642
     152A      4.215445   153A      4.322388   154A      4.324428
     155A      4.362332   156A      4.431853   157A      4.433441
     158A      4.446374   159A      4.523555   160A      4.525702
     161A      4.588610   162A      4.589133   163A      4.624736
     164A      4.719781   165A      4.780605   166A      4.782518
     167A      4.839833   168A      4.967657   169A      5.006528
     170A      5.007464   171A      5.233186   172A      5.248473
     173A      5.249249   174A      5.360763   175A      5.363231
     176A      5.481738

    Final Occupation by Irrep:
              A
    DOCC [    16 ]
    SOCC [     1 ]

  @DF-UKS Final Energy:  -157.81305874717069

   => Energetics <=

    Nuclear Repulsion Energy =            125.3946496300825970
    One-Electron Energy =                -458.7489311595259096
    Two-Electron Energy =                 195.8483690548299592
    DFT Exchange-Correlation Energy =     -20.3071462725573362
    Empirical Dispersion Energy =           0.0000000000000000
    VV10 Nonlocal Energy =                  0.0000000000000000
    Total Energy =                       -157.8130587471706860

  UHF NO Occupations:
  HONO-2 :   15  A 1.9996009
  HONO-1 :   16  A 1.9989805
  HONO-0 :   17  A 1.0000000
  LUNO+0 :   18  A 0.0010195
  LUNO+1 :   19  A 0.0003991
  LUNO+2 :   20  A 0.0001980
  LUNO+3 :   21  A 0.0001971

Computation Completed

Properties will be evaluated at   0.000000,   0.000000,   0.000000 [a0]

Properties computed using the SCF density matrix

  Nuclear Dipole Moment: [e a0]
     X:     0.8272      Y:     0.0032      Z:    -0.0031

  Electronic Dipole Moment: [e a0]
     X:    -0.7493      Y:    -0.0049      Z:     0.0030

  Dipole Moment: [e a0]
     X:     0.0779      Y:    -0.0017      Z:    -0.0000     Total:     0.0779

  Dipole Moment: [D]
     X:     0.1980      Y:    -0.0044      Z:    -0.0001     Total:     0.1981

*** tstop() called on n054 at Fri Nov  5 12:04:37 2021
Module time:
	user time   =     541.87 seconds =       9.03 minutes
	system time =      12.13 seconds =       0.20 minutes
	total time  =        139 seconds =       2.32 minutes
Total time:
	user time   =     541.87 seconds =       9.03 minutes
	system time =      12.13 seconds =       0.20 minutes
	total time  =        139 seconds =       2.32 minutes
Grab this energy -157.8130587471707
    Psi4 stopped on: Friday, 05 November 2021 12:04PM
    Psi4 wall time for execution: 0:02:19.42

*** Psi4 exiting successfully. Buy a developer a beer!
