                               Psi4 1.4a2.dev629

  ==> Input File <==

--------------------------------------------------------------------------
import os
memory 14 GB

molecule {
 C   -0.3265096733   -0.0000021225    0.0000000190
 C    0.0598137822   -1.4016581751   -2.4261371371
 C    0.0596939290    2.8019387576   -0.0007977761
 C    0.0598137083   -1.4002763965    2.4269349267
 H    2.0872691022   -1.6456003193   -2.8468788002
 H   -0.7650552323   -0.3864126198   -4.0211234128
 H   -0.7638677076   -3.2953128695   -2.3519135585
 H    2.0871300811    3.2883669867   -0.0015824724
 H   -0.7652960618    3.6755755222    1.6758874492
 H   -0.7639456248    3.6844447358   -1.6779065321
 H    2.0872689139   -1.6428590230    2.8484604236
 H   -0.7652186401   -3.2891299104    2.3452426900
 H   -0.7637044534   -0.3890988797    4.0298141807
units bohr
0 2
}

basis {

assign 6-31g_2dfp_

[ 6-31g_2dfp_ ]

spherical

!----------------------------------------------------------------------
! Basis Set Exchange
! Version v0.8.13
! https://www.basissetexchange.org
!----------------------------------------------------------------------
!   Basis set: 6-31G(2df,p)
! Description: 6-31G(2df,p)
!        Role: orbital
!     Version: 0  (Data from the original Basis Set Exchange)
!----------------------------------------------------------------------

****
H     0
S    3   1.00
     18.7311370              0.03349460
      2.8253937              0.23472695
      0.6401217              0.81375733
S    1   1.00
      0.1612778              1.00000000
P    1   1.00
      1.5000000              1.0000000
P    1   1.00
      0.3750000              1.0000000
****
B     0
S    6   1.00
   2068.8823000              0.0018663
    310.6495700              0.0142515
     70.6830330              0.0695516
     19.8610800              0.2325729
      6.2993048              0.4670787
      2.1270270              0.3634314
SP   3   1.00
      4.7279710             -0.1303938              0.0745976
      1.1903377             -0.1307889              0.3078467
      0.3594117              1.1309444              0.7434568
SP   1   1.00
      0.1267512              1.0000000              1.0000000
D    1   1.00
      0.8020000              1.0000000
D    1   1.00
      0.2005000              1.0000000
F    1   1.00
      0.5000000              1.0000000
****
C     0
S    6   1.00
   3047.5249000              0.0018347
    457.3695100              0.0140373
    103.9486900              0.0688426
     29.2101550              0.2321844
      9.2866630              0.4679413
      3.1639270              0.3623120
SP   3   1.00
      7.8682724             -0.1193324              0.0689991
      1.8812885             -0.1608542              0.3164240
      0.5442493              1.1434564              0.7443083
SP   1   1.00
      0.1687144              1.0000000              1.0000000
D    1   1.00
      1.2520000              1.0000000
D    1   1.00
      0.3130000              1.0000000
F    1   1.00
      0.8000000              1.0000000
****
N     0
S    6   1.00
   4173.5110000              0.0018348
    627.4579000              0.0139950
    142.9021000              0.0685870
     40.2343300              0.2322410
     12.8202100              0.4690700
      4.3904370              0.3604550
SP   3   1.00
     11.6263580             -0.1149610              0.0675800
      2.7162800             -0.1691180              0.3239070
      0.7722180              1.1458520              0.7408950
SP   1   1.00
      0.2120313              1.0000000              1.0000000
D    1   1.00
      1.8260000              1.0000000
D    1   1.00
      0.4565000              1.0000000
F    1   1.00
      1.0000000              1.0000000
****
O     0
S    6   1.00
   5484.6717000              0.0018311
    825.2349500              0.0139501
    188.0469600              0.0684451
     52.9645000              0.2327143
     16.8975700              0.4701930
      5.7996353              0.3585209
SP   3   1.00
     15.5396160             -0.1107775              0.0708743
      3.5999336             -0.1480263              0.3397528
      1.0137618              1.1307670              0.7271586
SP   1   1.00
      0.2700058              1.0000000              1.0000000
D    1   1.00
      2.5840000              1.0000000
D    1   1.00
      0.6460000              1.0000000
F    1   1.00
      1.4000000              1.0000000
****
F     0
S    6   1.00
   7001.7130900              0.0018196169
   1051.3660900              0.0139160796
    239.2856900              0.0684053245
     67.3974453              0.233185760
     21.5199573              0.471267439
      7.40310130             0.356618546
SP   3   1.00
     20.8479528             -0.108506975            0.0716287243
      4.80830834            -0.146451658            0.3459121030
      1.34406986             1.128688580            0.7224699570
SP   1   1.00
      0.358151393            1.0000000              1.0000000
D    1   1.00
      3.5000000              1.0000000
D    1   1.00
      0.8750000              1.0000000
F    1   1.00
      1.8500000              1.0000000
****
Al     0
S    6   1.00
  13983.1000000              0.00194267
   2098.7500000              0.0148599
    477.7050000              0.0728494
    134.3600000              0.2468300
     42.8709000              0.4872580
     14.5189000              0.3234960
SP   6   1.00
    239.6680000             -0.00292619             0.00460285
     57.4419000             -0.0374080              0.0331990
     18.2859000             -0.1144870              0.1362820
      6.5991400              0.1156350              0.3304760
      2.4904900              0.6125950              0.4491460
      0.9445400              0.3937990              0.2657040
SP   3   1.00
      1.2779000             -0.2276060             -0.0175130
      0.3975900              0.00144583             0.2445330
      0.1600950              1.0927900              0.8049340
SP   1   1.00
      0.0556577              1.0000000              1.0000000
D    1   1.00
      0.6500000              1.0000000
D    1   1.00
      0.1625000              1.0000000
F    1   1.00
      0.2500000              1.0000000
****
Si     0
S    6   1.00
  16115.9000000              0.00195948
   2425.5800000              0.01492880
    553.8670000              0.07284780
    156.3400000              0.24613000
     50.0683000              0.48591400
     17.0178000              0.32500200
SP   6   1.00
    292.7180000             -0.00278094             0.00443826
     69.8731000             -0.03571460             0.03266790
     22.3363000             -0.11498500             0.13472100
      8.1503900              0.09356340             0.32867800
      3.1345800              0.60301700             0.44964000
      1.2254300              0.41895900             0.26137200
SP   3   1.00
      1.7273800             -0.24463000            -0.01779510
      0.5729220              0.00431572             0.25353900
      0.2221920              1.09818000             0.80066900
SP   1   1.00
      0.0778369              1.00000000             1.00000000
D    1   1.00
      0.9000000              1.0000000
D    1   1.00
      0.2250000              1.0000000
F    1   1.00
      0.3200000              1.0000000
****
P     0
S    6   1.00
  19413.3000000              0.0018516
   2909.4200000              0.0142062
    661.3640000              0.0699995
    185.7590000              0.2400790
     59.1943000              0.4847620
     20.0310000              0.3352000
SP   6   1.00
    339.4780000             -0.00278217             0.00456462
     81.0101000             -0.0360499              0.03369360
     25.8780000             -0.1166310              0.13975500
      9.4522100              0.0968328              0.33936200
      3.6656600              0.6144180              0.45092100
      1.4674600              0.4037980              0.23858600
SP   3   1.00
      2.1562300             -0.2529230             -0.01776530
      0.7489970              0.0328517              0.27405800
      0.2831450              1.0812500              0.78542100
SP   1   1.00
      0.0998317              1.0000000              1.00000000
D    1   1.00
      1.1000000              1.0000000
D    1   1.00
      0.2750000              1.0000000
F    1   1.00
      0.4500000              1.0000000
****
S     0
S    6   1.00
  21917.1000000              0.0018690
   3301.4900000              0.0142300
    754.1460000              0.0696960
    212.7110000              0.2384870
     67.9896000              0.4833070
     23.0515000              0.3380740
SP   6   1.00
    423.7350000             -0.0023767              0.0040610
    100.7100000             -0.0316930              0.0306810
     32.1599000             -0.1133170              0.1304520
     11.8079000              0.0560900              0.3272050
      4.6311000              0.5922550              0.4528510
      1.8702500              0.4550060              0.2560420
SP   3   1.00
      2.6158400             -0.2503740             -0.0145110
      0.9221670              0.0669570              0.3102630
      0.3412870              1.0545100              0.7544830
SP   1   1.00
      0.1171670              1.0000000              1.0000000
D    1   1.00
      1.3000000              1.0000000
D    1   1.00
      0.3250000              1.0000000
F    1   1.00
      0.5500000              1.0000000
****
Cl     0
S    6   1.00
  25180.1000000              0.0018330
   3780.3500000              0.0140340
    860.4740000              0.0690970
    242.1450000              0.2374520
     77.3349000              0.4830340
     26.2470000              0.3398560
SP   6   1.00
    491.7650000             -0.0022974              0.0039894
    116.9840000             -0.0307140              0.0303180
     37.4153000             -0.1125280              0.1298800
     13.7834000              0.0450160              0.3279510
      5.4521500              0.5893530              0.4535270
      2.2258800              0.4652060              0.2521540
SP   3   1.00
      3.1864900             -0.2518300             -0.0142990
      1.1442700              0.0615890              0.3235720
      0.4203770              1.0601800              0.7435070
SP   1   1.00
      0.1426570              1.0000000              1.0000000
D    1   1.00
      1.5000000              1.0000000
D    1   1.00
      0.3750000              1.0000000
F    1   1.00
      0.7000000              1.0000000
****
}

set {
reference uhf
freeze_core true
e_convergence 10
d_convergence 10
dft_spherical_points 1202
dft_radial_points 99
}

e = energy('b3lyp')

print_out('Grab this energy {0}'.format(e))
--------------------------------------------------------------------------

    Molecular point group: c1

    Geometry (in Bohr), charge = 0, multiplicity = 2:

       Center              X                  Y                   Z               Mass
    ------------   -----------------  -----------------  -----------------  -----------------
         C           -0.325132865215    -0.000002090585     0.000000012740    12.000000000000
         C            0.061190590285    -1.401658143185    -2.426137143360    12.000000000000
         C            0.061070737085     2.801938789515    -0.000797782360    12.000000000000
         C            0.061190516385    -1.400276364585     2.426934920440    12.000000000000
         H            2.088645910285    -1.645600287385    -2.846878806460     1.007825032230
         H           -0.763678424215    -0.386412587885    -4.021123419060     1.007825032230
         H           -0.762490899515    -3.295312837585    -2.351913564760     1.007825032230
         H            2.088506889185     3.288367018615    -0.001582478660     1.007825032230
         H           -0.763919253715     3.675575554115     1.675887442940     1.007825032230
         H           -0.762568816715     3.684444767715    -1.677906538360     1.007825032230
         H            2.088645721985    -1.642858991085     2.848460417340     1.007825032230
         H           -0.763841832015    -3.289129878485     2.345242683740     1.007825032230
         H           -0.762327645315    -0.389098847785     4.029814174440     1.007825032230

  Charge       = 0
  Multiplicity = 2
  Basis Set: ANONYMOUS4A4A831F
    Blend: 6-31G_2DFP_
  Basis Set: (ANONYMOUS4A4A831F AUX)
    Blend: DEF2-UNIVERSAL-JKFIT

    Orbital Energies [Eh]
    ---------------------

    Alpha Occupied:

       1A    -10.180455     2A    -10.167054     3A    -10.167054
       4A    -10.167008     5A     -0.797712     6A     -0.686175
       7A     -0.686174     8A     -0.530797     9A     -0.440889
      10A     -0.434818    11A     -0.434818    12A     -0.382351
      13A     -0.382350    14A     -0.363892    15A     -0.338047
      16A     -0.338047    17A     -0.169077

    Alpha Virtual:

      18A      0.076090    19A      0.134159    20A      0.134160
      21A      0.142712    22A      0.142712    23A      0.154814
      24A      0.178675    25A      0.178675    26A      0.203483
      27A      0.214951    28A      0.275845    29A      0.275847
      30A      0.399210    31A      0.399214    32A      0.403302
      33A      0.424091    34A      0.424092    35A      0.456589
      36A      0.495441    37A      0.495442    38A      0.512056
      39A      0.513983    40A      0.578903    41A      0.578911
      42A      0.591329    43A      0.591331    44A      0.602260
      45A      0.624830    46A      0.631995    47A      0.636376
      48A      0.636379    49A      0.663239    50A      0.663239
      51A      0.683876    52A      0.683877    53A      0.734864
      54A      0.825231    55A      0.825234    56A      0.853963
      57A      0.914858    58A      0.914864    59A      0.943925
      60A      0.944676    61A      0.961375    62A      0.961392
      63A      1.004348    64A      1.128321    65A      1.128334
      66A      1.141845    67A      1.163126    68A      1.163138
      69A      1.222903    70A      1.274210    71A      1.274213
      72A      1.279198    73A      1.324466    74A      1.324468
      75A      1.354949    76A      1.366393    77A      1.366397
      78A      1.392541    79A      1.403400    80A      1.403402
      81A      1.416524    82A      1.416531    83A      1.427735
      84A      1.491960    85A      1.498581    86A      1.543211
      87A      1.543213    88A      1.574543    89A      1.574545
      90A      1.670366    91A      1.739206    92A      1.739218
      93A      1.768107    94A      1.831722    95A      1.831723
      96A      1.972286    97A      2.018033    98A      2.018741
      99A      2.018744   100A      2.052267   101A      2.052267
     102A      2.738154   103A      2.738155   104A      2.790703
     105A      2.811703   106A      2.889776   107A      2.889782
     108A      2.894974   109A      2.929645   110A      2.929653
     111A      2.959163   112A      2.964336   113A      2.964350
     114A      3.033974   115A      3.070660   116A      3.070673
     117A      3.084408   118A      3.168762   119A      3.168770
     120A      3.180776   121A      3.285653   122A      3.285653
     123A      3.328107   124A      3.328113   125A      3.375315
     126A      3.489961   127A      3.489981   128A      3.513474
     129A      3.525575   130A      3.567952   131A      3.567973
     132A      3.574698   133A      3.666378   134A      3.666387
     135A      3.680681   136A      3.693810   137A      3.693826
     138A      3.775932   139A      3.775958   140A      3.787796
     141A      3.912340   142A      3.912346   143A      4.033290
     144A      4.111748   145A      4.111752   146A      4.148348
     147A      4.148356   148A      4.173088   149A      4.202258
     150A      4.202748   151A      4.202751   152A      4.210754
     153A      4.315742   154A      4.315762   155A      4.359053
     156A      4.423819   157A      4.423822   158A      4.444328
     159A      4.516982   160A      4.516983   161A      4.578363
     162A      4.578376   163A      4.616670   164A      4.709016
     165A      4.774342   166A      4.774350   167A      4.836682
     168A      4.962950   169A      5.002239   170A      5.002251
     171A      5.227975   172A      5.246827   173A      5.246828
     174A      5.355950   175A      5.355963   176A      5.478833

    Beta Occupied:

       1A    -10.167806     2A    -10.167806     3A    -10.167782
       4A    -10.166635     5A     -0.781053     6A     -0.683981
       7A     -0.683981     8A     -0.511773     9A     -0.431200
      10A     -0.431200    11A     -0.421581    12A     -0.376424
      13A     -0.376423    14A     -0.362877    15A     -0.333168
      16A     -0.333167

    Beta Virtual:

      17A     -0.025892    18A      0.077100    19A      0.135081
      20A      0.135082    21A      0.144572    22A      0.144573
      23A      0.163305    24A      0.182335    25A      0.182336
      26A      0.215109    27A      0.218912    28A      0.282205
      29A      0.282207    30A      0.400383    31A      0.400387
      32A      0.419808    33A      0.426899    34A      0.426900
      35A      0.468433    36A      0.497702    37A      0.497703
      38A      0.513797    39A      0.556282    40A      0.584443
      41A      0.584451    42A      0.597526    43A      0.597527
      44A      0.609708    45A      0.628118    46A      0.632206
      47A      0.639645    48A      0.639649    49A      0.666830
      50A      0.666831    51A      0.686508    52A      0.686510
      53A      0.757393    54A      0.830420    55A      0.830423
      56A      0.855319    57A      0.922833    58A      0.922839
      59A      0.945835    60A      0.953499    61A      0.966664
      62A      0.966680    63A      1.009635    64A      1.132243
      65A      1.132255    66A      1.155236    67A      1.168262
      68A      1.168274    69A      1.231869    70A      1.279822
      71A      1.279826    72A      1.284943    73A      1.329514
      74A      1.329516    75A      1.364347    76A      1.371639
      77A      1.371643    78A      1.393611    79A      1.406852
      80A      1.406855    81A      1.421556    82A      1.421562
      83A      1.427985    84A      1.493013    85A      1.509003
      86A      1.547729    87A      1.547729    88A      1.582311
      89A      1.582311    90A      1.675198    91A      1.744976
      92A      1.744987    93A      1.778895    94A      1.835571
      95A      1.835572    96A      1.973145    97A      2.025107
      98A      2.025111    99A      2.039430   100A      2.059003
     101A      2.059004   102A      2.746492   103A      2.746493
     104A      2.812104   105A      2.815797   106A      2.902478
     107A      2.902483   108A      2.924597   109A      2.932098
     110A      2.932107   111A      2.960230   112A      2.968897
     113A      2.968911   114A      3.041948   115A      3.080595
     116A      3.080607   117A      3.086230   118A      3.184442
     119A      3.184447   120A      3.188514   121A      3.290407
     122A      3.290407   123A      3.331928   124A      3.331934
     125A      3.383094   126A      3.492700   127A      3.492720
     128A      3.511861   129A      3.528562   130A      3.574552
     131A      3.581356   132A      3.581377   133A      3.671054
     134A      3.671065   135A      3.693954   136A      3.725473
     137A      3.725488   138A      3.780498   139A      3.780524
     140A      3.816369   141A      3.922158   142A      3.922165
     143A      4.044189   144A      4.118541   145A      4.118543
     146A      4.155571   147A      4.155580   148A      4.187178
     149A      4.208682   150A      4.208686   151A      4.210208
     152A      4.215267   153A      4.323171   154A      4.323191
     155A      4.362430   156A      4.432094   157A      4.432097
     158A      4.447179   159A      4.524776   160A      4.524777
     161A      4.588941   162A      4.588953   163A      4.623788
     164A      4.719448   165A      4.781272   166A      4.781280
     167A      4.839599   168A      4.967761   169A      5.006290
     170A      5.006303   171A      5.233660   172A      5.248602
     173A      5.248602   174A      5.362413   175A      5.362426
     176A      5.481153

    Final Occupation by Irrep:
              A
    DOCC [    16 ]
    SOCC [     1 ]

  @DF-UKS Final Energy:  -157.81306100381889

   => Energetics <=

    Nuclear Repulsion Energy =            125.3858746059489420
    One-Electron Energy =                -458.7313027205249227
    Two-Electron Energy =                 195.8392546206736711
    DFT Exchange-Correlation Energy =     -20.3068875099165957
    Empirical Dispersion Energy =           0.0000000000000000
    VV10 Nonlocal Energy =                  0.0000000000000000
    Total Energy =                       -157.8130610038188877

  UHF NO Occupations:
  HONO-2 :   15  A 1.9995999
  HONO-1 :   16  A 1.9989813
  HONO-0 :   17  A 1.0000000
  LUNO+0 :   18  A 0.0010187
  LUNO+1 :   19  A 0.0004001
  LUNO+2 :   20  A 0.0001976
  LUNO+3 :   21  A 0.0001976

Computation Completed

Properties will be evaluated at   0.000000,   0.000000,   0.000000 [a0]

Properties computed using the SCF density matrix

  Nuclear Dipole Moment: [e a0]
     X:     0.8369      Y:    -0.0000      Z:    -0.0000

  Electronic Dipole Moment: [e a0]
     X:    -0.7591      Y:     0.0000      Z:     0.0000

  Dipole Moment: [e a0]
     X:     0.0778      Y:    -0.0000      Z:     0.0000     Total:     0.0778

  Dipole Moment: [D]
     X:     0.1977      Y:    -0.0000      Z:     0.0000     Total:     0.1977

*** tstop() called on n059 at Fri Nov  5 13:36:43 2021
Module time:
	user time   =     507.95 seconds =       8.47 minutes
	system time =      11.20 seconds =       0.19 minutes
	total time  =        130 seconds =       2.17 minutes
Total time:
	user time   =     507.95 seconds =       8.47 minutes
	system time =      11.20 seconds =       0.19 minutes
	total time  =        130 seconds =       2.17 minutes
Grab this energy -157.8130610038189
    Psi4 stopped on: Friday, 05 November 2021 01:36PM
    Psi4 wall time for execution: 0:02:10.61

*** Psi4 exiting successfully. Buy a developer a beer!
