                               Psi4 1.4a2.dev629

  ==> Input File <==

--------------------------------------------------------------------------
import os
memory 14 GB

molecule {
 C   -0.3233405018   -0.0002499392    0.0024284199
 C    0.0612737835   -1.4018832124   -2.4271258816
 C    0.0621321203    2.8016338254    0.0012511829
 C    0.0598949127   -1.3997134459    2.4258718886
 H    2.0875329042   -1.6393812673   -2.8458243030
 H   -0.7680034826   -0.3922026227   -4.0277375591
 H   -0.7621490965   -3.2959314298   -2.3517800656
 H    2.0900291170    3.2942022006   -0.0033601712
 H   -0.7596433946    3.6798180674    1.6797200109
 H   -0.7683565410    3.6740329512   -1.6730338426
 H    2.0830888925   -1.6429868168    2.8453866294
 H   -0.7689558110   -3.2894599660    2.3464061404
 H   -0.7661107793   -0.3879026581    4.0277975511
units bohr
0 2
}

basis {

assign 6-31g_2dfp_

[ 6-31g_2dfp_ ]

spherical

!----------------------------------------------------------------------
! Basis Set Exchange
! Version v0.8.13
! https://www.basissetexchange.org
!----------------------------------------------------------------------
!   Basis set: 6-31G(2df,p)
! Description: 6-31G(2df,p)
!        Role: orbital
!     Version: 0  (Data from the original Basis Set Exchange)
!----------------------------------------------------------------------

****
H     0
S    3   1.00
     18.7311370              0.03349460
      2.8253937              0.23472695
      0.6401217              0.81375733
S    1   1.00
      0.1612778              1.00000000
P    1   1.00
      1.5000000              1.0000000
P    1   1.00
      0.3750000              1.0000000
****
B     0
S    6   1.00
   2068.8823000              0.0018663
    310.6495700              0.0142515
     70.6830330              0.0695516
     19.8610800              0.2325729
      6.2993048              0.4670787
      2.1270270              0.3634314
SP   3   1.00
      4.7279710             -0.1303938              0.0745976
      1.1903377             -0.1307889              0.3078467
      0.3594117              1.1309444              0.7434568
SP   1   1.00
      0.1267512              1.0000000              1.0000000
D    1   1.00
      0.8020000              1.0000000
D    1   1.00
      0.2005000              1.0000000
F    1   1.00
      0.5000000              1.0000000
****
C     0
S    6   1.00
   3047.5249000              0.0018347
    457.3695100              0.0140373
    103.9486900              0.0688426
     29.2101550              0.2321844
      9.2866630              0.4679413
      3.1639270              0.3623120
SP   3   1.00
      7.8682724             -0.1193324              0.0689991
      1.8812885             -0.1608542              0.3164240
      0.5442493              1.1434564              0.7443083
SP   1   1.00
      0.1687144              1.0000000              1.0000000
D    1   1.00
      1.2520000              1.0000000
D    1   1.00
      0.3130000              1.0000000
F    1   1.00
      0.8000000              1.0000000
****
N     0
S    6   1.00
   4173.5110000              0.0018348
    627.4579000              0.0139950
    142.9021000              0.0685870
     40.2343300              0.2322410
     12.8202100              0.4690700
      4.3904370              0.3604550
SP   3   1.00
     11.6263580             -0.1149610              0.0675800
      2.7162800             -0.1691180              0.3239070
      0.7722180              1.1458520              0.7408950
SP   1   1.00
      0.2120313              1.0000000              1.0000000
D    1   1.00
      1.8260000              1.0000000
D    1   1.00
      0.4565000              1.0000000
F    1   1.00
      1.0000000              1.0000000
****
O     0
S    6   1.00
   5484.6717000              0.0018311
    825.2349500              0.0139501
    188.0469600              0.0684451
     52.9645000              0.2327143
     16.8975700              0.4701930
      5.7996353              0.3585209
SP   3   1.00
     15.5396160             -0.1107775              0.0708743
      3.5999336             -0.1480263              0.3397528
      1.0137618              1.1307670              0.7271586
SP   1   1.00
      0.2700058              1.0000000              1.0000000
D    1   1.00
      2.5840000              1.0000000
D    1   1.00
      0.6460000              1.0000000
F    1   1.00
      1.4000000              1.0000000
****
F     0
S    6   1.00
   7001.7130900              0.0018196169
   1051.3660900              0.0139160796
    239.2856900              0.0684053245
     67.3974453              0.233185760
     21.5199573              0.471267439
      7.40310130             0.356618546
SP   3   1.00
     20.8479528             -0.108506975            0.0716287243
      4.80830834            -0.146451658            0.3459121030
      1.34406986             1.128688580            0.7224699570
SP   1   1.00
      0.358151393            1.0000000              1.0000000
D    1   1.00
      3.5000000              1.0000000
D    1   1.00
      0.8750000              1.0000000
F    1   1.00
      1.8500000              1.0000000
****
Al     0
S    6   1.00
  13983.1000000              0.00194267
   2098.7500000              0.0148599
    477.7050000              0.0728494
    134.3600000              0.2468300
     42.8709000              0.4872580
     14.5189000              0.3234960
SP   6   1.00
    239.6680000             -0.00292619             0.00460285
     57.4419000             -0.0374080              0.0331990
     18.2859000             -0.1144870              0.1362820
      6.5991400              0.1156350              0.3304760
      2.4904900              0.6125950              0.4491460
      0.9445400              0.3937990              0.2657040
SP   3   1.00
      1.2779000             -0.2276060             -0.0175130
      0.3975900              0.00144583             0.2445330
      0.1600950              1.0927900              0.8049340
SP   1   1.00
      0.0556577              1.0000000              1.0000000
D    1   1.00
      0.6500000              1.0000000
D    1   1.00
      0.1625000              1.0000000
F    1   1.00
      0.2500000              1.0000000
****
Si     0
S    6   1.00
  16115.9000000              0.00195948
   2425.5800000              0.01492880
    553.8670000              0.07284780
    156.3400000              0.24613000
     50.0683000              0.48591400
     17.0178000              0.32500200
SP   6   1.00
    292.7180000             -0.00278094             0.00443826
     69.8731000             -0.03571460             0.03266790
     22.3363000             -0.11498500             0.13472100
      8.1503900              0.09356340             0.32867800
      3.1345800              0.60301700             0.44964000
      1.2254300              0.41895900             0.26137200
SP   3   1.00
      1.7273800             -0.24463000            -0.01779510
      0.5729220              0.00431572             0.25353900
      0.2221920              1.09818000             0.80066900
SP   1   1.00
      0.0778369              1.00000000             1.00000000
D    1   1.00
      0.9000000              1.0000000
D    1   1.00
      0.2250000              1.0000000
F    1   1.00
      0.3200000              1.0000000
****
P     0
S    6   1.00
  19413.3000000              0.0018516
   2909.4200000              0.0142062
    661.3640000              0.0699995
    185.7590000              0.2400790
     59.1943000              0.4847620
     20.0310000              0.3352000
SP   6   1.00
    339.4780000             -0.00278217             0.00456462
     81.0101000             -0.0360499              0.03369360
     25.8780000             -0.1166310              0.13975500
      9.4522100              0.0968328              0.33936200
      3.6656600              0.6144180              0.45092100
      1.4674600              0.4037980              0.23858600
SP   3   1.00
      2.1562300             -0.2529230             -0.01776530
      0.7489970              0.0328517              0.27405800
      0.2831450              1.0812500              0.78542100
SP   1   1.00
      0.0998317              1.0000000              1.00000000
D    1   1.00
      1.1000000              1.0000000
D    1   1.00
      0.2750000              1.0000000
F    1   1.00
      0.4500000              1.0000000
****
S     0
S    6   1.00
  21917.1000000              0.0018690
   3301.4900000              0.0142300
    754.1460000              0.0696960
    212.7110000              0.2384870
     67.9896000              0.4833070
     23.0515000              0.3380740
SP   6   1.00
    423.7350000             -0.0023767              0.0040610
    100.7100000             -0.0316930              0.0306810
     32.1599000             -0.1133170              0.1304520
     11.8079000              0.0560900              0.3272050
      4.6311000              0.5922550              0.4528510
      1.8702500              0.4550060              0.2560420
SP   3   1.00
      2.6158400             -0.2503740             -0.0145110
      0.9221670              0.0669570              0.3102630
      0.3412870              1.0545100              0.7544830
SP   1   1.00
      0.1171670              1.0000000              1.0000000
D    1   1.00
      1.3000000              1.0000000
D    1   1.00
      0.3250000              1.0000000
F    1   1.00
      0.5500000              1.0000000
****
Cl     0
S    6   1.00
  25180.1000000              0.0018330
   3780.3500000              0.0140340
    860.4740000              0.0690970
    242.1450000              0.2374520
     77.3349000              0.4830340
     26.2470000              0.3398560
SP   6   1.00
    491.7650000             -0.0022974              0.0039894
    116.9840000             -0.0307140              0.0303180
     37.4153000             -0.1125280              0.1298800
     13.7834000              0.0450160              0.3279510
      5.4521500              0.5893530              0.4535270
      2.2258800              0.4652060              0.2521540
SP   3   1.00
      3.1864900             -0.2518300             -0.0142990
      1.1442700              0.0615890              0.3235720
      0.4203770              1.0601800              0.7435070
SP   1   1.00
      0.1426570              1.0000000              1.0000000
D    1   1.00
      1.5000000              1.0000000
D    1   1.00
      0.3750000              1.0000000
F    1   1.00
      0.7000000              1.0000000
****
}

set {
reference uhf
freeze_core true
e_convergence 10
d_convergence 10
dft_spherical_points 1202
dft_radial_points 99
}

e = energy('b3lyp')

print_out('Grab this energy {0}'.format(e))
--------------------------------------------------------------------------

    Molecular point group: c1

    Geometry (in Bohr), charge = 0, multiplicity = 2:

       Center              X                  Y                   Z               Mass
    ------------   -----------------  -----------------  -----------------  -----------------
         C           -0.323340559496    -0.000208528399     0.001961229980    12.000000000000
         C            0.061273725804    -1.401841801599    -2.427593071520    12.000000000000
         C            0.062132062604     2.801675236201     0.000783992980    12.000000000000
         C            0.059894855004    -1.399672035099     2.425404698680    12.000000000000
         H            2.087532846504    -1.639339856499    -2.846291492920     1.007825032230
         H           -0.768003540296    -0.392161211899    -4.028204749020     1.007825032230
         H           -0.762149154196    -3.295890018999    -2.352247255520     1.007825032230
         H            2.090029059304     3.294243611401    -0.003827361120     1.007825032230
         H           -0.759643452296     3.679859478201     1.679252820980     1.007825032230
         H           -0.768356598696     3.674074362001    -1.673501032520     1.007825032230
         H            2.083088834804    -1.642945405999     2.844919439480     1.007825032230
         H           -0.768955868696    -3.289418555199     2.345938950480     1.007825032230
         H           -0.766110836996    -0.387861247299     4.027330361180     1.007825032230

  Charge       = 0
  Multiplicity = 2
  Basis Set: ANONYMOUS52E6C096
    Blend: 6-31G_2DFP_
  Basis Set: (ANONYMOUS52E6C096 AUX)
    Blend: DEF2-UNIVERSAL-JKFIT

    Orbital Energies [Eh]
    ---------------------

    Alpha Occupied:

       1A    -10.180342     2A    -10.167220     3A    -10.166982
       4A    -10.166842     5A     -0.797768     6A     -0.686333
       7A     -0.686041     8A     -0.530775     9A     -0.441126
      10A     -0.434784    11A     -0.434560    12A     -0.382827
      13A     -0.382370    14A     -0.363610    15A     -0.338212
      16A     -0.337784    17A     -0.168960

    Alpha Virtual:

      18A      0.076073    19A      0.134075    20A      0.134235
      21A      0.142421    22A      0.142832    23A      0.154880
      24A      0.178638    25A      0.178913    26A      0.203550
      27A      0.214802    28A      0.275649    29A      0.276322
      30A      0.399094    31A      0.399351    32A      0.403356
      33A      0.423991    34A      0.424206    35A      0.456596
      36A      0.495337    37A      0.495441    38A      0.512161
      39A      0.513981    40A      0.578586    41A      0.579031
      42A      0.591283    43A      0.591971    44A      0.602604
      45A      0.624763    46A      0.631745    47A      0.636014
      48A      0.636514    49A      0.663205    50A      0.663622
      51A      0.683736    52A      0.683968    53A      0.734994
      54A      0.825342    55A      0.825471    56A      0.853916
      57A      0.914681    58A      0.915368    59A      0.944107
      60A      0.944614    61A      0.961220    62A      0.961389
      63A      1.003452    64A      1.127694    65A      1.128503
      66A      1.142191    67A      1.163082    68A      1.163498
      69A      1.223327    70A      1.274264    71A      1.274699
      72A      1.279376    73A      1.324218    74A      1.324491
      75A      1.355979    76A      1.365767    77A      1.366346
      78A      1.392441    79A      1.403462    80A      1.404630
      81A      1.416698    82A      1.417510    83A      1.427934
      84A      1.491501    85A      1.499065    86A      1.542696
      87A      1.542977    88A      1.573911    89A      1.574994
      90A      1.669835    91A      1.739130    92A      1.739693
      93A      1.768327    94A      1.830800    95A      1.831995
      96A      1.971723    97A      2.018203    98A      2.018954
      99A      2.019229   100A      2.051579   101A      2.053721
     102A      2.738428   103A      2.738541   104A      2.790931
     105A      2.811423   106A      2.889421   107A      2.890408
     108A      2.895025   109A      2.929140   110A      2.929854
     111A      2.958987   112A      2.964072   113A      2.964691
     114A      3.034002   115A      3.070589   116A      3.071983
     117A      3.084349   118A      3.168529   119A      3.169015
     120A      3.180607   121A      3.285192   122A      3.285438
     123A      3.326179   124A      3.328149   125A      3.375618
     126A      3.489076   127A      3.491240   128A      3.513996
     129A      3.525321   130A      3.567511   131A      3.569131
     132A      3.575301   133A      3.665870   134A      3.666837
     135A      3.679687   136A      3.693395   137A      3.694838
     138A      3.775453   139A      3.778096   140A      3.789226
     141A      3.911730   142A      3.912738   143A      4.034444
     144A      4.110341   145A      4.112388   146A      4.147550
     147A      4.148676   148A      4.173249   149A      4.202300
     150A      4.202502   151A      4.204000   152A      4.210865
     153A      4.315413   154A      4.316507   155A      4.358979
     156A      4.423953   157A      4.424975   158A      4.443419
     159A      4.515810   160A      4.517832   161A      4.577596
     162A      4.578937   163A      4.617578   164A      4.709399
     165A      4.773768   166A      4.775480   167A      4.836924
     168A      4.962851   169A      5.002127   170A      5.003795
     171A      5.228053   172A      5.246246   173A      5.247383
     174A      5.354556   175A      5.356474   176A      5.479348

    Beta Occupied:

       1A    -10.167975     2A    -10.167745     3A    -10.167604
       4A    -10.166519     5A     -0.781093     6A     -0.684123
       7A     -0.683856     8A     -0.511747     9A     -0.431168
      10A     -0.430917    11A     -0.421824    12A     -0.376916
      13A     -0.376450    14A     -0.362594    15A     -0.333327
      16A     -0.332915

    Beta Virtual:

      17A     -0.025742    18A      0.077082    19A      0.134966
      20A      0.135124    21A      0.144313    22A      0.144682
      23A      0.163338    24A      0.182305    25A      0.182590
      26A      0.215031    27A      0.218931    28A      0.282007
      29A      0.282660    30A      0.400276    31A      0.400516
      32A      0.419793    33A      0.426796    34A      0.427024
      35A      0.468504    36A      0.497605    37A      0.497695
      38A      0.513896    39A      0.556324    40A      0.584124
      41A      0.584595    42A      0.597472    43A      0.598143
      44A      0.610021    45A      0.628140    46A      0.631913
      47A      0.639293    48A      0.639796    49A      0.666778
      50A      0.667177    51A      0.686389    52A      0.686586
      53A      0.757516    54A      0.830519    55A      0.830631
      56A      0.855269    57A      0.922676    58A      0.923317
      59A      0.945946    60A      0.953539    61A      0.966523
      62A      0.966700    63A      1.008692    64A      1.131759
      65A      1.132496    66A      1.155558    67A      1.168160
      68A      1.168575    69A      1.232300    70A      1.279858
      71A      1.280299    72A      1.285132    73A      1.329215
      74A      1.329472    75A      1.365381    76A      1.371054
      77A      1.371560    78A      1.393500    79A      1.406906
      80A      1.408114    81A      1.421755    82A      1.422536
      83A      1.428221    84A      1.492549    85A      1.509506
      86A      1.547085    87A      1.547412    88A      1.581714
      89A      1.582931    90A      1.674681    91A      1.744881
      92A      1.745467    93A      1.779105    94A      1.834654
      95A      1.835852    96A      1.972583    97A      2.025342
      98A      2.025544    99A      2.039670   100A      2.058327
     101A      2.060412   102A      2.746735   103A      2.746906
     104A      2.811836   105A      2.816065   106A      2.902218
     107A      2.903053   108A      2.924643   109A      2.931632
     110A      2.932346   111A      2.960055   112A      2.968627
     113A      2.969222   114A      3.041937   115A      3.080473
     116A      3.081918   117A      3.086167   118A      3.184199
     119A      3.184795   120A      3.188339   121A      3.289954
     122A      3.290273   123A      3.329995   124A      3.331941
     125A      3.383437   126A      3.491824   127A      3.493953
     128A      3.512365   129A      3.528368   130A      3.574885
     131A      3.580946   132A      3.582642   133A      3.670670
     134A      3.671560   135A      3.692955   136A      3.725319
     137A      3.726187   138A      3.780025   139A      3.782613
     140A      3.817726   141A      3.921588   142A      3.922515
     143A      4.045332   144A      4.117163   145A      4.119199
     146A      4.154812   147A      4.155831   148A      4.187306
     149A      4.208418   150A      4.209248   151A      4.210976
     152A      4.215342   153A      4.322834   154A      4.323968
     155A      4.362341   156A      4.432182   157A      4.433170
     158A      4.446308   159A      4.523615   160A      4.525607
     161A      4.588191   162A      4.589540   163A      4.624774
     164A      4.719742   165A      4.780730   166A      4.782428
     167A      4.839842   168A      4.967645   169A      5.006163
     170A      5.007838   171A      5.233767   172A      5.248029
     173A      5.249169   174A      5.361015   175A      5.362976
     176A      5.481669

    Final Occupation by Irrep:
              A
    DOCC [    16 ]
    SOCC [     1 ]

  @DF-UKS Final Energy:  -157.81306271449947

   => Energetics <=

    Nuclear Repulsion Energy =            125.3946426080282777
    One-Electron Energy =                -458.7489304157843435
    Two-Electron Energy =                 195.8483699608074460
    DFT Exchange-Correlation Energy =     -20.3071448675508499
    Empirical Dispersion Energy =           0.0000000000000000
    VV10 Nonlocal Energy =                  0.0000000000000000
    Total Energy =                       -157.8130627144994662

  UHF NO Occupations:
  HONO-2 :   15  A 1.9996009
  HONO-1 :   16  A 1.9989805
  HONO-0 :   17  A 1.0000000
  LUNO+0 :   18  A 0.0010195
  LUNO+1 :   19  A 0.0003991
  LUNO+2 :   20  A 0.0001981
  LUNO+3 :   21  A 0.0001969

Computation Completed

Properties will be evaluated at   0.000000,   0.000000,   0.000000 [a0]

Properties computed using the SCF density matrix

  Nuclear Dipole Moment: [e a0]
     X:     0.8272      Y:     0.0003      Z:    -0.0033

  Electronic Dipole Moment: [e a0]
     X:    -0.7493      Y:    -0.0010      Z:     0.0033

  Dipole Moment: [e a0]
     X:     0.0779      Y:    -0.0008      Z:    -0.0000     Total:     0.0779

  Dipole Moment: [D]
     X:     0.1980      Y:    -0.0020      Z:    -0.0001     Total:     0.1980

*** tstop() called on n070 at Fri Nov  5 15:24:20 2021
Module time:
	user time   =     575.09 seconds =       9.58 minutes
	system time =      13.54 seconds =       0.23 minutes
	total time  =        149 seconds =       2.48 minutes
Total time:
	user time   =     575.09 seconds =       9.58 minutes
	system time =      13.54 seconds =       0.23 minutes
	total time  =        149 seconds =       2.48 minutes
Grab this energy -157.81306271449947
    Psi4 stopped on: Friday, 05 November 2021 03:24PM
    Psi4 wall time for execution: 0:02:28.96

*** Psi4 exiting successfully. Buy a developer a beer!
