                               Psi4 1.4a2.dev629

  ==> Input File <==

--------------------------------------------------------------------------
import os
memory 14 GB

molecule {
 C   -0.3233301096    0.0049889208   -0.0053436757
 C    0.0613121293   -1.4031010695   -2.4205618227
 C    0.0604190487    2.8096630442   -0.0011150612
 C    0.0615720692   -1.4040318491    2.4199285804
 H    2.0875264964   -1.6503152920   -2.8379253419
 H   -0.7628634131   -0.3961395743   -4.0225751953
 H   -0.7669688813   -3.2941598402   -2.3351964288
 H    2.0860204327    3.2972554833    0.0009953269
 H   -0.7658707181    3.6890314410    1.6774148432
 H   -0.7675345639    3.6872985968   -1.6759787445
 H    2.0871208357   -1.6499914480    2.8393466497
 H   -0.7678876737   -3.2932597813    2.3364243711
 H   -0.7621235290   -0.3972629453    4.0245864987
units bohr
0 2
}

basis {

assign 6-31g_2dfp_

[ 6-31g_2dfp_ ]

spherical

!----------------------------------------------------------------------
! Basis Set Exchange
! Version v0.8.13
! https://www.basissetexchange.org
!----------------------------------------------------------------------
!   Basis set: 6-31G(2df,p)
! Description: 6-31G(2df,p)
!        Role: orbital
!     Version: 0  (Data from the original Basis Set Exchange)
!----------------------------------------------------------------------

****
H     0
S    3   1.00
     18.7311370              0.03349460
      2.8253937              0.23472695
      0.6401217              0.81375733
S    1   1.00
      0.1612778              1.00000000
P    1   1.00
      1.5000000              1.0000000
P    1   1.00
      0.3750000              1.0000000
****
B     0
S    6   1.00
   2068.8823000              0.0018663
    310.6495700              0.0142515
     70.6830330              0.0695516
     19.8610800              0.2325729
      6.2993048              0.4670787
      2.1270270              0.3634314
SP   3   1.00
      4.7279710             -0.1303938              0.0745976
      1.1903377             -0.1307889              0.3078467
      0.3594117              1.1309444              0.7434568
SP   1   1.00
      0.1267512              1.0000000              1.0000000
D    1   1.00
      0.8020000              1.0000000
D    1   1.00
      0.2005000              1.0000000
F    1   1.00
      0.5000000              1.0000000
****
C     0
S    6   1.00
   3047.5249000              0.0018347
    457.3695100              0.0140373
    103.9486900              0.0688426
     29.2101550              0.2321844
      9.2866630              0.4679413
      3.1639270              0.3623120
SP   3   1.00
      7.8682724             -0.1193324              0.0689991
      1.8812885             -0.1608542              0.3164240
      0.5442493              1.1434564              0.7443083
SP   1   1.00
      0.1687144              1.0000000              1.0000000
D    1   1.00
      1.2520000              1.0000000
D    1   1.00
      0.3130000              1.0000000
F    1   1.00
      0.8000000              1.0000000
****
N     0
S    6   1.00
   4173.5110000              0.0018348
    627.4579000              0.0139950
    142.9021000              0.0685870
     40.2343300              0.2322410
     12.8202100              0.4690700
      4.3904370              0.3604550
SP   3   1.00
     11.6263580             -0.1149610              0.0675800
      2.7162800             -0.1691180              0.3239070
      0.7722180              1.1458520              0.7408950
SP   1   1.00
      0.2120313              1.0000000              1.0000000
D    1   1.00
      1.8260000              1.0000000
D    1   1.00
      0.4565000              1.0000000
F    1   1.00
      1.0000000              1.0000000
****
O     0
S    6   1.00
   5484.6717000              0.0018311
    825.2349500              0.0139501
    188.0469600              0.0684451
     52.9645000              0.2327143
     16.8975700              0.4701930
      5.7996353              0.3585209
SP   3   1.00
     15.5396160             -0.1107775              0.0708743
      3.5999336             -0.1480263              0.3397528
      1.0137618              1.1307670              0.7271586
SP   1   1.00
      0.2700058              1.0000000              1.0000000
D    1   1.00
      2.5840000              1.0000000
D    1   1.00
      0.6460000              1.0000000
F    1   1.00
      1.4000000              1.0000000
****
F     0
S    6   1.00
   7001.7130900              0.0018196169
   1051.3660900              0.0139160796
    239.2856900              0.0684053245
     67.3974453              0.233185760
     21.5199573              0.471267439
      7.40310130             0.356618546
SP   3   1.00
     20.8479528             -0.108506975            0.0716287243
      4.80830834            -0.146451658            0.3459121030
      1.34406986             1.128688580            0.7224699570
SP   1   1.00
      0.358151393            1.0000000              1.0000000
D    1   1.00
      3.5000000              1.0000000
D    1   1.00
      0.8750000              1.0000000
F    1   1.00
      1.8500000              1.0000000
****
Al     0
S    6   1.00
  13983.1000000              0.00194267
   2098.7500000              0.0148599
    477.7050000              0.0728494
    134.3600000              0.2468300
     42.8709000              0.4872580
     14.5189000              0.3234960
SP   6   1.00
    239.6680000             -0.00292619             0.00460285
     57.4419000             -0.0374080              0.0331990
     18.2859000             -0.1144870              0.1362820
      6.5991400              0.1156350              0.3304760
      2.4904900              0.6125950              0.4491460
      0.9445400              0.3937990              0.2657040
SP   3   1.00
      1.2779000             -0.2276060             -0.0175130
      0.3975900              0.00144583             0.2445330
      0.1600950              1.0927900              0.8049340
SP   1   1.00
      0.0556577              1.0000000              1.0000000
D    1   1.00
      0.6500000              1.0000000
D    1   1.00
      0.1625000              1.0000000
F    1   1.00
      0.2500000              1.0000000
****
Si     0
S    6   1.00
  16115.9000000              0.00195948
   2425.5800000              0.01492880
    553.8670000              0.07284780
    156.3400000              0.24613000
     50.0683000              0.48591400
     17.0178000              0.32500200
SP   6   1.00
    292.7180000             -0.00278094             0.00443826
     69.8731000             -0.03571460             0.03266790
     22.3363000             -0.11498500             0.13472100
      8.1503900              0.09356340             0.32867800
      3.1345800              0.60301700             0.44964000
      1.2254300              0.41895900             0.26137200
SP   3   1.00
      1.7273800             -0.24463000            -0.01779510
      0.5729220              0.00431572             0.25353900
      0.2221920              1.09818000             0.80066900
SP   1   1.00
      0.0778369              1.00000000             1.00000000
D    1   1.00
      0.9000000              1.0000000
D    1   1.00
      0.2250000              1.0000000
F    1   1.00
      0.3200000              1.0000000
****
P     0
S    6   1.00
  19413.3000000              0.0018516
   2909.4200000              0.0142062
    661.3640000              0.0699995
    185.7590000              0.2400790
     59.1943000              0.4847620
     20.0310000              0.3352000
SP   6   1.00
    339.4780000             -0.00278217             0.00456462
     81.0101000             -0.0360499              0.03369360
     25.8780000             -0.1166310              0.13975500
      9.4522100              0.0968328              0.33936200
      3.6656600              0.6144180              0.45092100
      1.4674600              0.4037980              0.23858600
SP   3   1.00
      2.1562300             -0.2529230             -0.01776530
      0.7489970              0.0328517              0.27405800
      0.2831450              1.0812500              0.78542100
SP   1   1.00
      0.0998317              1.0000000              1.00000000
D    1   1.00
      1.1000000              1.0000000
D    1   1.00
      0.2750000              1.0000000
F    1   1.00
      0.4500000              1.0000000
****
S     0
S    6   1.00
  21917.1000000              0.0018690
   3301.4900000              0.0142300
    754.1460000              0.0696960
    212.7110000              0.2384870
     67.9896000              0.4833070
     23.0515000              0.3380740
SP   6   1.00
    423.7350000             -0.0023767              0.0040610
    100.7100000             -0.0316930              0.0306810
     32.1599000             -0.1133170              0.1304520
     11.8079000              0.0560900              0.3272050
      4.6311000              0.5922550              0.4528510
      1.8702500              0.4550060              0.2560420
SP   3   1.00
      2.6158400             -0.2503740             -0.0145110
      0.9221670              0.0669570              0.3102630
      0.3412870              1.0545100              0.7544830
SP   1   1.00
      0.1171670              1.0000000              1.0000000
D    1   1.00
      1.3000000              1.0000000
D    1   1.00
      0.3250000              1.0000000
F    1   1.00
      0.5500000              1.0000000
****
Cl     0
S    6   1.00
  25180.1000000              0.0018330
   3780.3500000              0.0140340
    860.4740000              0.0690970
    242.1450000              0.2374520
     77.3349000              0.4830340
     26.2470000              0.3398560
SP   6   1.00
    491.7650000             -0.0022974              0.0039894
    116.9840000             -0.0307140              0.0303180
     37.4153000             -0.1125280              0.1298800
     13.7834000              0.0450160              0.3279510
      5.4521500              0.5893530              0.4535270
      2.2258800              0.4652060              0.2521540
SP   3   1.00
      3.1864900             -0.2518300             -0.0142990
      1.1442700              0.0615890              0.3235720
      0.4203770              1.0601800              0.7435070
SP   1   1.00
      0.1426570              1.0000000              1.0000000
D    1   1.00
      1.5000000              1.0000000
D    1   1.00
      0.3750000              1.0000000
F    1   1.00
      0.7000000              1.0000000
****
}

set {
reference uhf
freeze_core true
e_convergence 10
d_convergence 10
dft_spherical_points 1202
dft_radial_points 99
}

e = energy('b3lyp')

print_out('Grab this energy {0}'.format(e))
--------------------------------------------------------------------------

    Molecular point group: c1

    Geometry (in Bohr), charge = 0, multiplicity = 2:

       Center              X                  Y                   Z               Mass
    ------------   -----------------  -----------------  -----------------  -----------------
         C           -0.323332637077     0.003541127668    -0.003977709423    12.000000000000
         C            0.061309601823    -1.404548862632    -2.419195856423    12.000000000000
         C            0.060416521223     2.808215251068     0.000250905077    12.000000000000
         C            0.061569541723    -1.405479642232     2.421294546677    12.000000000000
         H            2.087523968923    -1.651763085132    -2.836559375623     1.007825032230
         H           -0.762865940577    -0.397587367432    -4.021209229023     1.007825032230
         H           -0.766971408777    -3.295607633332    -2.333830462523     1.007825032230
         H            2.086017905223     3.295807690168     0.002361293177     1.007825032230
         H           -0.765873245577     3.687583647868     1.678780809477     1.007825032230
         H           -0.767537091377     3.685850803668    -1.674612778223     1.007825032230
         H            2.087118308223    -1.651439241132     2.840712615977     1.007825032230
         H           -0.767890201177    -3.294707574432     2.337790337377     1.007825032230
         H           -0.762126056477    -0.398710738432     4.025952464977     1.007825032230

  Charge       = 0
  Multiplicity = 2
  Basis Set: ANONYMOUS0C193FD0
    Blend: 6-31G_2DFP_
  Basis Set: (ANONYMOUS0C193FD0 AUX)
    Blend: DEF2-UNIVERSAL-JKFIT

    Orbital Energies [Eh]
    ---------------------

    Alpha Occupied:

       1A    -10.180341     2A    -10.167329     3A    -10.166891
       4A    -10.166825     5A     -0.797773     6A     -0.686476
       7A     -0.685895     8A     -0.530776     9A     -0.441133
      10A     -0.435014    11A     -0.434324    12A     -0.382788
      13A     -0.382412    14A     -0.363608    15A     -0.338584
      16A     -0.337409    17A     -0.168961

    Alpha Virtual:

      18A      0.076072    19A      0.133914    20A      0.134396
      21A      0.142403    22A      0.142850    23A      0.154880
      24A      0.178554    25A      0.179004    26A      0.203541
      27A      0.214807    28A      0.275650    29A      0.276321
      30A      0.398987    31A      0.399407    32A      0.403412
      33A      0.423968    34A      0.424237    35A      0.456595
      36A      0.494981    37A      0.495789    38A      0.512173
      39A      0.513985    40A      0.578477    41A      0.579125
      42A      0.591620    43A      0.591672    44A      0.602577
      45A      0.624757    46A      0.631767    47A      0.636000
      48A      0.636516    49A      0.663186    50A      0.663642
      51A      0.683604    52A      0.684105    53A      0.734993
      54A      0.824573    55A      0.826228    56A      0.853915
      57A      0.914756    58A      0.915291    59A      0.944048
      60A      0.944524    61A      0.961076    62A      0.961717
      63A      1.003471    64A      1.126915    65A      1.129279
      66A      1.142260    67A      1.162636    68A      1.163895
      69A      1.223336    70A      1.273798    71A      1.275198
      72A      1.279351    73A      1.324228    74A      1.324478
      75A      1.355994    76A      1.365285    77A      1.366769
      78A      1.392425    79A      1.403253    80A      1.404907
      81A      1.416549    82A      1.417698    83A      1.427942
      84A      1.491433    85A      1.499064    86A      1.542461
      87A      1.543213    88A      1.572597    89A      1.576407
      90A      1.669818    91A      1.738306    92A      1.740503
      93A      1.768343    94A      1.830823    95A      1.831974
      96A      1.971728    97A      2.017480    98A      2.018282
      99A      2.020605   100A      2.050078   101A      2.055314
     102A      2.738129   103A      2.738842   104A      2.790923
     105A      2.811436   106A      2.889379   107A      2.890511
     108A      2.894942   109A      2.929062   110A      2.929924
     111A      2.958985   112A      2.963465   113A      2.965325
     114A      3.034004   115A      3.070178   116A      3.072374
     117A      3.084382   118A      3.168002   119A      3.169547
     120A      3.180635   121A      3.284540   122A      3.286069
     123A      3.326131   124A      3.328194   125A      3.375652
     126A      3.489366   127A      3.490857   128A      3.514042
     129A      3.525308   130A      3.567282   131A      3.569333
     132A      3.575399   133A      3.666062   134A      3.666710
     135A      3.679663   136A      3.693639   137A      3.694554
     138A      3.775652   139A      3.777841   140A      3.789341
     141A      3.910733   142A      3.913727   143A      4.034455
     144A      4.109976   145A      4.112778   146A      4.146173
     147A      4.150023   148A      4.173248   149A      4.201342
     150A      4.202526   151A      4.204851   152A      4.211014
     153A      4.315413   154A      4.316499   155A      4.359004
     156A      4.424247   157A      4.424526   158A      4.443553
     159A      4.515985   160A      4.517725   161A      4.577192
     162A      4.579043   163A      4.617842   164A      4.709452
     165A      4.773203   166A      4.776027   167A      4.836932
     168A      4.962822   169A      5.001973   170A      5.004001
     171A      5.228027   172A      5.246667   173A      5.246994
     174A      5.354601   175A      5.356403   176A      5.479330

    Beta Occupied:

       1A    -10.168085     2A    -10.167647     3A    -10.167593
       4A    -10.166518     5A     -0.781098     6A     -0.684274
       7A     -0.683702     8A     -0.511747     9A     -0.431389
      10A     -0.430701    11A     -0.421819    12A     -0.376860
      13A     -0.376510    14A     -0.362591    15A     -0.333718
      16A     -0.332521

    Beta Virtual:

      17A     -0.025743    18A      0.077081    19A      0.134794
      20A      0.135296    21A      0.144286    22A      0.144709
      23A      0.163340    24A      0.182215    25A      0.182686
      26A      0.215037    27A      0.218923    28A      0.282021
      29A      0.282645    30A      0.400223    31A      0.400566
      32A      0.419799    33A      0.426764    34A      0.427063
      35A      0.468505    36A      0.497240    37A      0.498053
      38A      0.513908    39A      0.556324    40A      0.584037
      41A      0.584671    42A      0.597783    43A      0.597863
      44A      0.609997    45A      0.628137    46A      0.631925
      47A      0.639261    48A      0.639827    49A      0.666725
      50A      0.667229    51A      0.686189    52A      0.686793
      53A      0.757515    54A      0.829732    55A      0.831405
      56A      0.855268    57A      0.922703    58A      0.923284
      59A      0.945908    60A      0.953440    61A      0.966312
      62A      0.967089    63A      1.008708    64A      1.130960
      65A      1.133315    66A      1.155611    67A      1.167692
      68A      1.168989    69A      1.232305    70A      1.279425
      71A      1.280768    72A      1.285101    73A      1.329213
      74A      1.329473    75A      1.365409    76A      1.370446
      77A      1.372088    78A      1.393489    79A      1.406744
      80A      1.408352    81A      1.421598    82A      1.422737
      83A      1.428219    84A      1.492485    85A      1.509507
      86A      1.546759    87A      1.547726    88A      1.580622
      89A      1.584126    90A      1.674665    91A      1.744074
      92A      1.746261    93A      1.779121    94A      1.834656
      95A      1.835852    96A      1.972591    97A      2.023837
      98A      2.027050    99A      2.039641   100A      2.056894
     101A      2.061941   102A      2.746411   103A      2.747233
     104A      2.811849   105A      2.816058   106A      2.902157
     107A      2.903108   108A      2.924644   109A      2.931522
     110A      2.932436   111A      2.960054   112A      2.968038
     113A      2.969833   114A      3.041939   115A      3.080016
     116A      3.082193   117A      3.086370   118A      3.183867
     119A      3.185013   120A      3.188471   121A      3.289416
     122A      3.290795   123A      3.329928   124A      3.332009
     125A      3.383469   126A      3.492085   127A      3.493586
     128A      3.512421   129A      3.528363   130A      3.574799
     131A      3.580651   132A      3.583103   133A      3.670860
     134A      3.671397   135A      3.692960   136A      3.725286
     137A      3.726168   138A      3.780224   139A      3.782420
     140A      3.817779   141A      3.920551   142A      3.923550
     143A      4.045342   144A      4.116808   145A      4.119578
     146A      4.153445   147A      4.157172   148A      4.187307
     149A      4.207264   150A      4.210020   151A      4.211227
     152A      4.215537   153A      4.322790   154A      4.324002
     155A      4.362368   156A      4.432447   157A      4.432704
     158A      4.446493   159A      4.523863   160A      4.525420
     161A      4.587714   162A      4.589698   163A      4.625059
     164A      4.719799   165A      4.780109   166A      4.783027
     167A      4.839851   168A      4.967613   169A      5.006018
     170A      5.008038   171A      5.233740   172A      5.248447
     173A      5.248785   174A      5.361051   175A      5.362914
     176A      5.481651

    Final Occupation by Irrep:
              A
    DOCC [    16 ]
    SOCC [     1 ]

  @DF-UKS Final Energy:  -157.81305628088967

   => Energetics <=

    Nuclear Repulsion Energy =            125.3949359173295903
    One-Electron Energy =                -458.7495008058137955
    Two-Electron Energy =                 195.8486575780689236
    DFT Exchange-Correlation Energy =     -20.3071489704743797
    Empirical Dispersion Energy =           0.0000000000000000
    VV10 Nonlocal Energy =                  0.0000000000000000
    Total Energy =                       -157.8130562808896684

  UHF NO Occupations:
  HONO-2 :   15  A 1.9996009
  HONO-1 :   16  A 1.9989804
  HONO-0 :   17  A 1.0000000
  LUNO+0 :   18  A 0.0010196
  LUNO+1 :   19  A 0.0003991
  LUNO+2 :   20  A 0.0001987
  LUNO+3 :   21  A 0.0001964

Computation Completed

Properties will be evaluated at   0.000000,   0.000000,   0.000000 [a0]

Properties computed using the SCF density matrix

  Nuclear Dipole Moment: [e a0]
     X:     0.8272      Y:    -0.0102      Z:     0.0096

  Electronic Dipole Moment: [e a0]
     X:    -0.7493      Y:     0.0110      Z:    -0.0108

  Dipole Moment: [e a0]
     X:     0.0779      Y:     0.0008      Z:    -0.0012     Total:     0.0779

  Dipole Moment: [D]
     X:     0.1980      Y:     0.0019      Z:    -0.0031     Total:     0.1981

*** tstop() called on n089 at Fri Nov  5 14:02:25 2021
Module time:
	user time   =     504.67 seconds =       8.41 minutes
	system time =       4.63 seconds =       0.08 minutes
	total time  =        128 seconds =       2.13 minutes
Total time:
	user time   =     504.67 seconds =       8.41 minutes
	system time =       4.63 seconds =       0.08 minutes
	total time  =        128 seconds =       2.13 minutes
Grab this energy -157.81305628088967
    Psi4 stopped on: Friday, 05 November 2021 02:02PM
    Psi4 wall time for execution: 0:02:08.08

*** Psi4 exiting successfully. Buy a developer a beer!
