                               Psi4 1.4a2.dev629

  ==> Input File <==

--------------------------------------------------------------------------
import os
memory 14 GB

molecule {
 C   -0.3247898530   -0.0000033136    0.0053439051
 C    0.0621264980   -1.4012824843   -2.4259799824
 C    0.0618762121    2.8016595120    0.0011077184
 C    0.0618664297   -1.4003719157    2.4266182817
 H    2.0866838939   -1.6439434079   -2.8481818778
 H   -0.7651961816   -0.3888161899   -4.0264597341
 H   -0.7661926919   -3.2914821681   -2.3496164809
 H    2.0867478158    3.2881413494   -0.0010041285
 H   -0.7666399311    3.6793865677    1.6757144707
 H   -0.7649760277    3.6811040697   -1.6771744494
 H    2.0870921107   -1.6442906810    2.8467751340
 H   -0.7652693850   -3.2924107290    2.3484125428
 H   -0.7659367668   -0.3877149229    4.0244446005
units bohr
0 2
}

basis {

assign 6-31g_2dfp_

[ 6-31g_2dfp_ ]

spherical

!----------------------------------------------------------------------
! Basis Set Exchange
! Version v0.8.13
! https://www.basissetexchange.org
!----------------------------------------------------------------------
!   Basis set: 6-31G(2df,p)
! Description: 6-31G(2df,p)
!        Role: orbital
!     Version: 0  (Data from the original Basis Set Exchange)
!----------------------------------------------------------------------

****
H     0
S    3   1.00
     18.7311370              0.03349460
      2.8253937              0.23472695
      0.6401217              0.81375733
S    1   1.00
      0.1612778              1.00000000
P    1   1.00
      1.5000000              1.0000000
P    1   1.00
      0.3750000              1.0000000
****
B     0
S    6   1.00
   2068.8823000              0.0018663
    310.6495700              0.0142515
     70.6830330              0.0695516
     19.8610800              0.2325729
      6.2993048              0.4670787
      2.1270270              0.3634314
SP   3   1.00
      4.7279710             -0.1303938              0.0745976
      1.1903377             -0.1307889              0.3078467
      0.3594117              1.1309444              0.7434568
SP   1   1.00
      0.1267512              1.0000000              1.0000000
D    1   1.00
      0.8020000              1.0000000
D    1   1.00
      0.2005000              1.0000000
F    1   1.00
      0.5000000              1.0000000
****
C     0
S    6   1.00
   3047.5249000              0.0018347
    457.3695100              0.0140373
    103.9486900              0.0688426
     29.2101550              0.2321844
      9.2866630              0.4679413
      3.1639270              0.3623120
SP   3   1.00
      7.8682724             -0.1193324              0.0689991
      1.8812885             -0.1608542              0.3164240
      0.5442493              1.1434564              0.7443083
SP   1   1.00
      0.1687144              1.0000000              1.0000000
D    1   1.00
      1.2520000              1.0000000
D    1   1.00
      0.3130000              1.0000000
F    1   1.00
      0.8000000              1.0000000
****
N     0
S    6   1.00
   4173.5110000              0.0018348
    627.4579000              0.0139950
    142.9021000              0.0685870
     40.2343300              0.2322410
     12.8202100              0.4690700
      4.3904370              0.3604550
SP   3   1.00
     11.6263580             -0.1149610              0.0675800
      2.7162800             -0.1691180              0.3239070
      0.7722180              1.1458520              0.7408950
SP   1   1.00
      0.2120313              1.0000000              1.0000000
D    1   1.00
      1.8260000              1.0000000
D    1   1.00
      0.4565000              1.0000000
F    1   1.00
      1.0000000              1.0000000
****
O     0
S    6   1.00
   5484.6717000              0.0018311
    825.2349500              0.0139501
    188.0469600              0.0684451
     52.9645000              0.2327143
     16.8975700              0.4701930
      5.7996353              0.3585209
SP   3   1.00
     15.5396160             -0.1107775              0.0708743
      3.5999336             -0.1480263              0.3397528
      1.0137618              1.1307670              0.7271586
SP   1   1.00
      0.2700058              1.0000000              1.0000000
D    1   1.00
      2.5840000              1.0000000
D    1   1.00
      0.6460000              1.0000000
F    1   1.00
      1.4000000              1.0000000
****
F     0
S    6   1.00
   7001.7130900              0.0018196169
   1051.3660900              0.0139160796
    239.2856900              0.0684053245
     67.3974453              0.233185760
     21.5199573              0.471267439
      7.40310130             0.356618546
SP   3   1.00
     20.8479528             -0.108506975            0.0716287243
      4.80830834            -0.146451658            0.3459121030
      1.34406986             1.128688580            0.7224699570
SP   1   1.00
      0.358151393            1.0000000              1.0000000
D    1   1.00
      3.5000000              1.0000000
D    1   1.00
      0.8750000              1.0000000
F    1   1.00
      1.8500000              1.0000000
****
Al     0
S    6   1.00
  13983.1000000              0.00194267
   2098.7500000              0.0148599
    477.7050000              0.0728494
    134.3600000              0.2468300
     42.8709000              0.4872580
     14.5189000              0.3234960
SP   6   1.00
    239.6680000             -0.00292619             0.00460285
     57.4419000             -0.0374080              0.0331990
     18.2859000             -0.1144870              0.1362820
      6.5991400              0.1156350              0.3304760
      2.4904900              0.6125950              0.4491460
      0.9445400              0.3937990              0.2657040
SP   3   1.00
      1.2779000             -0.2276060             -0.0175130
      0.3975900              0.00144583             0.2445330
      0.1600950              1.0927900              0.8049340
SP   1   1.00
      0.0556577              1.0000000              1.0000000
D    1   1.00
      0.6500000              1.0000000
D    1   1.00
      0.1625000              1.0000000
F    1   1.00
      0.2500000              1.0000000
****
Si     0
S    6   1.00
  16115.9000000              0.00195948
   2425.5800000              0.01492880
    553.8670000              0.07284780
    156.3400000              0.24613000
     50.0683000              0.48591400
     17.0178000              0.32500200
SP   6   1.00
    292.7180000             -0.00278094             0.00443826
     69.8731000             -0.03571460             0.03266790
     22.3363000             -0.11498500             0.13472100
      8.1503900              0.09356340             0.32867800
      3.1345800              0.60301700             0.44964000
      1.2254300              0.41895900             0.26137200
SP   3   1.00
      1.7273800             -0.24463000            -0.01779510
      0.5729220              0.00431572             0.25353900
      0.2221920              1.09818000             0.80066900
SP   1   1.00
      0.0778369              1.00000000             1.00000000
D    1   1.00
      0.9000000              1.0000000
D    1   1.00
      0.2250000              1.0000000
F    1   1.00
      0.3200000              1.0000000
****
P     0
S    6   1.00
  19413.3000000              0.0018516
   2909.4200000              0.0142062
    661.3640000              0.0699995
    185.7590000              0.2400790
     59.1943000              0.4847620
     20.0310000              0.3352000
SP   6   1.00
    339.4780000             -0.00278217             0.00456462
     81.0101000             -0.0360499              0.03369360
     25.8780000             -0.1166310              0.13975500
      9.4522100              0.0968328              0.33936200
      3.6656600              0.6144180              0.45092100
      1.4674600              0.4037980              0.23858600
SP   3   1.00
      2.1562300             -0.2529230             -0.01776530
      0.7489970              0.0328517              0.27405800
      0.2831450              1.0812500              0.78542100
SP   1   1.00
      0.0998317              1.0000000              1.00000000
D    1   1.00
      1.1000000              1.0000000
D    1   1.00
      0.2750000              1.0000000
F    1   1.00
      0.4500000              1.0000000
****
S     0
S    6   1.00
  21917.1000000              0.0018690
   3301.4900000              0.0142300
    754.1460000              0.0696960
    212.7110000              0.2384870
     67.9896000              0.4833070
     23.0515000              0.3380740
SP   6   1.00
    423.7350000             -0.0023767              0.0040610
    100.7100000             -0.0316930              0.0306810
     32.1599000             -0.1133170              0.1304520
     11.8079000              0.0560900              0.3272050
      4.6311000              0.5922550              0.4528510
      1.8702500              0.4550060              0.2560420
SP   3   1.00
      2.6158400             -0.2503740             -0.0145110
      0.9221670              0.0669570              0.3102630
      0.3412870              1.0545100              0.7544830
SP   1   1.00
      0.1171670              1.0000000              1.0000000
D    1   1.00
      1.3000000              1.0000000
D    1   1.00
      0.3250000              1.0000000
F    1   1.00
      0.5500000              1.0000000
****
Cl     0
S    6   1.00
  25180.1000000              0.0018330
   3780.3500000              0.0140340
    860.4740000              0.0690970
    242.1450000              0.2374520
     77.3349000              0.4830340
     26.2470000              0.3398560
SP   6   1.00
    491.7650000             -0.0022974              0.0039894
    116.9840000             -0.0307140              0.0303180
     37.4153000             -0.1125280              0.1298800
     13.7834000              0.0450160              0.3279510
      5.4521500              0.5893530              0.4535270
      2.2258800              0.4652060              0.2521540
SP   3   1.00
      3.1864900             -0.2518300             -0.0142990
      1.1442700              0.0615890              0.3235720
      0.4203770              1.0601800              0.7435070
SP   1   1.00
      0.1426570              1.0000000              1.0000000
D    1   1.00
      1.5000000              1.0000000
D    1   1.00
      0.3750000              1.0000000
F    1   1.00
      0.7000000              1.0000000
****
}

set {
reference uhf
freeze_core true
e_convergence 10
d_convergence 10
dft_spherical_points 1202
dft_radial_points 99
}

e = energy('b3lyp')

print_out('Grab this energy {0}'.format(e))
--------------------------------------------------------------------------

    Molecular point group: c1

    Geometry (in Bohr), charge = 0, multiplicity = 2:

       Center              X                  Y                   Z               Mass
    ------------   -----------------  -----------------  -----------------  -----------------
         C           -0.325005432777    -0.000003230623     0.003978334901    12.000000000000
         C            0.061910918223    -1.401282401323    -2.427345552599    12.000000000000
         C            0.061660632323     2.801659594977    -0.000257851799    12.000000000000
         C            0.061650849923    -1.400371832723     2.425252711501    12.000000000000
         H            2.086468314123    -1.643943324923    -2.849547447999     1.007825032230
         H           -0.765411761377    -0.388816106923    -4.027825304299     1.007825032230
         H           -0.766408271677    -3.291482085123    -2.350982051099     1.007825032230
         H            2.086532236023     3.288141432377    -0.002369698699     1.007825032230
         H           -0.766855510877     3.679386650677     1.674348900501     1.007825032230
         H           -0.765191607477     3.681104152677    -1.678540019599     1.007825032230
         H            2.086876530923    -1.644290598023     2.845409563801     1.007825032230
         H           -0.765484964777    -3.292410646023     2.347046972601     1.007825032230
         H           -0.766152346577    -0.387714839923     4.023079030301     1.007825032230

  Charge       = 0
  Multiplicity = 2
  Basis Set: ANONYMOUS5EDD2E38
    Blend: 6-31G_2DFP_
  Basis Set: (ANONYMOUS5EDD2E38 AUX)
    Blend: DEF2-UNIVERSAL-JKFIT

    Orbital Energies [Eh]
    ---------------------

    Alpha Occupied:

       1A    -10.180407     2A    -10.167043     3A    -10.167011
       4A    -10.166965     5A     -0.797754     6A     -0.686358
       7A     -0.685980     8A     -0.530781     9A     -0.441187
      10A     -0.434820    11A     -0.434391    12A     -0.382825
      13A     -0.382590    14A     -0.363483    15A     -0.338425
      16A     -0.337387    17A     -0.169144

    Alpha Virtual:

      18A      0.076075    19A      0.134138    20A      0.134166
      21A      0.142429    22A      0.142779    23A      0.154959
      24A      0.178841    25A      0.178853    26A      0.203569
      27A      0.214755    28A      0.275522    29A      0.276102
      30A      0.399085    31A      0.399334    32A      0.403264
      33A      0.424068    34A      0.424070    35A      0.456686
      36A      0.495315    37A      0.495413    38A      0.512206
      39A      0.513878    40A      0.578745    41A      0.579140
      42A      0.591663    43A      0.591675    44A      0.602792
      45A      0.624671    46A      0.631715    47A      0.635944
      48A      0.636247    49A      0.663504    50A      0.663638
      51A      0.683692    52A      0.683792    53A      0.734797
      54A      0.825243    55A      0.825460    56A      0.853918
      57A      0.914845    58A      0.915070    59A      0.944175
      60A      0.944668    61A      0.961135    62A      0.961482
      63A      1.003455    64A      1.127940    65A      1.128433
      66A      1.142280    67A      1.163311    68A      1.164086
      69A      1.223166    70A      1.273962    71A      1.274894
      72A      1.279591    73A      1.324011    74A      1.324204
      75A      1.356232    76A      1.365411    77A      1.365951
      78A      1.392450    79A      1.404044    80A      1.404139
      81A      1.417034    82A      1.417667    83A      1.427974
      84A      1.491308    85A      1.499472    86A      1.542875
      87A      1.542891    88A      1.574140    89A      1.574183
      90A      1.669553    91A      1.738978    92A      1.739382
      93A      1.768365    94A      1.830751    95A      1.831261
      96A      1.971467    97A      2.017291    98A      2.018781
      99A      2.019918   100A      2.052502   101A      2.053568
     102A      2.738053   103A      2.738527   104A      2.791123
     105A      2.811393   106A      2.889141   107A      2.890267
     108A      2.895255   109A      2.929128   110A      2.929903
     111A      2.958923   112A      2.964114   113A      2.964424
     114A      3.034349   115A      3.069942   116A      3.070952
     117A      3.084277   118A      3.168801   119A      3.168948
     120A      3.180625   121A      3.285810   122A      3.286403
     123A      3.327137   124A      3.327896   125A      3.375771
     126A      3.489392   127A      3.490448   128A      3.513846
     129A      3.525799   130A      3.567873   131A      3.568326
     132A      3.575762   133A      3.665499   134A      3.666115
     135A      3.679437   136A      3.694145   137A      3.694202
     138A      3.775776   139A      3.777255   140A      3.787906
     141A      3.911744   142A      3.912662   143A      4.034125
     144A      4.110818   145A      4.111450   146A      4.147111
     147A      4.149068   148A      4.173207   149A      4.202013
     150A      4.203082   151A      4.203878   152A      4.210931
     153A      4.315599   154A      4.316731   155A      4.359462
     156A      4.424231   157A      4.424346   158A      4.443181
     159A      4.517011   160A      4.517269   161A      4.578032
     162A      4.578460   163A      4.617339   164A      4.709788
     165A      4.773888   166A      4.775015   167A      4.835693
     168A      4.962922   169A      5.002866   170A      5.003377
     171A      5.227937   172A      5.246680   173A      5.246737
     174A      5.354670   175A      5.355786   176A      5.478981

    Beta Occupied:

       1A    -10.167793     2A    -10.167766     3A    -10.167734
       4A    -10.166580     5A     -0.781083     6A     -0.684146
       7A     -0.683792     8A     -0.511744     9A     -0.431182
      10A     -0.430760    11A     -0.421906    12A     -0.376880
      13A     -0.376727    14A     -0.362465    15A     -0.333562
      16A     -0.332504

    Beta Virtual:

      17A     -0.025844    18A      0.077080    19A      0.135028
      20A      0.135034    21A      0.144312    22A      0.144642
      23A      0.163407    24A      0.182501    25A      0.182537
      26A      0.214984    27A      0.218930    28A      0.281917
      29A      0.282427    30A      0.400256    31A      0.400500
      32A      0.419685    33A      0.426872    34A      0.426892
      35A      0.468608    36A      0.497577    37A      0.497681
      38A      0.513937    39A      0.556221    40A      0.584260
      41A      0.584701    42A      0.597850    43A      0.597857
      44A      0.610190    45A      0.628067    46A      0.631871
      47A      0.639223    48A      0.639554    49A      0.667077
      50A      0.667199    51A      0.686320    52A      0.686423
      53A      0.757340    54A      0.830420    55A      0.830629
      56A      0.855267    57A      0.922800    58A      0.923078
      59A      0.946008    60A      0.953590    61A      0.966401
      62A      0.966763    63A      1.008714    64A      1.132010
      65A      1.132453    66A      1.155610    67A      1.168387
      68A      1.169149    69A      1.232135    70A      1.279629
      71A      1.280454    72A      1.285352    73A      1.329020
      74A      1.329190    75A      1.365622    76A      1.370698
      77A      1.371144    78A      1.393502    79A      1.407454
      80A      1.407658    81A      1.422067    82A      1.422688
      83A      1.428251    84A      1.492354    85A      1.509923
      86A      1.547275    87A      1.547303    88A      1.582029
      89A      1.582040    90A      1.674416    91A      1.744734
      92A      1.745145    93A      1.779125    94A      1.834583
      95A      1.835122    96A      1.972325    97A      2.025186
      98A      2.026299    99A      2.038676   100A      2.059252
     101A      2.060293   102A      2.746358   103A      2.746893
     104A      2.811814   105A      2.816239   106A      2.901960
     107A      2.902911   108A      2.924947   109A      2.931545
     110A      2.932425   111A      2.959987   112A      2.968670
     113A      2.968976   114A      3.042243   115A      3.079965
     116A      3.080825   117A      3.086088   118A      3.184379
     119A      3.184562   120A      3.188469   121A      3.290610
     122A      3.291121   123A      3.330947   124A      3.331711
     125A      3.383600   126A      3.492129   127A      3.493202
     128A      3.512219   129A      3.528853   130A      3.575617
     131A      3.581308   132A      3.581671   133A      3.670299
     134A      3.670764   135A      3.692729   136A      3.725670
     137A      3.725953   138A      3.780368   139A      3.781828
     140A      3.816408   141A      3.921529   142A      3.922442
     143A      4.045040   144A      4.117665   145A      4.118207
     146A      4.154357   147A      4.156264   148A      4.187226
     149A      4.208731   150A      4.209502   151A      4.210590
     152A      4.215388   153A      4.322996   154A      4.324256
     155A      4.362825   156A      4.432405   157A      4.432512
     158A      4.446072   159A      4.524738   160A      4.525088
     161A      4.588647   162A      4.589090   163A      4.624547
     164A      4.720160   165A      4.780820   166A      4.782020
     167A      4.838621   168A      4.967711   169A      5.006907
     170A      5.007389   171A      5.233654   172A      5.248470
     173A      5.248516   174A      5.361132   175A      5.362301
     176A      5.481309

    Final Occupation by Irrep:
              A
    DOCC [    16 ]
    SOCC [     1 ]

  @DF-UKS Final Energy:  -157.81305626279914

   => Energetics <=

    Nuclear Repulsion Energy =            125.3922701526628600
    One-Electron Energy =                -458.7443579299734324
    Two-Electron Energy =                 195.8461081267897441
    DFT Exchange-Correlation Energy =     -20.3070766122783333
    Empirical Dispersion Energy =           0.0000000000000000
    VV10 Nonlocal Energy =                  0.0000000000000000
    Total Energy =                       -157.8130562627991367

  UHF NO Occupations:
  HONO-2 :   15  A 1.9996024
  HONO-1 :   16  A 1.9989820
  HONO-0 :   17  A 1.0000000
  LUNO+0 :   18  A 0.0010180
  LUNO+1 :   19  A 0.0003976
  LUNO+2 :   20  A 0.0001987
  LUNO+3 :   21  A 0.0001966

Computation Completed

Properties will be evaluated at   0.000000,   0.000000,   0.000000 [a0]

Properties computed using the SCF density matrix

  Nuclear Dipole Moment: [e a0]
     X:     0.8257      Y:    -0.0000      Z:    -0.0096

  Electronic Dipole Moment: [e a0]
     X:    -0.7470      Y:     0.0000      Z:     0.0108

  Dipole Moment: [e a0]
     X:     0.0787      Y:     0.0000      Z:     0.0012     Total:     0.0787

  Dipole Moment: [D]
     X:     0.2000      Y:     0.0000      Z:     0.0031     Total:     0.2000

*** tstop() called on n089 at Fri Nov  5 11:33:27 2021
Module time:
	user time   =     510.29 seconds =       8.50 minutes
	system time =       4.66 seconds =       0.08 minutes
	total time  =        130 seconds =       2.17 minutes
Total time:
	user time   =     510.29 seconds =       8.50 minutes
	system time =       4.66 seconds =       0.08 minutes
	total time  =        130 seconds =       2.17 minutes
Grab this energy -157.81305626279914
    Psi4 stopped on: Friday, 05 November 2021 11:33AM
    Psi4 wall time for execution: 0:02:09.53

*** Psi4 exiting successfully. Buy a developer a beer!
