                               Psi4 1.4a2.dev629

  ==> Input File <==

--------------------------------------------------------------------------
import os
memory 14 GB

molecule {
 C   -0.3191480746   -0.0000019431   -0.0000000000
 C    0.0635262630   -1.4007103791   -2.4260912888
 C    0.0634065509    2.8014252878    0.0000000000
 C    0.0635262630   -1.4007103791    2.4260912888
 H    2.0832953618   -1.6437533187   -2.8468451540
 H   -0.7654759405   -0.3867818542   -4.0268840704
 H   -0.7656398142   -3.2939345318   -2.3484423310
 H    2.0831562626    3.2874146638    0.0000000000
 H   -0.7657171779    3.6807489227    1.6784484296
 H   -0.7657171779    3.6807489227   -1.6784484296
 H    2.0832953618   -1.6437533187    2.8468451540
 H   -0.7656398142   -3.2939345318    2.3484423310
 H   -0.7654759405   -0.3867818542    4.0268840704
units bohr
0 2
}

basis {

assign 6-31g_2dfp_

[ 6-31g_2dfp_ ]

spherical

!----------------------------------------------------------------------
! Basis Set Exchange
! Version v0.8.13
! https://www.basissetexchange.org
!----------------------------------------------------------------------
!   Basis set: 6-31G(2df,p)
! Description: 6-31G(2df,p)
!        Role: orbital
!     Version: 0  (Data from the original Basis Set Exchange)
!----------------------------------------------------------------------

****
H     0
S    3   1.00
     18.7311370              0.03349460
      2.8253937              0.23472695
      0.6401217              0.81375733
S    1   1.00
      0.1612778              1.00000000
P    1   1.00
      1.5000000              1.0000000
P    1   1.00
      0.3750000              1.0000000
****
B     0
S    6   1.00
   2068.8823000              0.0018663
    310.6495700              0.0142515
     70.6830330              0.0695516
     19.8610800              0.2325729
      6.2993048              0.4670787
      2.1270270              0.3634314
SP   3   1.00
      4.7279710             -0.1303938              0.0745976
      1.1903377             -0.1307889              0.3078467
      0.3594117              1.1309444              0.7434568
SP   1   1.00
      0.1267512              1.0000000              1.0000000
D    1   1.00
      0.8020000              1.0000000
D    1   1.00
      0.2005000              1.0000000
F    1   1.00
      0.5000000              1.0000000
****
C     0
S    6   1.00
   3047.5249000              0.0018347
    457.3695100              0.0140373
    103.9486900              0.0688426
     29.2101550              0.2321844
      9.2866630              0.4679413
      3.1639270              0.3623120
SP   3   1.00
      7.8682724             -0.1193324              0.0689991
      1.8812885             -0.1608542              0.3164240
      0.5442493              1.1434564              0.7443083
SP   1   1.00
      0.1687144              1.0000000              1.0000000
D    1   1.00
      1.2520000              1.0000000
D    1   1.00
      0.3130000              1.0000000
F    1   1.00
      0.8000000              1.0000000
****
N     0
S    6   1.00
   4173.5110000              0.0018348
    627.4579000              0.0139950
    142.9021000              0.0685870
     40.2343300              0.2322410
     12.8202100              0.4690700
      4.3904370              0.3604550
SP   3   1.00
     11.6263580             -0.1149610              0.0675800
      2.7162800             -0.1691180              0.3239070
      0.7722180              1.1458520              0.7408950
SP   1   1.00
      0.2120313              1.0000000              1.0000000
D    1   1.00
      1.8260000              1.0000000
D    1   1.00
      0.4565000              1.0000000
F    1   1.00
      1.0000000              1.0000000
****
O     0
S    6   1.00
   5484.6717000              0.0018311
    825.2349500              0.0139501
    188.0469600              0.0684451
     52.9645000              0.2327143
     16.8975700              0.4701930
      5.7996353              0.3585209
SP   3   1.00
     15.5396160             -0.1107775              0.0708743
      3.5999336             -0.1480263              0.3397528
      1.0137618              1.1307670              0.7271586
SP   1   1.00
      0.2700058              1.0000000              1.0000000
D    1   1.00
      2.5840000              1.0000000
D    1   1.00
      0.6460000              1.0000000
F    1   1.00
      1.4000000              1.0000000
****
F     0
S    6   1.00
   7001.7130900              0.0018196169
   1051.3660900              0.0139160796
    239.2856900              0.0684053245
     67.3974453              0.233185760
     21.5199573              0.471267439
      7.40310130             0.356618546
SP   3   1.00
     20.8479528             -0.108506975            0.0716287243
      4.80830834            -0.146451658            0.3459121030
      1.34406986             1.128688580            0.7224699570
SP   1   1.00
      0.358151393            1.0000000              1.0000000
D    1   1.00
      3.5000000              1.0000000
D    1   1.00
      0.8750000              1.0000000
F    1   1.00
      1.8500000              1.0000000
****
Al     0
S    6   1.00
  13983.1000000              0.00194267
   2098.7500000              0.0148599
    477.7050000              0.0728494
    134.3600000              0.2468300
     42.8709000              0.4872580
     14.5189000              0.3234960
SP   6   1.00
    239.6680000             -0.00292619             0.00460285
     57.4419000             -0.0374080              0.0331990
     18.2859000             -0.1144870              0.1362820
      6.5991400              0.1156350              0.3304760
      2.4904900              0.6125950              0.4491460
      0.9445400              0.3937990              0.2657040
SP   3   1.00
      1.2779000             -0.2276060             -0.0175130
      0.3975900              0.00144583             0.2445330
      0.1600950              1.0927900              0.8049340
SP   1   1.00
      0.0556577              1.0000000              1.0000000
D    1   1.00
      0.6500000              1.0000000
D    1   1.00
      0.1625000              1.0000000
F    1   1.00
      0.2500000              1.0000000
****
Si     0
S    6   1.00
  16115.9000000              0.00195948
   2425.5800000              0.01492880
    553.8670000              0.07284780
    156.3400000              0.24613000
     50.0683000              0.48591400
     17.0178000              0.32500200
SP   6   1.00
    292.7180000             -0.00278094             0.00443826
     69.8731000             -0.03571460             0.03266790
     22.3363000             -0.11498500             0.13472100
      8.1503900              0.09356340             0.32867800
      3.1345800              0.60301700             0.44964000
      1.2254300              0.41895900             0.26137200
SP   3   1.00
      1.7273800             -0.24463000            -0.01779510
      0.5729220              0.00431572             0.25353900
      0.2221920              1.09818000             0.80066900
SP   1   1.00
      0.0778369              1.00000000             1.00000000
D    1   1.00
      0.9000000              1.0000000
D    1   1.00
      0.2250000              1.0000000
F    1   1.00
      0.3200000              1.0000000
****
P     0
S    6   1.00
  19413.3000000              0.0018516
   2909.4200000              0.0142062
    661.3640000              0.0699995
    185.7590000              0.2400790
     59.1943000              0.4847620
     20.0310000              0.3352000
SP   6   1.00
    339.4780000             -0.00278217             0.00456462
     81.0101000             -0.0360499              0.03369360
     25.8780000             -0.1166310              0.13975500
      9.4522100              0.0968328              0.33936200
      3.6656600              0.6144180              0.45092100
      1.4674600              0.4037980              0.23858600
SP   3   1.00
      2.1562300             -0.2529230             -0.01776530
      0.7489970              0.0328517              0.27405800
      0.2831450              1.0812500              0.78542100
SP   1   1.00
      0.0998317              1.0000000              1.00000000
D    1   1.00
      1.1000000              1.0000000
D    1   1.00
      0.2750000              1.0000000
F    1   1.00
      0.4500000              1.0000000
****
S     0
S    6   1.00
  21917.1000000              0.0018690
   3301.4900000              0.0142300
    754.1460000              0.0696960
    212.7110000              0.2384870
     67.9896000              0.4833070
     23.0515000              0.3380740
SP   6   1.00
    423.7350000             -0.0023767              0.0040610
    100.7100000             -0.0316930              0.0306810
     32.1599000             -0.1133170              0.1304520
     11.8079000              0.0560900              0.3272050
      4.6311000              0.5922550              0.4528510
      1.8702500              0.4550060              0.2560420
SP   3   1.00
      2.6158400             -0.2503740             -0.0145110
      0.9221670              0.0669570              0.3102630
      0.3412870              1.0545100              0.7544830
SP   1   1.00
      0.1171670              1.0000000              1.0000000
D    1   1.00
      1.3000000              1.0000000
D    1   1.00
      0.3250000              1.0000000
F    1   1.00
      0.5500000              1.0000000
****
Cl     0
S    6   1.00
  25180.1000000              0.0018330
   3780.3500000              0.0140340
    860.4740000              0.0690970
    242.1450000              0.2374520
     77.3349000              0.4830340
     26.2470000              0.3398560
SP   6   1.00
    491.7650000             -0.0022974              0.0039894
    116.9840000             -0.0307140              0.0303180
     37.4153000             -0.1125280              0.1298800
     13.7834000              0.0450160              0.3279510
      5.4521500              0.5893530              0.4535270
      2.2258800              0.4652060              0.2521540
SP   3   1.00
      3.1864900             -0.2518300             -0.0142990
      1.1442700              0.0615890              0.3235720
      0.4203770              1.0601800              0.7435070
SP   1   1.00
      0.1426570              1.0000000              1.0000000
D    1   1.00
      1.5000000              1.0000000
D    1   1.00
      0.3750000              1.0000000
F    1   1.00
      0.7000000              1.0000000
****
}

set {
reference uhf
freeze_core true
e_convergence 10
d_convergence 10
dft_spherical_points 1202
dft_radial_points 99
}

e = energy('b3lyp')

print_out('Grab this energy {0}'.format(e))
--------------------------------------------------------------------------

    Molecular point group: cs

    Geometry (in Bohr), charge = 0, multiplicity = 2:

       Center              X                  Y                   Z               Mass
    ------------   -----------------  -----------------  -----------------  -----------------
         C           -0.321334356481    -0.000002011915     0.000000000000    12.000000000000
         C            0.061339981119    -1.400710447915    -2.426091288800    12.000000000000
         C            0.061220269019     2.801425218985     0.000000000000    12.000000000000
         C            0.061339981119    -1.400710447915     2.426091288800    12.000000000000
         H            2.081109079919    -1.643753387515    -2.846845154000     1.007825032230
         H           -0.767662222381    -0.386781923015    -4.026884070400     1.007825032230
         H           -0.767826096081    -3.293934600615    -2.348442331000     1.007825032230
         H            2.080969980719     3.287414594985     0.000000000000     1.007825032230
         H           -0.767903459781     3.680748853885     1.678448429600     1.007825032230
         H           -0.767903459781     3.680748853885    -1.678448429600     1.007825032230
         H            2.081109079919    -1.643753387515     2.846845154000     1.007825032230
         H           -0.767826096081    -3.293934600615     2.348442331000     1.007825032230
         H           -0.767662222381    -0.386781923015     4.026884070400     1.007825032230

  Charge       = 0
  Multiplicity = 2
  Basis Set: ANONYMOUS6EAF93A6
    Blend: 6-31G_2DFP_
  Basis Set: (ANONYMOUS6EAF93A6 AUX)
    Blend: DEF2-UNIVERSAL-JKFIT

    Orbital Energies [Eh]
    ---------------------

    Alpha Occupied:

       1Ap   -10.180172     2Ap   -10.167003     1App  -10.167003
       3Ap   -10.166957     4Ap    -0.797858     5Ap    -0.686207
       2App   -0.686207     6Ap    -0.530766     7Ap    -0.441455
       3App   -0.434484     8Ap    -0.434483     9Ap    -0.382982
       4App   -0.382981     5App   -0.363152     6App   -0.337897
      10Ap    -0.337897    11Ap    -0.168810

    Alpha Virtual:

      12Ap     0.075970    13Ap     0.134131     7App    0.134132
      14Ap     0.142486     8App    0.142486    15Ap     0.155109
      16Ap     0.179065     9App    0.179065    17Ap     0.203635
      10App    0.214396    11App    0.276148    18Ap     0.276150
      19Ap     0.399363    12App    0.399368    20Ap     0.403463
      13App    0.423914    21Ap     0.423914    22Ap     0.456675
      23Ap     0.495160    14App    0.495161    15App    0.512383
      24Ap     0.514129    25Ap     0.578883    16App    0.578891
      17App    0.592211    26Ap     0.592212    27Ap     0.603636
      28Ap     0.624120    18App    0.631250    19App    0.635743
      29Ap     0.635747    30Ap     0.664083    20App    0.664084
      31Ap     0.683580    21App    0.683581    32Ap     0.735062
      22App    0.825611    33Ap     0.825614    23App    0.854148
      24App    0.915412    34Ap     0.915417    25App    0.943943
      35Ap     0.944488    26App    0.961294    36Ap     0.961310
      37Ap     1.002760    38Ap     1.127621    27App    1.127634
      39Ap     1.143312    40Ap     1.163148    28App    1.163161
      41Ap     1.223328    42Ap     1.275017    29App    1.275020
      43Ap     1.279662    30App    1.324445    44Ap     1.324448
      45Ap     1.356486    31App    1.365764    46Ap     1.365768
      32App    1.392414    47Ap     1.405706    33App    1.405708
      34App    1.416735    48Ap     1.416742    35App    1.428320
      36App    1.491045    49Ap     1.500536    37App    1.542801
      50Ap     1.542802    51Ap     1.574001    38App    1.574003
      52Ap     1.668028    53Ap     1.740478    39App    1.740489
      54Ap     1.770376    40App    1.829672    55Ap     1.829672
      41App    1.970150    56Ap     2.018677    57Ap     2.019206
      42App    2.019211    43App    2.054424    58Ap     2.054425
      44App    2.738499    59Ap     2.738500    60Ap     2.791542
      45App    2.810696    61Ap     2.890507    46App    2.890513
      62Ap     2.895237    63Ap     2.929138    47App    2.929146
      48App    2.958972    64Ap     2.964825    49App    2.964840
      65Ap     3.034761    50App    3.071932    66Ap     3.071945
      51App    3.082893    67Ap     3.168921    52App    3.168929
      68Ap     3.180439    53App    3.285072    69Ap     3.285073
      70Ap     3.325603    54App    3.325609    71Ap     3.375736
      55App    3.490569    72Ap     3.490589    56App    3.515684
      73Ap     3.523982    57App    3.569198    74Ap     3.569218
      58App    3.576440    75Ap     3.666764    59App    3.666771
      76Ap     3.678015    60App    3.694235    77Ap     3.694250
      78Ap     3.777252    61App    3.777278    79Ap     3.791226
      80Ap     3.911563    62App    3.911569    81Ap     4.035149
      82Ap     4.111027    63App    4.111032    83Ap     4.148450
      64App    4.148458    84Ap     4.175016    65App    4.202564
      85Ap     4.202568    86Ap     4.203234    66App    4.212060
      87Ap     4.316621    67App    4.316641    68App    4.357648
      88Ap     4.425772    69App    4.425775    70App    4.442351
      71App    4.517389    89Ap     4.517391    72App    4.577500
      90Ap     4.577512    91Ap     4.618415    92Ap     4.710490
      93Ap     4.774746    73App    4.774753    74App    4.835776
      94Ap     4.962482    75App    5.004947    95Ap     5.004959
      96Ap     5.230910    76App    5.243806    97Ap     5.243806
      98Ap     5.357070    77App    5.357083    78App    5.477916

    Beta Occupied:

       1Ap   -10.167756     1App  -10.167755     2Ap   -10.167728
       3Ap   -10.166341     4Ap    -0.781161     5Ap    -0.683994
       2App   -0.683993     6Ap    -0.511683     3App   -0.430819
       7Ap    -0.430818     8Ap    -0.422218     9Ap    -0.377105
       4App   -0.377103     5App   -0.362125     6App   -0.333026
      10Ap    -0.333026

    Beta Virtual:

      11Ap    -0.025468    12Ap     0.076963    13Ap     0.134924
       7App    0.134925    14Ap     0.144386     8App    0.144386
      15Ap     0.163517    16Ap     0.182774     9App    0.182775
      10App    0.214636    17Ap     0.219041    11App    0.282479
      18Ap     0.282482    19Ap     0.400526    12App    0.400530
      20Ap     0.419755    13App    0.426729    21Ap     0.426729
      22Ap     0.468747    23Ap     0.497411    14App    0.497412
      15App    0.514106    24Ap     0.556561    25Ap     0.584414
      16App    0.584422    17App    0.598382    26Ap     0.598383
      27Ap     0.610889    28Ap     0.627675    18App    0.631406
      19App    0.639086    29Ap     0.639090    30Ap     0.667588
      20App    0.667589    31Ap     0.686230    21App    0.686231
      32Ap     0.757582    22App    0.830738    33Ap     0.830740
      23App    0.855490    24App    0.923360    34Ap     0.923366
      25App    0.945788    35Ap     0.953402    26App    0.966653
      36Ap     0.966669    37Ap     1.007991    38Ap     1.131718
      27App    1.131730    39Ap     1.156600    40Ap     1.168184
      28App    1.168196    41Ap     1.232324    42Ap     1.280619
      29App    1.280623    43Ap     1.285480    30App    1.329330
      44Ap     1.329332    45Ap     1.365940    31App    1.370938
      46Ap     1.370942    32App    1.393444    47Ap     1.409236
      33App    1.409239    34App    1.421839    48Ap     1.421846
      35App    1.428598    36App    1.492115    49Ap     1.510992
      50Ap     1.547072    37App    1.547073    38App    1.581991
      51Ap     1.581992    52Ap     1.672840    53Ap     1.746236
      39App    1.746247    54Ap     1.781164    40App    1.833532
      55Ap     1.833533    41App    1.971024    56Ap     2.025787
      42App    2.025791    57Ap     2.040033    43App    2.060993
      58Ap     2.060994    44App    2.746823    59Ap     2.746825
      45App    2.811105    60Ap     2.816768    61Ap     2.903207
      46App    2.903212    62Ap     2.925230    63Ap     2.931641
      47App    2.931650    48App    2.960036    64Ap     2.969390
      49App    2.969404    65Ap     3.042445    50App    3.081831
      66Ap     3.081842    51App    3.084704    67Ap     3.184737
      52App    3.184742    68Ap     3.188065    53App    3.289885
      69Ap     3.289885    70Ap     3.329428    54App    3.329433
      71Ap     3.383618    55App    3.493331    72Ap     3.493352
      56App    3.514046    73Ap     3.527078    57App    3.576315
      58App    3.582290    74Ap     3.582312    75Ap     3.671685
      59App    3.671696    76Ap     3.691355    60App    3.725834
      77Ap     3.725850    78Ap     3.781804    61App    3.781830
      79Ap     3.819718    80Ap     3.921320    62App    3.921327
      81Ap     4.045962    82Ap     4.117863    63App    4.117865
      83Ap     4.155649    64App    4.155658    84Ap     4.189021
      65App    4.208395    85Ap     4.208398    86Ap     4.211280
      66App    4.216376    87Ap     4.324135    67App    4.324155
      68App    4.361039    88Ap     4.433929    69App    4.433932
      70App    4.445310    71App    4.525144    89Ap     4.525146
      72App    4.588166    90Ap     4.588178    91Ap     4.625779
      92Ap     4.720623    93Ap     4.781773    73App    4.781780
      74App    4.838707    94Ap     4.967250    75App    5.008948
      95Ap     5.008961    96Ap     5.236691    76App    5.245614
      97Ap     5.245614    98Ap     5.363594    77App    5.363607
      78App    5.480250

    Final Occupation by Irrep:
             Ap   App
    DOCC [    10,    6 ]
    SOCC [     1,    0 ]

  @DF-UKS Final Energy:  -157.81305347233487

   => Energetics <=

    Nuclear Repulsion Energy =            125.4087933511050039
    One-Electron Energy =                -458.7773093870097227
    Two-Electron Energy =                 195.8629791876562365
    DFT Exchange-Correlation Energy =     -20.3075166240864107
    Empirical Dispersion Energy =           0.0000000000000000
    VV10 Nonlocal Energy =                  0.0000000000000000
    Total Energy =                       -157.8130534723348717

  UHF NO Occupations:
  HONO-2 :    9 Ap 1.9996042
  HONO-1 :   10 Ap 1.9989804
  HONO-0 :   11 Ap 1.0000000
  LUNO+0 :   12 Ap 0.0010196
  LUNO+1 :   13 Ap 0.0003958
  LUNO+2 :    7App 0.0001975
  LUNO+3 :   14 Ap 0.0001975

Computation Completed

Properties will be evaluated at   0.000000,   0.000000,   0.000000 [a0]

Properties computed using the SCF density matrix

  Nuclear Dipole Moment: [e a0]
     X:     0.8118      Y:    -0.0000      Z:     0.0000

  Electronic Dipole Moment: [e a0]
     X:    -0.7306      Y:     0.0000      Z:     0.0000

  Dipole Moment: [e a0]
     X:     0.0812      Y:     0.0000      Z:     0.0000     Total:     0.0812

  Dipole Moment: [D]
     X:     0.2064      Y:     0.0000      Z:     0.0000     Total:     0.2064

*** tstop() called on n046 at Fri Nov  5 13:34:10 2021
Module time:
	user time   =     550.72 seconds =       9.18 minutes
	system time =      11.99 seconds =       0.20 minutes
	total time  =        142 seconds =       2.37 minutes
Total time:
	user time   =     550.72 seconds =       9.18 minutes
	system time =      11.99 seconds =       0.20 minutes
	total time  =        142 seconds =       2.37 minutes
Grab this energy -157.81305347233487
    Psi4 stopped on: Friday, 05 November 2021 01:34PM
    Psi4 wall time for execution: 0:02:21.58

*** Psi4 exiting successfully. Buy a developer a beer!
