                               Psi4 1.4a2.dev629

  ==> Input File <==

--------------------------------------------------------------------------
import os
memory 14 GB

molecule {
 C   -0.3233289943   -0.0024278737   -0.0000000000
 C    0.0609239286   -1.4023208827   -2.4267167416
 C    0.0619998699    2.8046543123   -0.0000000000
 C    0.0609239286   -1.4023208827    2.4267167416
 H    2.0856993807   -1.6415431672   -2.8488153224
 H   -0.7700004663   -0.3883248498   -4.0203065841
 H   -0.7626218215   -3.2949856359   -2.3479359877
 H    2.0894178992    3.2867846191    0.0000000000
 H   -0.7643493472    3.6826568499    1.6763638953
 H   -0.7643493472    3.6826568499   -1.6763638953
 H    2.0856993807   -1.6415431672    2.8488153224
 H   -0.7626218215   -3.2949856359    2.3479359877
 H   -0.7700004663   -0.3883248498    4.0203065841
units bohr
0 2
}

basis {

assign 6-31g_2dfp_

[ 6-31g_2dfp_ ]

spherical

!----------------------------------------------------------------------
! Basis Set Exchange
! Version v0.8.13
! https://www.basissetexchange.org
!----------------------------------------------------------------------
!   Basis set: 6-31G(2df,p)
! Description: 6-31G(2df,p)
!        Role: orbital
!     Version: 0  (Data from the original Basis Set Exchange)
!----------------------------------------------------------------------

****
H     0
S    3   1.00
     18.7311370              0.03349460
      2.8253937              0.23472695
      0.6401217              0.81375733
S    1   1.00
      0.1612778              1.00000000
P    1   1.00
      1.5000000              1.0000000
P    1   1.00
      0.3750000              1.0000000
****
B     0
S    6   1.00
   2068.8823000              0.0018663
    310.6495700              0.0142515
     70.6830330              0.0695516
     19.8610800              0.2325729
      6.2993048              0.4670787
      2.1270270              0.3634314
SP   3   1.00
      4.7279710             -0.1303938              0.0745976
      1.1903377             -0.1307889              0.3078467
      0.3594117              1.1309444              0.7434568
SP   1   1.00
      0.1267512              1.0000000              1.0000000
D    1   1.00
      0.8020000              1.0000000
D    1   1.00
      0.2005000              1.0000000
F    1   1.00
      0.5000000              1.0000000
****
C     0
S    6   1.00
   3047.5249000              0.0018347
    457.3695100              0.0140373
    103.9486900              0.0688426
     29.2101550              0.2321844
      9.2866630              0.4679413
      3.1639270              0.3623120
SP   3   1.00
      7.8682724             -0.1193324              0.0689991
      1.8812885             -0.1608542              0.3164240
      0.5442493              1.1434564              0.7443083
SP   1   1.00
      0.1687144              1.0000000              1.0000000
D    1   1.00
      1.2520000              1.0000000
D    1   1.00
      0.3130000              1.0000000
F    1   1.00
      0.8000000              1.0000000
****
N     0
S    6   1.00
   4173.5110000              0.0018348
    627.4579000              0.0139950
    142.9021000              0.0685870
     40.2343300              0.2322410
     12.8202100              0.4690700
      4.3904370              0.3604550
SP   3   1.00
     11.6263580             -0.1149610              0.0675800
      2.7162800             -0.1691180              0.3239070
      0.7722180              1.1458520              0.7408950
SP   1   1.00
      0.2120313              1.0000000              1.0000000
D    1   1.00
      1.8260000              1.0000000
D    1   1.00
      0.4565000              1.0000000
F    1   1.00
      1.0000000              1.0000000
****
O     0
S    6   1.00
   5484.6717000              0.0018311
    825.2349500              0.0139501
    188.0469600              0.0684451
     52.9645000              0.2327143
     16.8975700              0.4701930
      5.7996353              0.3585209
SP   3   1.00
     15.5396160             -0.1107775              0.0708743
      3.5999336             -0.1480263              0.3397528
      1.0137618              1.1307670              0.7271586
SP   1   1.00
      0.2700058              1.0000000              1.0000000
D    1   1.00
      2.5840000              1.0000000
D    1   1.00
      0.6460000              1.0000000
F    1   1.00
      1.4000000              1.0000000
****
F     0
S    6   1.00
   7001.7130900              0.0018196169
   1051.3660900              0.0139160796
    239.2856900              0.0684053245
     67.3974453              0.233185760
     21.5199573              0.471267439
      7.40310130             0.356618546
SP   3   1.00
     20.8479528             -0.108506975            0.0716287243
      4.80830834            -0.146451658            0.3459121030
      1.34406986             1.128688580            0.7224699570
SP   1   1.00
      0.358151393            1.0000000              1.0000000
D    1   1.00
      3.5000000              1.0000000
D    1   1.00
      0.8750000              1.0000000
F    1   1.00
      1.8500000              1.0000000
****
Al     0
S    6   1.00
  13983.1000000              0.00194267
   2098.7500000              0.0148599
    477.7050000              0.0728494
    134.3600000              0.2468300
     42.8709000              0.4872580
     14.5189000              0.3234960
SP   6   1.00
    239.6680000             -0.00292619             0.00460285
     57.4419000             -0.0374080              0.0331990
     18.2859000             -0.1144870              0.1362820
      6.5991400              0.1156350              0.3304760
      2.4904900              0.6125950              0.4491460
      0.9445400              0.3937990              0.2657040
SP   3   1.00
      1.2779000             -0.2276060             -0.0175130
      0.3975900              0.00144583             0.2445330
      0.1600950              1.0927900              0.8049340
SP   1   1.00
      0.0556577              1.0000000              1.0000000
D    1   1.00
      0.6500000              1.0000000
D    1   1.00
      0.1625000              1.0000000
F    1   1.00
      0.2500000              1.0000000
****
Si     0
S    6   1.00
  16115.9000000              0.00195948
   2425.5800000              0.01492880
    553.8670000              0.07284780
    156.3400000              0.24613000
     50.0683000              0.48591400
     17.0178000              0.32500200
SP   6   1.00
    292.7180000             -0.00278094             0.00443826
     69.8731000             -0.03571460             0.03266790
     22.3363000             -0.11498500             0.13472100
      8.1503900              0.09356340             0.32867800
      3.1345800              0.60301700             0.44964000
      1.2254300              0.41895900             0.26137200
SP   3   1.00
      1.7273800             -0.24463000            -0.01779510
      0.5729220              0.00431572             0.25353900
      0.2221920              1.09818000             0.80066900
SP   1   1.00
      0.0778369              1.00000000             1.00000000
D    1   1.00
      0.9000000              1.0000000
D    1   1.00
      0.2250000              1.0000000
F    1   1.00
      0.3200000              1.0000000
****
P     0
S    6   1.00
  19413.3000000              0.0018516
   2909.4200000              0.0142062
    661.3640000              0.0699995
    185.7590000              0.2400790
     59.1943000              0.4847620
     20.0310000              0.3352000
SP   6   1.00
    339.4780000             -0.00278217             0.00456462
     81.0101000             -0.0360499              0.03369360
     25.8780000             -0.1166310              0.13975500
      9.4522100              0.0968328              0.33936200
      3.6656600              0.6144180              0.45092100
      1.4674600              0.4037980              0.23858600
SP   3   1.00
      2.1562300             -0.2529230             -0.01776530
      0.7489970              0.0328517              0.27405800
      0.2831450              1.0812500              0.78542100
SP   1   1.00
      0.0998317              1.0000000              1.00000000
D    1   1.00
      1.1000000              1.0000000
D    1   1.00
      0.2750000              1.0000000
F    1   1.00
      0.4500000              1.0000000
****
S     0
S    6   1.00
  21917.1000000              0.0018690
   3301.4900000              0.0142300
    754.1460000              0.0696960
    212.7110000              0.2384870
     67.9896000              0.4833070
     23.0515000              0.3380740
SP   6   1.00
    423.7350000             -0.0023767              0.0040610
    100.7100000             -0.0316930              0.0306810
     32.1599000             -0.1133170              0.1304520
     11.8079000              0.0560900              0.3272050
      4.6311000              0.5922550              0.4528510
      1.8702500              0.4550060              0.2560420
SP   3   1.00
      2.6158400             -0.2503740             -0.0145110
      0.9221670              0.0669570              0.3102630
      0.3412870              1.0545100              0.7544830
SP   1   1.00
      0.1171670              1.0000000              1.0000000
D    1   1.00
      1.3000000              1.0000000
D    1   1.00
      0.3250000              1.0000000
F    1   1.00
      0.5500000              1.0000000
****
Cl     0
S    6   1.00
  25180.1000000              0.0018330
   3780.3500000              0.0140340
    860.4740000              0.0690970
    242.1450000              0.2374520
     77.3349000              0.4830340
     26.2470000              0.3398560
SP   6   1.00
    491.7650000             -0.0022974              0.0039894
    116.9840000             -0.0307140              0.0303180
     37.4153000             -0.1125280              0.1298800
     13.7834000              0.0450160              0.3279510
      5.4521500              0.5893530              0.4535270
      2.2258800              0.4652060              0.2521540
SP   3   1.00
      3.1864900             -0.2518300             -0.0142990
      1.1442700              0.0615890              0.3235720
      0.4203770              1.0601800              0.7435070
SP   1   1.00
      0.1426570              1.0000000              1.0000000
D    1   1.00
      1.5000000              1.0000000
D    1   1.00
      0.3750000              1.0000000
F    1   1.00
      0.7000000              1.0000000
****
}

set {
reference uhf
freeze_core true
e_convergence 10
d_convergence 10
dft_spherical_points 1202
dft_radial_points 99
}

e = energy('b3lyp')

print_out('Grab this energy {0}'.format(e))
--------------------------------------------------------------------------

    Molecular point group: cs

    Geometry (in Bohr), charge = 0, multiplicity = 2:

       Center              X                  Y                   Z               Mass
    ------------   -----------------  -----------------  -----------------  -----------------
         C           -0.323436607344    -0.001962234998     0.000000000000    12.000000000000
         C            0.060816315556    -1.401855243998    -2.426716741600    12.000000000000
         C            0.061892256856     2.805119951002     0.000000000000    12.000000000000
         C            0.060816315556    -1.401855243998     2.426716741600    12.000000000000
         H            2.085591767656    -1.641077528498    -2.848815322400     1.007825032230
         H           -0.770108079344    -0.387859211098    -4.020306584100     1.007825032230
         H           -0.762729434544    -3.294519997198    -2.347935987700     1.007825032230
         H            2.089310286156     3.287250257802     0.000000000000     1.007825032230
         H           -0.764456960244     3.683122488602     1.676363895300     1.007825032230
         H           -0.764456960244     3.683122488602    -1.676363895300     1.007825032230
         H            2.085591767656    -1.641077528498     2.848815322400     1.007825032230
         H           -0.762729434544    -3.294519997198     2.347935987700     1.007825032230
         H           -0.770108079344    -0.387859211098     4.020306584100     1.007825032230

  Charge       = 0
  Multiplicity = 2
  Basis Set: ANONYMOUSDC73F053
    Blend: 6-31G_2DFP_
  Basis Set: (ANONYMOUSDC73F053 AUX)
    Blend: DEF2-UNIVERSAL-JKFIT

    Orbital Energies [Eh]
    ---------------------

    Alpha Occupied:

       1Ap   -10.180393     2Ap   -10.167180     1App  -10.166869
       3Ap   -10.166837     4Ap    -0.797510     2App   -0.686320
       5Ap    -0.686035     6Ap    -0.530609     7Ap    -0.441115
       8Ap    -0.434676     3App   -0.434533     4App   -0.382781
       9Ap    -0.382692     5App   -0.363812     6App   -0.337987
      10Ap    -0.337689    11Ap    -0.168940

    Alpha Virtual:

      12Ap     0.076081    13Ap     0.134151     7App    0.134278
       8App    0.142749    14Ap     0.142772    15Ap     0.154773
       9App    0.178940    16Ap     0.178946    17Ap     0.203255
      10App    0.214926    18Ap     0.275408    11App    0.276079
      19Ap     0.399215    12App    0.399243    20Ap     0.403446
      21Ap     0.424118    13App    0.424185    22Ap     0.456414
      14App    0.495349    23Ap     0.495449    15App    0.512215
      24Ap     0.514036    25Ap     0.578661    16App    0.579049
      26Ap     0.591512    17App    0.591961    27Ap     0.602616
      28Ap     0.624882    18App    0.632001    29Ap     0.636108
      19App    0.636283    30Ap     0.663093    20App    0.663502
      21App    0.683847    31Ap     0.683885    32Ap     0.735126
      33Ap     0.825359    22App    0.825415    23App    0.853780
      34Ap     0.914937    24App    0.915201    25App    0.944077
      35Ap     0.944301    36Ap     0.961326    26App    0.961393
      37Ap     1.003623    27App    1.127996    38Ap     1.128051
      39Ap     1.141793    28App    1.163770    40Ap     1.164011
      41Ap     1.222907    42Ap     1.274174    29App    1.274546
      43Ap     1.279198    44Ap     1.324035    30App    1.324278
      45Ap     1.355660    46Ap     1.365622    31App    1.366198
      32App    1.392934    47Ap     1.404461    33App    1.405093
      48Ap     1.416852    34App    1.417386    35App    1.428174
      36App    1.490971    49Ap     1.499663    50Ap     1.542530
      37App    1.542804    38App    1.574123    51Ap     1.574565
      52Ap     1.670618    53Ap     1.738634    39App    1.739184
      54Ap     1.768339    55Ap     1.831425    40App    1.832244
      41App    1.971135    56Ap     2.018048    42App    2.018340
      57Ap     2.018705    58Ap     2.051275    43App    2.053179
      59Ap     2.738257    44App    2.738361    60Ap     2.790703
      45App    2.811335    61Ap     2.889370    46App    2.890274
      62Ap     2.894588    47App    2.929484    63Ap     2.929820
      48App    2.959043    49App    2.964149    64Ap     2.964660
      65Ap     3.033836    66Ap     3.071051    50App    3.071620
      51App    3.083946    67Ap     3.168593    52App    3.168739
      68Ap     3.180019    69Ap     3.285602    53App    3.285689
      70Ap     3.326465    54App    3.327361    71Ap     3.375706
      72Ap     3.489850    55App    3.490291    56App    3.513850
      73Ap     3.524964    74Ap     3.567331    57App    3.568979
      58App    3.575283    59App    3.666944    75Ap     3.667334
      76Ap     3.680251    77Ap     3.693891    60App    3.694603
      61App    3.775417    78Ap     3.778037    79Ap     3.789458
      80Ap     3.910636    62App    3.911619    81Ap     4.033899
      82Ap     4.110621    63App    4.112667    83Ap     4.147580
      64App    4.148685    84Ap     4.172569    85Ap     4.201503
      86Ap     4.202230    65App    4.202841    66App    4.210519
      87Ap     4.315546    67App    4.316584    68App    4.359613
      69App    4.425136    88Ap     4.426143    70App    4.445401
      89Ap     4.515743    71App    4.517267    90Ap     4.576860
      72App    4.578219    91Ap     4.617140    92Ap     4.708168
      73App    4.773178    93Ap     4.774435    74App    4.835579
      94Ap     4.964165    95Ap     5.003236    75App    5.004454
      96Ap     5.228554    76App    5.246969    97Ap     5.247220
      98Ap     5.354398    77App    5.356301    78App    5.478136

    Beta Occupied:

       1Ap   -10.167935     1App  -10.167621     2Ap   -10.167606
       3Ap   -10.166559     4Ap    -0.780850     2App   -0.684117
       5Ap    -0.683854     6Ap    -0.511534     7Ap    -0.431073
       3App   -0.430915     8Ap    -0.421855     4App   -0.376871
       9Ap    -0.376805     5App   -0.362800     6App   -0.333096
      10Ap    -0.332797

    Beta Virtual:

      11Ap    -0.025572    12Ap     0.077086    13Ap     0.135028
       7App    0.135164     8App    0.144608    14Ap     0.144651
      15Ap     0.163190    16Ap     0.182595     9App    0.182604
      10App    0.215154    17Ap     0.218687    18Ap     0.281787
      11App    0.282435    19Ap     0.400392    12App    0.400401
      20Ap     0.419876    21Ap     0.426915    13App    0.427008
      22Ap     0.468246    14App    0.497609    23Ap     0.497695
      15App    0.513941    24Ap     0.556412    25Ap     0.584202
      16App    0.584612    26Ap     0.597720    17App    0.598129
      27Ap     0.610045    28Ap     0.628221    18App    0.632155
      29Ap     0.639357    19App    0.639571    30Ap     0.666666
      20App    0.667053    21App    0.686484    31Ap     0.686498
      32Ap     0.757725    33Ap     0.830540    22App    0.830541
      23App    0.855121    34Ap     0.922908    24App    0.923178
      25App    0.945907    35Ap     0.953216    36Ap     0.966594
      26App    0.966720    37Ap     1.008873    27App    1.131979
      38Ap     1.132140    39Ap     1.155130    28App    1.168915
      40Ap     1.169034    41Ap     1.231937    42Ap     1.279729
      29App    1.280117    43Ap     1.284979    44Ap     1.329015
      30App    1.329233    45Ap     1.365066    46Ap     1.370965
      31App    1.371463    32App    1.393981    47Ap     1.407867
      33App    1.408554    48Ap     1.421910    34App    1.422425
      35App    1.428457    36App    1.492006    49Ap     1.510086
      50Ap     1.546944    37App    1.547160    38App    1.582055
      51Ap     1.582414    52Ap     1.675472    53Ap     1.744384
      39App    1.744961    54Ap     1.779079    55Ap     1.835249
      40App    1.836081    41App    1.971988    56Ap     2.024529
      42App    2.024728    57Ap     2.039886    58Ap     2.058067
      43App    2.059899    59Ap     2.746598    44App    2.746754
      45App    2.811749    60Ap     2.815871    61Ap     2.902201
      46App    2.902944    62Ap     2.924198    47App    2.931937
      63Ap     2.932286    48App    2.960108    49App    2.968678
      64Ap     2.969160    65Ap     3.041728    66Ap     3.080958
      50App    3.081445    51App    3.085754    67Ap     3.184298
      52App    3.184656    68Ap     3.187792    69Ap     3.290348
      53App    3.290442    70Ap     3.330282    54App    3.331163
      71Ap     3.383493    72Ap     3.492551    55App    3.493035
      56App    3.512220    73Ap     3.528048    57App    3.575127
      74Ap     3.580770    58App    3.582360    59App    3.672029
      75Ap     3.672154    76Ap     3.693529    77Ap     3.725565
      60App    3.725945    61App    3.779925    78Ap     3.782482
      79Ap     3.818032    80Ap     3.920536    62App    3.921430
      81Ap     4.044866    82Ap     4.117346    63App    4.119381
      83Ap     4.154906    64App    4.155879    84Ap     4.186575
      85Ap     4.207815    65App    4.208784    86Ap     4.209779
      66App    4.214977    87Ap     4.323045    67App    4.324149
      68App    4.362954    69App    4.433301    88Ap     4.434275
      70App    4.448286    89Ap     4.523480    71App    4.524982
      90Ap     4.587436    72App    4.588806    91Ap     4.624316
      92Ap     4.718511    73App    4.780174    93Ap     4.781351
      74App    4.838498    94Ap     4.968938    95Ap     5.007235
      75App    5.008488    96Ap     5.234252    76App    5.248732
      97Ap     5.249006    98Ap     5.360829    77App    5.362774
      78App    5.480450

    Final Occupation by Irrep:
             Ap   App
    DOCC [    10,    6 ]
    SOCC [     1,    0 ]

  @DF-UKS Final Energy:  -157.81304442550254

   => Energetics <=

    Nuclear Repulsion Energy =            125.3666804893427127
    One-Electron Energy =                -458.6939207555489020
    Two-Electron Energy =                 195.8214561436357144
    DFT Exchange-Correlation Energy =     -20.3072603029320362
    Empirical Dispersion Energy =           0.0000000000000000
    VV10 Nonlocal Energy =                  0.0000000000000000
    Total Energy =                       -157.8130444255025395

  UHF NO Occupations:
  HONO-2 :    9 Ap 1.9996025
  HONO-1 :   10 Ap 1.9989782
  HONO-0 :   11 Ap 1.0000000
  LUNO+0 :   12 Ap 0.0010218
  LUNO+1 :   13 Ap 0.0003975
  LUNO+2 :   14 Ap 0.0001989
  LUNO+3 :    7App 0.0001977

Computation Completed

Properties will be evaluated at   0.000000,   0.000000,   0.000000 [a0]

Properties computed using the SCF density matrix

  Nuclear Dipole Moment: [e a0]
     X:     0.8264      Y:     0.0033      Z:     0.0000

  Electronic Dipole Moment: [e a0]
     X:    -0.7484      Y:    -0.0032      Z:     0.0000

  Dipole Moment: [e a0]
     X:     0.0780      Y:     0.0000      Z:     0.0000     Total:     0.0780

  Dipole Moment: [D]
     X:     0.1984      Y:     0.0001      Z:     0.0000     Total:     0.1984

*** tstop() called on n070 at Fri Nov  5 13:28:21 2021
Module time:
	user time   =     579.33 seconds =       9.66 minutes
	system time =      13.57 seconds =       0.23 minutes
	total time  =        150 seconds =       2.50 minutes
Total time:
	user time   =     579.33 seconds =       9.66 minutes
	system time =      13.57 seconds =       0.23 minutes
	total time  =        150 seconds =       2.50 minutes
Grab this energy -157.81304442550254
    Psi4 stopped on: Friday, 05 November 2021 01:28PM
    Psi4 wall time for execution: 0:02:30.03

*** Psi4 exiting successfully. Buy a developer a beer!
