                               Psi4 1.4a2.dev629

  ==> Input File <==

--------------------------------------------------------------------------
import os
memory 14 GB

molecule {
 C   -0.3233412376   -0.0000027466    0.0015181972
 C    0.0616828531   -1.4003919217   -2.4269585479
 C    0.0610198071    2.8017573626   -0.0014182707
 C    0.0605943422   -1.4013627982    2.4258036719
 H    2.0834363954   -1.6446456615   -2.8475139983
 H   -0.7642410806   -0.3858784440   -4.0270252815
 H   -0.7630557125   -3.2942115619   -2.3472593556
 H    2.0867981634    3.2880969453    0.0008810210
 H   -0.7642987946    3.6796973220    1.6764806269
 H   -0.7669908418    3.6808057860   -1.6765209091
 H    2.0904370849   -1.6435425688    2.8473640231
 H   -0.7680771877   -3.2897843268    2.3507113808
 H   -0.7665716679   -0.3905616999    4.0239374422
units bohr
0 2
}

basis {

assign 6-31g_2dfp_

[ 6-31g_2dfp_ ]

spherical

!----------------------------------------------------------------------
! Basis Set Exchange
! Version v0.8.13
! https://www.basissetexchange.org
!----------------------------------------------------------------------
!   Basis set: 6-31G(2df,p)
! Description: 6-31G(2df,p)
!        Role: orbital
!     Version: 0  (Data from the original Basis Set Exchange)
!----------------------------------------------------------------------

****
H     0
S    3   1.00
     18.7311370              0.03349460
      2.8253937              0.23472695
      0.6401217              0.81375733
S    1   1.00
      0.1612778              1.00000000
P    1   1.00
      1.5000000              1.0000000
P    1   1.00
      0.3750000              1.0000000
****
B     0
S    6   1.00
   2068.8823000              0.0018663
    310.6495700              0.0142515
     70.6830330              0.0695516
     19.8610800              0.2325729
      6.2993048              0.4670787
      2.1270270              0.3634314
SP   3   1.00
      4.7279710             -0.1303938              0.0745976
      1.1903377             -0.1307889              0.3078467
      0.3594117              1.1309444              0.7434568
SP   1   1.00
      0.1267512              1.0000000              1.0000000
D    1   1.00
      0.8020000              1.0000000
D    1   1.00
      0.2005000              1.0000000
F    1   1.00
      0.5000000              1.0000000
****
C     0
S    6   1.00
   3047.5249000              0.0018347
    457.3695100              0.0140373
    103.9486900              0.0688426
     29.2101550              0.2321844
      9.2866630              0.4679413
      3.1639270              0.3623120
SP   3   1.00
      7.8682724             -0.1193324              0.0689991
      1.8812885             -0.1608542              0.3164240
      0.5442493              1.1434564              0.7443083
SP   1   1.00
      0.1687144              1.0000000              1.0000000
D    1   1.00
      1.2520000              1.0000000
D    1   1.00
      0.3130000              1.0000000
F    1   1.00
      0.8000000              1.0000000
****
N     0
S    6   1.00
   4173.5110000              0.0018348
    627.4579000              0.0139950
    142.9021000              0.0685870
     40.2343300              0.2322410
     12.8202100              0.4690700
      4.3904370              0.3604550
SP   3   1.00
     11.6263580             -0.1149610              0.0675800
      2.7162800             -0.1691180              0.3239070
      0.7722180              1.1458520              0.7408950
SP   1   1.00
      0.2120313              1.0000000              1.0000000
D    1   1.00
      1.8260000              1.0000000
D    1   1.00
      0.4565000              1.0000000
F    1   1.00
      1.0000000              1.0000000
****
O     0
S    6   1.00
   5484.6717000              0.0018311
    825.2349500              0.0139501
    188.0469600              0.0684451
     52.9645000              0.2327143
     16.8975700              0.4701930
      5.7996353              0.3585209
SP   3   1.00
     15.5396160             -0.1107775              0.0708743
      3.5999336             -0.1480263              0.3397528
      1.0137618              1.1307670              0.7271586
SP   1   1.00
      0.2700058              1.0000000              1.0000000
D    1   1.00
      2.5840000              1.0000000
D    1   1.00
      0.6460000              1.0000000
F    1   1.00
      1.4000000              1.0000000
****
F     0
S    6   1.00
   7001.7130900              0.0018196169
   1051.3660900              0.0139160796
    239.2856900              0.0684053245
     67.3974453              0.233185760
     21.5199573              0.471267439
      7.40310130             0.356618546
SP   3   1.00
     20.8479528             -0.108506975            0.0716287243
      4.80830834            -0.146451658            0.3459121030
      1.34406986             1.128688580            0.7224699570
SP   1   1.00
      0.358151393            1.0000000              1.0000000
D    1   1.00
      3.5000000              1.0000000
D    1   1.00
      0.8750000              1.0000000
F    1   1.00
      1.8500000              1.0000000
****
Al     0
S    6   1.00
  13983.1000000              0.00194267
   2098.7500000              0.0148599
    477.7050000              0.0728494
    134.3600000              0.2468300
     42.8709000              0.4872580
     14.5189000              0.3234960
SP   6   1.00
    239.6680000             -0.00292619             0.00460285
     57.4419000             -0.0374080              0.0331990
     18.2859000             -0.1144870              0.1362820
      6.5991400              0.1156350              0.3304760
      2.4904900              0.6125950              0.4491460
      0.9445400              0.3937990              0.2657040
SP   3   1.00
      1.2779000             -0.2276060             -0.0175130
      0.3975900              0.00144583             0.2445330
      0.1600950              1.0927900              0.8049340
SP   1   1.00
      0.0556577              1.0000000              1.0000000
D    1   1.00
      0.6500000              1.0000000
D    1   1.00
      0.1625000              1.0000000
F    1   1.00
      0.2500000              1.0000000
****
Si     0
S    6   1.00
  16115.9000000              0.00195948
   2425.5800000              0.01492880
    553.8670000              0.07284780
    156.3400000              0.24613000
     50.0683000              0.48591400
     17.0178000              0.32500200
SP   6   1.00
    292.7180000             -0.00278094             0.00443826
     69.8731000             -0.03571460             0.03266790
     22.3363000             -0.11498500             0.13472100
      8.1503900              0.09356340             0.32867800
      3.1345800              0.60301700             0.44964000
      1.2254300              0.41895900             0.26137200
SP   3   1.00
      1.7273800             -0.24463000            -0.01779510
      0.5729220              0.00431572             0.25353900
      0.2221920              1.09818000             0.80066900
SP   1   1.00
      0.0778369              1.00000000             1.00000000
D    1   1.00
      0.9000000              1.0000000
D    1   1.00
      0.2250000              1.0000000
F    1   1.00
      0.3200000              1.0000000
****
P     0
S    6   1.00
  19413.3000000              0.0018516
   2909.4200000              0.0142062
    661.3640000              0.0699995
    185.7590000              0.2400790
     59.1943000              0.4847620
     20.0310000              0.3352000
SP   6   1.00
    339.4780000             -0.00278217             0.00456462
     81.0101000             -0.0360499              0.03369360
     25.8780000             -0.1166310              0.13975500
      9.4522100              0.0968328              0.33936200
      3.6656600              0.6144180              0.45092100
      1.4674600              0.4037980              0.23858600
SP   3   1.00
      2.1562300             -0.2529230             -0.01776530
      0.7489970              0.0328517              0.27405800
      0.2831450              1.0812500              0.78542100
SP   1   1.00
      0.0998317              1.0000000              1.00000000
D    1   1.00
      1.1000000              1.0000000
D    1   1.00
      0.2750000              1.0000000
F    1   1.00
      0.4500000              1.0000000
****
S     0
S    6   1.00
  21917.1000000              0.0018690
   3301.4900000              0.0142300
    754.1460000              0.0696960
    212.7110000              0.2384870
     67.9896000              0.4833070
     23.0515000              0.3380740
SP   6   1.00
    423.7350000             -0.0023767              0.0040610
    100.7100000             -0.0316930              0.0306810
     32.1599000             -0.1133170              0.1304520
     11.8079000              0.0560900              0.3272050
      4.6311000              0.5922550              0.4528510
      1.8702500              0.4550060              0.2560420
SP   3   1.00
      2.6158400             -0.2503740             -0.0145110
      0.9221670              0.0669570              0.3102630
      0.3412870              1.0545100              0.7544830
SP   1   1.00
      0.1171670              1.0000000              1.0000000
D    1   1.00
      1.3000000              1.0000000
D    1   1.00
      0.3250000              1.0000000
F    1   1.00
      0.5500000              1.0000000
****
Cl     0
S    6   1.00
  25180.1000000              0.0018330
   3780.3500000              0.0140340
    860.4740000              0.0690970
    242.1450000              0.2374520
     77.3349000              0.4830340
     26.2470000              0.3398560
SP   6   1.00
    491.7650000             -0.0022974              0.0039894
    116.9840000             -0.0307140              0.0303180
     37.4153000             -0.1125280              0.1298800
     13.7834000              0.0450160              0.3279510
      5.4521500              0.5893530              0.4535270
      2.2258800              0.4652060              0.2521540
SP   3   1.00
      3.1864900             -0.2518300             -0.0142990
      1.1442700              0.0615890              0.3235720
      0.4203770              1.0601800              0.7435070
SP   1   1.00
      0.1426570              1.0000000              1.0000000
D    1   1.00
      1.5000000              1.0000000
D    1   1.00
      0.3750000              1.0000000
F    1   1.00
      0.7000000              1.0000000
****
}

set {
reference uhf
freeze_core true
e_convergence 10
d_convergence 10
dft_spherical_points 1202
dft_radial_points 99
}

e = energy('b3lyp')

print_out('Grab this energy {0}'.format(e))
--------------------------------------------------------------------------

    Molecular point group: c1

    Geometry (in Bohr), charge = 0, multiplicity = 2:

       Center              X                  Y                   Z               Mass
    ------------   -----------------  -----------------  -----------------  -----------------
         C           -0.323340418953    -0.000002297228     0.001721388072    12.000000000000
         C            0.061683671747    -1.400391472328    -2.426755357028    12.000000000000
         C            0.061020625747     2.801757811972    -0.001215079828    12.000000000000
         C            0.060595160847    -1.401362348828     2.426006862772    12.000000000000
         H            2.083437214047    -1.644645212128    -2.847310807428     1.007825032230
         H           -0.764240261953    -0.385877994628    -4.026822090628     1.007825032230
         H           -0.763054893853    -3.294211112528    -2.347056164728     1.007825032230
         H            2.086798982047     3.288097394672     0.001084211872     1.007825032230
         H           -0.764297975953     3.679697771372     1.676683817772     1.007825032230
         H           -0.766990023153     3.680806235372    -1.676317718228     1.007825032230
         H            2.090437903547    -1.643542119428     2.847567213972     1.007825032230
         H           -0.768076369053    -3.289783877428     2.350914571672     1.007825032230
         H           -0.766570849253    -0.390561250528     4.024140633072     1.007825032230

  Charge       = 0
  Multiplicity = 2
  Basis Set: ANONYMOUS6AFDCFA3
    Blend: 6-31G_2DFP_
  Basis Set: (ANONYMOUS6AFDCFA3 AUX)
    Blend: DEF2-UNIVERSAL-JKFIT

    Orbital Energies [Eh]
    ---------------------

    Alpha Occupied:

       1A    -10.180342     2A    -10.167069     3A    -10.167018
       4A    -10.166958     5A     -0.797766     6A     -0.686266
       7A     -0.686109     8A     -0.530777     9A     -0.441131
      10A     -0.434697    11A     -0.434637    12A     -0.382614
      13A     -0.382584    14A     -0.363610    15A     -0.338325
      16A     -0.337673    17A     -0.168961

    Alpha Virtual:

      18A      0.076072    19A      0.134027    20A      0.134284
      21A      0.142623    22A      0.142629    23A      0.154882
      24A      0.178643    25A      0.178913    26A      0.203548
      27A      0.214802    28A      0.275783    29A      0.276187
      30A      0.399087    31A      0.399371    32A      0.403344
      33A      0.424008    34A      0.424187    35A      0.456591
      36A      0.495279    37A      0.495498    38A      0.512160
      39A      0.513981    40A      0.578684    41A      0.578949
      42A      0.591504    43A      0.591763    44A      0.602575
      45A      0.624764    46A      0.631772    47A      0.636144
      48A      0.636350    49A      0.663134    50A      0.663700
      51A      0.683689    52A      0.684016    53A      0.734995
      54A      0.825387    55A      0.825419    56A      0.853920
      57A      0.914707    58A      0.915345    59A      0.944125
      60A      0.944610    61A      0.961229    62A      0.961362
      63A      1.003450    64A      1.128043    65A      1.128176
      66A      1.142188    67A      1.163137    68A      1.163427
      69A      1.223331    70A      1.274456    71A      1.274519
      72A      1.279356    73A      1.324338    74A      1.324363
      75A      1.355960    76A      1.365792    77A      1.366316
      78A      1.392447    79A      1.403832    80A      1.404271
      81A      1.416338    82A      1.417922    83A      1.427910
      84A      1.491493    85A      1.499082    86A      1.542549
      87A      1.543130    88A      1.574289    89A      1.574609
      90A      1.669818    91A      1.739294    92A      1.739432
      93A      1.768439    94A      1.830663    95A      1.832130
      96A      1.971720    97A      2.018165    98A      2.018302
      99A      2.019912   100A      2.051103   101A      2.054196
     102A      2.738124   103A      2.738848   104A      2.790924
     105A      2.811423   106A      2.889262   107A      2.890616
     108A      2.894968   109A      2.929338   110A      2.929652
     111A      2.958994   112A      2.963760   113A      2.964997
     114A      3.034014   115A      3.071171   116A      3.071394
     117A      3.084360   118A      3.168684   119A      3.168888
     120A      3.180587   121A      3.284772   122A      3.285859
     123A      3.326993   124A      3.327315   125A      3.375635
     126A      3.489954   127A      3.490352   128A      3.514017
     129A      3.525314   130A      3.568366   131A      3.568399
     132A      3.575178   133A      3.665849   134A      3.666870
     135A      3.679721   136A      3.693964   137A      3.694290
     138A      3.776787   139A      3.776815   140A      3.789119
     141A      3.911768   142A      3.912681   143A      4.034439
     144A      4.110695   145A      4.112036   146A      4.147341
     147A      4.148862   148A      4.173220   149A      4.202004
     150A      4.202782   151A      4.203992   152A      4.210923
     153A      4.315919   154A      4.316043   155A      4.358976
     156A      4.424204   157A      4.424673   158A      4.443465
     159A      4.516335   160A      4.517358   161A      4.577849
     162A      4.578669   163A      4.617571   164A      4.709454
     165A      4.773981   166A      4.775197   167A      4.836896
     168A      4.962871   169A      5.001924   170A      5.003977
     171A      5.228005   172A      5.244964   173A      5.248624
     174A      5.354333   175A      5.356721   176A      5.479377

    Beta Occupied:

       1A    -10.167827     2A    -10.167775     3A    -10.167721
       4A    -10.166519     5A     -0.781091     6A     -0.684071
       7A     -0.683909     8A     -0.511748     9A     -0.431076
      10A     -0.431014    11A     -0.421815    12A     -0.376687
      13A     -0.376682    14A     -0.362594    15A     -0.333440
      16A     -0.332804

    Beta Virtual:

      17A     -0.025743    18A      0.077081    19A      0.134939
      20A      0.135152    21A      0.144487    22A      0.144507
      23A      0.163339    24A      0.182307    25A      0.182592
      26A      0.215032    27A      0.218930    28A      0.282143
      29A      0.282524    30A      0.400257    31A      0.400539
      32A      0.419791    33A      0.426818    34A      0.426998
      35A      0.468499    36A      0.497530    37A      0.497769
      38A      0.513895    39A      0.556325    40A      0.584250
      41A      0.584483    42A      0.597670    43A      0.597956
      44A      0.609998    45A      0.628139    46A      0.631929
      47A      0.639425    48A      0.639639    49A      0.666734
      50A      0.667229    51A      0.686345    52A      0.686631
      53A      0.757518    54A      0.830550    55A      0.830593
      56A      0.855274    57A      0.922691    58A      0.923302
      59A      0.945962    60A      0.953540    61A      0.966496
      62A      0.966705    63A      1.008690    64A      1.132130
      65A      1.132145    66A      1.155544    67A      1.168175
      68A      1.168560    69A      1.232302    70A      1.280040
      71A      1.280131    72A      1.285109    73A      1.329315
      74A      1.329366    75A      1.365371    76A      1.371056
      77A      1.371535    78A      1.393505    79A      1.407269
      80A      1.407774    81A      1.421390    82A      1.422968
      83A      1.428179    84A      1.492542    85A      1.509524
      86A      1.546983    87A      1.547510    88A      1.582156
      89A      1.582487    90A      1.674665    91A      1.745070
      92A      1.745196    93A      1.779201    94A      1.834509
      95A      1.835995    96A      1.972579    97A      2.024567
      98A      2.026333    99A      2.039643   100A      2.057848
     101A      2.060896   102A      2.746462   103A      2.747180
     104A      2.811835   105A      2.816060   106A      2.901923
     107A      2.903356   108A      2.924653   109A      2.931814
     110A      2.932134   111A      2.960058   112A      2.968304
     113A      2.969545   114A      3.041947   115A      3.081157
     116A      3.081211   117A      3.086195   118A      3.184350
     119A      3.184727   120A      3.188264   121A      3.289591
     122A      3.290637   123A      3.330788   124A      3.331131
     125A      3.383451   126A      3.492707   127A      3.493058
     128A      3.512385   129A      3.528360   130A      3.574970
     131A      3.581648   132A      3.581864   133A      3.670653
     134A      3.671584   135A      3.692983   136A      3.725748
     137A      3.725779   138A      3.781315   139A      3.781339
     140A      3.817661   141A      3.921541   142A      3.922541
     143A      4.045324   144A      4.117531   145A      4.118830
     146A      4.154638   147A      4.155981   148A      4.187278
     149A      4.208088   150A      4.209672   151A      4.210870
     152A      4.215397   153A      4.323389   154A      4.323452
     155A      4.362338   156A      4.432413   157A      4.432878
     158A      4.446362   159A      4.524108   160A      4.525165
     161A      4.588459   162A      4.589259   163A      4.624767
     164A      4.719799   165A      4.780953   166A      4.782131
     167A      4.839813   168A      4.967666   169A      5.005982
     170A      5.007999   171A      5.233721   172A      5.246751
     173A      5.250405   174A      5.360823   175A      5.363191
     176A      5.481699

    Final Occupation by Irrep:
              A
    DOCC [    16 ]
    SOCC [     1 ]

  @DF-UKS Final Energy:  -157.81306456469622

   => Energetics <=

    Nuclear Repulsion Energy =            125.3946272373730437
    One-Electron Energy =                -458.7489070117092638
    Two-Electron Energy =                 195.8483589229969084
    DFT Exchange-Correlation Energy =     -20.3071437133569361
    Empirical Dispersion Energy =           0.0000000000000000
    VV10 Nonlocal Energy =                  0.0000000000000000
    Total Energy =                       -157.8130645646962193

  UHF NO Occupations:
  HONO-2 :   15  A 1.9996009
  HONO-1 :   16  A 1.9989804
  HONO-0 :   17  A 1.0000000
  LUNO+0 :   18  A 0.0010196
  LUNO+1 :   19  A 0.0003991
  LUNO+2 :   20  A 0.0001980
  LUNO+3 :   21  A 0.0001971

Computation Completed

Properties will be evaluated at   0.000000,   0.000000,   0.000000 [a0]

Properties computed using the SCF density matrix

  Nuclear Dipole Moment: [e a0]
     X:     0.8272      Y:    -0.0000      Z:     0.0014

  Electronic Dipole Moment: [e a0]
     X:    -0.7493      Y:     0.0000      Z:    -0.0007

  Dipole Moment: [e a0]
     X:     0.0779      Y:     0.0000      Z:     0.0007     Total:     0.0779

  Dipole Moment: [D]
     X:     0.1980      Y:     0.0000      Z:     0.0018     Total:     0.1980

*** tstop() called on n061 at Fri Nov  5 12:03:38 2021
Module time:
	user time   =     546.84 seconds =       9.11 minutes
	system time =      12.21 seconds =       0.20 minutes
	total time  =        141 seconds =       2.35 minutes
Total time:
	user time   =     546.84 seconds =       9.11 minutes
	system time =      12.21 seconds =       0.20 minutes
	total time  =        141 seconds =       2.35 minutes
Grab this energy -157.81306456469622
    Psi4 stopped on: Friday, 05 November 2021 12:03PM
    Psi4 wall time for execution: 0:02:20.60

*** Psi4 exiting successfully. Buy a developer a beer!
