                               Psi4 1.4a2.dev629

  ==> Input File <==

--------------------------------------------------------------------------
import os
memory 14 GB

molecule {
 C   -0.3212626596   -0.0000018594    0.0000000000
 C    0.0615587148   -1.3980261604   -2.4214421091
 C    0.0614391112    2.7960566347    0.0000000000
 C    0.0615587148   -1.3980261604    2.4214421091
 H    2.0863128223   -1.6438165749   -2.8469540652
 H   -0.7656486816   -0.3834559005   -4.0175769338
 H   -0.7658123589   -3.2875360559   -2.3409076513
 H    2.0861737659    3.2875406638   -0.0000000000
 H   -0.7658895437    3.6710248155    1.6766747203
 H   -0.7658895437    3.6710248155   -1.6766747203
 H    2.0863128223   -1.6438165749    2.8469540652
 H   -0.7658123589   -3.2875360559    2.3409076513
 H   -0.7656486816   -0.3834559005    4.0175769338
units bohr
0 2
}

basis {

assign 6-31g_2dfp_

[ 6-31g_2dfp_ ]

spherical

!----------------------------------------------------------------------
! Basis Set Exchange
! Version v0.8.13
! https://www.basissetexchange.org
!----------------------------------------------------------------------
!   Basis set: 6-31G(2df,p)
! Description: 6-31G(2df,p)
!        Role: orbital
!     Version: 0  (Data from the original Basis Set Exchange)
!----------------------------------------------------------------------

****
H     0
S    3   1.00
     18.7311370              0.03349460
      2.8253937              0.23472695
      0.6401217              0.81375733
S    1   1.00
      0.1612778              1.00000000
P    1   1.00
      1.5000000              1.0000000
P    1   1.00
      0.3750000              1.0000000
****
B     0
S    6   1.00
   2068.8823000              0.0018663
    310.6495700              0.0142515
     70.6830330              0.0695516
     19.8610800              0.2325729
      6.2993048              0.4670787
      2.1270270              0.3634314
SP   3   1.00
      4.7279710             -0.1303938              0.0745976
      1.1903377             -0.1307889              0.3078467
      0.3594117              1.1309444              0.7434568
SP   1   1.00
      0.1267512              1.0000000              1.0000000
D    1   1.00
      0.8020000              1.0000000
D    1   1.00
      0.2005000              1.0000000
F    1   1.00
      0.5000000              1.0000000
****
C     0
S    6   1.00
   3047.5249000              0.0018347
    457.3695100              0.0140373
    103.9486900              0.0688426
     29.2101550              0.2321844
      9.2866630              0.4679413
      3.1639270              0.3623120
SP   3   1.00
      7.8682724             -0.1193324              0.0689991
      1.8812885             -0.1608542              0.3164240
      0.5442493              1.1434564              0.7443083
SP   1   1.00
      0.1687144              1.0000000              1.0000000
D    1   1.00
      1.2520000              1.0000000
D    1   1.00
      0.3130000              1.0000000
F    1   1.00
      0.8000000              1.0000000
****
N     0
S    6   1.00
   4173.5110000              0.0018348
    627.4579000              0.0139950
    142.9021000              0.0685870
     40.2343300              0.2322410
     12.8202100              0.4690700
      4.3904370              0.3604550
SP   3   1.00
     11.6263580             -0.1149610              0.0675800
      2.7162800             -0.1691180              0.3239070
      0.7722180              1.1458520              0.7408950
SP   1   1.00
      0.2120313              1.0000000              1.0000000
D    1   1.00
      1.8260000              1.0000000
D    1   1.00
      0.4565000              1.0000000
F    1   1.00
      1.0000000              1.0000000
****
O     0
S    6   1.00
   5484.6717000              0.0018311
    825.2349500              0.0139501
    188.0469600              0.0684451
     52.9645000              0.2327143
     16.8975700              0.4701930
      5.7996353              0.3585209
SP   3   1.00
     15.5396160             -0.1107775              0.0708743
      3.5999336             -0.1480263              0.3397528
      1.0137618              1.1307670              0.7271586
SP   1   1.00
      0.2700058              1.0000000              1.0000000
D    1   1.00
      2.5840000              1.0000000
D    1   1.00
      0.6460000              1.0000000
F    1   1.00
      1.4000000              1.0000000
****
F     0
S    6   1.00
   7001.7130900              0.0018196169
   1051.3660900              0.0139160796
    239.2856900              0.0684053245
     67.3974453              0.233185760
     21.5199573              0.471267439
      7.40310130             0.356618546
SP   3   1.00
     20.8479528             -0.108506975            0.0716287243
      4.80830834            -0.146451658            0.3459121030
      1.34406986             1.128688580            0.7224699570
SP   1   1.00
      0.358151393            1.0000000              1.0000000
D    1   1.00
      3.5000000              1.0000000
D    1   1.00
      0.8750000              1.0000000
F    1   1.00
      1.8500000              1.0000000
****
Al     0
S    6   1.00
  13983.1000000              0.00194267
   2098.7500000              0.0148599
    477.7050000              0.0728494
    134.3600000              0.2468300
     42.8709000              0.4872580
     14.5189000              0.3234960
SP   6   1.00
    239.6680000             -0.00292619             0.00460285
     57.4419000             -0.0374080              0.0331990
     18.2859000             -0.1144870              0.1362820
      6.5991400              0.1156350              0.3304760
      2.4904900              0.6125950              0.4491460
      0.9445400              0.3937990              0.2657040
SP   3   1.00
      1.2779000             -0.2276060             -0.0175130
      0.3975900              0.00144583             0.2445330
      0.1600950              1.0927900              0.8049340
SP   1   1.00
      0.0556577              1.0000000              1.0000000
D    1   1.00
      0.6500000              1.0000000
D    1   1.00
      0.1625000              1.0000000
F    1   1.00
      0.2500000              1.0000000
****
Si     0
S    6   1.00
  16115.9000000              0.00195948
   2425.5800000              0.01492880
    553.8670000              0.07284780
    156.3400000              0.24613000
     50.0683000              0.48591400
     17.0178000              0.32500200
SP   6   1.00
    292.7180000             -0.00278094             0.00443826
     69.8731000             -0.03571460             0.03266790
     22.3363000             -0.11498500             0.13472100
      8.1503900              0.09356340             0.32867800
      3.1345800              0.60301700             0.44964000
      1.2254300              0.41895900             0.26137200
SP   3   1.00
      1.7273800             -0.24463000            -0.01779510
      0.5729220              0.00431572             0.25353900
      0.2221920              1.09818000             0.80066900
SP   1   1.00
      0.0778369              1.00000000             1.00000000
D    1   1.00
      0.9000000              1.0000000
D    1   1.00
      0.2250000              1.0000000
F    1   1.00
      0.3200000              1.0000000
****
P     0
S    6   1.00
  19413.3000000              0.0018516
   2909.4200000              0.0142062
    661.3640000              0.0699995
    185.7590000              0.2400790
     59.1943000              0.4847620
     20.0310000              0.3352000
SP   6   1.00
    339.4780000             -0.00278217             0.00456462
     81.0101000             -0.0360499              0.03369360
     25.8780000             -0.1166310              0.13975500
      9.4522100              0.0968328              0.33936200
      3.6656600              0.6144180              0.45092100
      1.4674600              0.4037980              0.23858600
SP   3   1.00
      2.1562300             -0.2529230             -0.01776530
      0.7489970              0.0328517              0.27405800
      0.2831450              1.0812500              0.78542100
SP   1   1.00
      0.0998317              1.0000000              1.00000000
D    1   1.00
      1.1000000              1.0000000
D    1   1.00
      0.2750000              1.0000000
F    1   1.00
      0.4500000              1.0000000
****
S     0
S    6   1.00
  21917.1000000              0.0018690
   3301.4900000              0.0142300
    754.1460000              0.0696960
    212.7110000              0.2384870
     67.9896000              0.4833070
     23.0515000              0.3380740
SP   6   1.00
    423.7350000             -0.0023767              0.0040610
    100.7100000             -0.0316930              0.0306810
     32.1599000             -0.1133170              0.1304520
     11.8079000              0.0560900              0.3272050
      4.6311000              0.5922550              0.4528510
      1.8702500              0.4550060              0.2560420
SP   3   1.00
      2.6158400             -0.2503740             -0.0145110
      0.9221670              0.0669570              0.3102630
      0.3412870              1.0545100              0.7544830
SP   1   1.00
      0.1171670              1.0000000              1.0000000
D    1   1.00
      1.3000000              1.0000000
D    1   1.00
      0.3250000              1.0000000
F    1   1.00
      0.5500000              1.0000000
****
Cl     0
S    6   1.00
  25180.1000000              0.0018330
   3780.3500000              0.0140340
    860.4740000              0.0690970
    242.1450000              0.2374520
     77.3349000              0.4830340
     26.2470000              0.3398560
SP   6   1.00
    491.7650000             -0.0022974              0.0039894
    116.9840000             -0.0307140              0.0303180
     37.4153000             -0.1125280              0.1298800
     13.7834000              0.0450160              0.3279510
      5.4521500              0.5893530              0.4535270
      2.2258800              0.4652060              0.2521540
SP   3   1.00
      3.1864900             -0.2518300             -0.0142990
      1.1442700              0.0615890              0.3235720
      0.4203770              1.0601800              0.7435070
SP   1   1.00
      0.1426570              1.0000000              1.0000000
D    1   1.00
      1.5000000              1.0000000
D    1   1.00
      0.3750000              1.0000000
F    1   1.00
      0.7000000              1.0000000
****
}

set {
reference uhf
freeze_core true
e_convergence 10
d_convergence 10
dft_spherical_points 1202
dft_radial_points 99
}

e = energy('b3lyp')

print_out('Grab this energy {0}'.format(e))
--------------------------------------------------------------------------

    Molecular point group: cs

    Geometry (in Bohr), charge = 0, multiplicity = 2:

       Center              X                  Y                   Z               Mass
    ------------   -----------------  -----------------  -----------------  -----------------
         C           -0.321904786213    -0.000001902798     0.000000000000    12.000000000000
         C            0.060916588187    -1.398026203798    -2.421442109100    12.000000000000
         C            0.060796984587     2.796056591302     0.000000000000    12.000000000000
         C            0.060916588187    -1.398026203798     2.421442109100    12.000000000000
         H            2.085670695687    -1.643816618298    -2.846954065200     1.007825032230
         H           -0.766290808213    -0.383455943898    -4.017576933800     1.007825032230
         H           -0.766454485513    -3.287536099298    -2.340907651300     1.007825032230
         H            2.085531639287     3.287540620402     0.000000000000     1.007825032230
         H           -0.766531670313     3.671024772102     1.676674720300     1.007825032230
         H           -0.766531670313     3.671024772102    -1.676674720300     1.007825032230
         H            2.085670695687    -1.643816618298     2.846954065200     1.007825032230
         H           -0.766454485513    -3.287536099298     2.340907651300     1.007825032230
         H           -0.766290808213    -0.383455943898     4.017576933800     1.007825032230

  Charge       = 0
  Multiplicity = 2
  Basis Set: ANONYMOUS5982D7DD
    Blend: 6-31G_2DFP_
  Basis Set: (ANONYMOUS5982D7DD AUX)
    Blend: DEF2-UNIVERSAL-JKFIT

    Orbital Energies [Eh]
    ---------------------

    Alpha Occupied:

       1Ap   -10.179555     2Ap   -10.166622     1App  -10.166622
       3Ap   -10.166576     4Ap    -0.798881     5Ap    -0.686527
       2App   -0.686526     6Ap    -0.530786     7Ap    -0.441551
       3App   -0.435364     8Ap    -0.435363     9Ap    -0.382522
       4App   -0.382521     5App   -0.363630     6App   -0.338209
      10Ap    -0.338209    11Ap    -0.168725

    Alpha Virtual:

      12Ap     0.076079    13Ap     0.134146     7App    0.134147
      14Ap     0.142897     8App    0.142898    15Ap     0.155148
      16Ap     0.178919     9App    0.178919    17Ap     0.204770
      10App    0.215370    11App    0.276543    18Ap     0.276545
      19Ap     0.399429    12App    0.399433    20Ap     0.403061
      13App    0.423675    21Ap     0.423675    22Ap     0.457412
      23Ap     0.495593    14App    0.495594    15App    0.512308
      24Ap     0.514441    25Ap     0.579624    16App    0.579633
      17App    0.592009    26Ap     0.592011    27Ap     0.602799
      28Ap     0.625230    18App    0.632381    19App    0.637159
      29Ap     0.637163    30Ap     0.664162    20App    0.664163
      31Ap     0.684222    21App    0.684224    32Ap     0.734869
      22App    0.825150    33Ap     0.825153    23App    0.855260
      24App    0.915898    34Ap     0.915904    35Ap     0.943225
      25App    0.945697    26App    0.961961    36Ap     0.961978
      37Ap     1.005311    38Ap     1.129462    27App    1.129475
      39Ap     1.141945    40Ap     1.164575    28App    1.164587
      41Ap     1.224182    42Ap     1.275370    29App    1.275374
      43Ap     1.280101    30App    1.324959    44Ap     1.324961
      45Ap     1.355740    31App    1.368215    46Ap     1.368220
      32App    1.393775    47Ap     1.403492    33App    1.403494
      34App    1.417329    48Ap     1.417335    35App    1.429929
      36App    1.493324    49Ap     1.499345    37App    1.543618
      50Ap     1.543619    51Ap     1.574983    38App    1.574985
      52Ap     1.669834    53Ap     1.739903    39App    1.739914
      54Ap     1.769685    40App    1.832866    55Ap     1.832866
      41App    1.973211    56Ap     2.020408    57Ap     2.021027
      42App    2.021030    58Ap     2.057623    43App    2.057623
      44App    2.738669    59Ap     2.738669    60Ap     2.792310
      45App    2.814671    61Ap     2.891233    46App    2.891239
      62Ap     2.896701    63Ap     2.930147    47App    2.930156
      48App    2.959295    64Ap     2.964114    49App    2.964128
      65Ap     3.034442    50App    3.071752    66Ap     3.071766
      51App    3.085588    67Ap     3.169557    52App    3.169564
      68Ap     3.182649    69Ap     3.285418    53App    3.285418
      70Ap     3.328684    54App    3.328690    71Ap     3.373950
      55App    3.491466    72Ap     3.491487    56App    3.515027
      73Ap     3.527795    57App    3.568852    74Ap     3.568872
      58App    3.578132    75Ap     3.666286    59App    3.666295
      76Ap     3.682719    60App    3.695067    77Ap     3.695084
      78Ap     3.782439    61App    3.782465    79Ap     3.788488
      80Ap     3.914418    62App    3.914424    81Ap     4.035204
      82Ap     4.114346    63App    4.114349    83Ap     4.148637
      64App    4.148645    84Ap     4.174389    85Ap     4.203713
      65App    4.206212    86Ap     4.206216    66App    4.212904
      87Ap     4.317822    67App    4.317842    68App    4.362612
      88Ap     4.426022    69App    4.426025    70App    4.446897
      71App    4.520677    89Ap     4.520678    72App    4.582810
      90Ap     4.582823    91Ap     4.625357    92Ap     4.714567
      93Ap     4.781382    73App    4.781390    74App    4.839855
      94Ap     4.966450    75App    5.004446    95Ap     5.004459
      96Ap     5.229428    76App    5.248163    97Ap     5.248163
      98Ap     5.358702    77App    5.358715    78App    5.485368

    Beta Occupied:

       1Ap   -10.167378     1App  -10.167378     2Ap   -10.167349
       3Ap   -10.165765     4Ap    -0.782187     5Ap    -0.684307
       2App   -0.684307     6Ap    -0.511854     3App   -0.431707
       7Ap    -0.431707     8Ap    -0.422158     9Ap    -0.376560
       4App   -0.376558     5App   -0.362596     6App   -0.333340
      10Ap    -0.333340

    Beta Virtual:

      11Ap    -0.025878    12Ap     0.077095    13Ap     0.135045
       7App    0.135046    14Ap     0.144807     8App    0.144807
      15Ap     0.163702    16Ap     0.182609     9App    0.182610
      10App    0.215609    17Ap     0.219933    11App    0.282810
      18Ap     0.282813    19Ap     0.400636    12App    0.400640
      20Ap     0.419433    13App    0.426470    21Ap     0.426471
      22Ap     0.469755    23Ap     0.497882    14App    0.497883
      15App    0.514064    24Ap     0.556621    25Ap     0.585208
      16App    0.585216    17App    0.598095    26Ap     0.598096
      27Ap     0.610286    28Ap     0.628669    18App    0.632551
      19App    0.640512    29Ap     0.640516    30Ap     0.667705
      20App    0.667706    31Ap     0.686920    21App    0.686922
      32Ap     0.757177    22App    0.830352    33Ap     0.830354
      23App    0.856653    24App    0.923928    34Ap     0.923935
      25App    0.947535    35Ap     0.952141    26App    0.967266
      36Ap     0.967282    37Ap     1.010507    38Ap     1.133493
      27App    1.133505    39Ap     1.155127    40Ap     1.169641
      28App    1.169653    41Ap     1.233389    42Ap     1.281023
      29App    1.281027    43Ap     1.285857    30App    1.329987
      44Ap     1.329989    45Ap     1.365127    31App    1.373440
      46Ap     1.373445    32App    1.394855    47Ap     1.406945
      33App    1.406948    34App    1.422381    48Ap     1.422387
      35App    1.430233    36App    1.494359    49Ap     1.509831
      50Ap     1.547962    37App    1.547963    38App    1.582935
      51Ap     1.582935    52Ap     1.674690    53Ap     1.745671
      39App    1.745682    54Ap     1.780506    40App    1.836736
      55Ap     1.836737    41App    1.974081    56Ap     2.027472
      42App    2.027475    57Ap     2.041865    58Ap     2.064348
      43App    2.064348    44App    2.746919    59Ap     2.746920
      45App    2.815092    60Ap     2.817431    61Ap     2.903620
      46App    2.903625    62Ap     2.926461    63Ap     2.932817
      47App    2.932827    48App    2.960372    64Ap     2.968757
      49App    2.968771    65Ap     3.042458    50App    3.081737
      66Ap     3.081748    51App    3.087423    67Ap     3.185193
      52App    3.185198    68Ap     3.190287    69Ap     3.290366
      53App    3.290366    70Ap     3.332392    54App    3.332398
      71Ap     3.381727    55App    3.494256    72Ap     3.494277
      56App    3.513389    73Ap     3.530757    57App    3.578001
      58App    3.582137    74Ap     3.582158    75Ap     3.670855
      59App    3.670866    76Ap     3.695932    60App    3.726666
      77Ap     3.726682    78Ap     3.787068    61App    3.787094
      79Ap     3.816927    80Ap     3.924193    62App    3.924200
      81Ap     4.046080    82Ap     4.120974    63App    4.120975
      83Ap     4.155960    64App    4.155969    84Ap     4.188533
      85Ap     4.211783    65App    4.212111    86Ap     4.212114
      66App    4.217481    87Ap     4.325311    67App    4.325331
      68App    4.365975    88Ap     4.434349    69App    4.434352
      70App    4.449769    71App    4.528582    89Ap     4.528583
      72App    4.593452    90Ap     4.593465    91Ap     4.632453
      92Ap     4.725101    93Ap     4.788324    73App    4.788332
      74App    4.842772    94Ap     4.971265    75App    5.008541
      95Ap     5.008554    96Ap     5.235168    76App    5.249963
      97Ap     5.249963    98Ap     5.365238    77App    5.365251
      78App    5.487717

    Final Occupation by Irrep:
             Ap   App
    DOCC [    10,    6 ]
    SOCC [     1,    0 ]

  @DF-UKS Final Energy:  -157.81304588158471

   => Energetics <=

    Nuclear Repulsion Energy =            125.5877911860553553
    One-Electron Energy =                -459.1289986784023540
    Two-Electron Energy =                 196.0394580389466057
    DFT Exchange-Correlation Energy =     -20.3112964281843276
    Empirical Dispersion Energy =           0.0000000000000000
    VV10 Nonlocal Energy =                  0.0000000000000000
    Total Energy =                       -157.8130458815847135

  UHF NO Occupations:
  HONO-2 :    9 Ap 1.9995979
  HONO-1 :   10 Ap 1.9989894
  HONO-0 :   11 Ap 1.0000000
  LUNO+0 :   12 Ap 0.0010106
  LUNO+1 :   13 Ap 0.0004021
  LUNO+2 :    7App 0.0001951
  LUNO+3 :   14 Ap 0.0001951

Computation Completed

Properties will be evaluated at   0.000000,   0.000000,   0.000000 [a0]

Properties computed using the SCF density matrix

  Nuclear Dipole Moment: [e a0]
     X:     0.8227      Y:    -0.0000      Z:     0.0000

  Electronic Dipole Moment: [e a0]
     X:    -0.7460      Y:     0.0000      Z:     0.0000

  Dipole Moment: [e a0]
     X:     0.0766      Y:    -0.0000      Z:     0.0000     Total:     0.0766

  Dipole Moment: [D]
     X:     0.1948      Y:    -0.0000      Z:     0.0000     Total:     0.1948

*** tstop() called on n054 at Fri Nov  5 15:40:29 2021
Module time:
	user time   =     512.80 seconds =       8.55 minutes
	system time =      11.65 seconds =       0.19 minutes
	total time  =        132 seconds =       2.20 minutes
Total time:
	user time   =     512.80 seconds =       8.55 minutes
	system time =      11.65 seconds =       0.19 minutes
	total time  =        132 seconds =       2.20 minutes
Grab this energy -157.8130458815847
    Psi4 stopped on: Friday, 05 November 2021 03:40PM
    Psi4 wall time for execution: 0:02:11.96

*** Psi4 exiting successfully. Buy a developer a beer!
