                               Psi4 1.4a2.dev629

  ==> Input File <==

--------------------------------------------------------------------------
import os
memory 14 GB

molecule {
 C   -0.3251183321   -0.0000022356   -0.0000000140
 C    0.0605838306   -1.4018415720   -2.4261212689
 C    0.0604640615    2.8020168345   -0.0009645436
 C    0.0605838177   -1.4001710305    2.4270857649
 H    2.0872548438   -1.6433319589   -2.8409161358
 H   -0.7673519045   -0.3890513371   -4.0293210038
 H   -0.7627909204   -3.2913426609   -2.3524983966
 H    2.0871166564    3.2820694139   -0.0025993453
 H   -0.7675930158    3.6839947280    1.6777009653
 H   -0.7628689680    3.6829655259   -1.6741754647
 H    2.0872554850   -1.6388299542    2.8435153248
 H   -0.7675149401   -3.2949099286    2.3516274202
 H   -0.7626284908   -0.3915901382    4.0266666975
units bohr
0 2
}

basis {

assign 6-31g_2dfp_

[ 6-31g_2dfp_ ]

spherical

!----------------------------------------------------------------------
! Basis Set Exchange
! Version v0.8.13
! https://www.basissetexchange.org
!----------------------------------------------------------------------
!   Basis set: 6-31G(2df,p)
! Description: 6-31G(2df,p)
!        Role: orbital
!     Version: 0  (Data from the original Basis Set Exchange)
!----------------------------------------------------------------------

****
H     0
S    3   1.00
     18.7311370              0.03349460
      2.8253937              0.23472695
      0.6401217              0.81375733
S    1   1.00
      0.1612778              1.00000000
P    1   1.00
      1.5000000              1.0000000
P    1   1.00
      0.3750000              1.0000000
****
B     0
S    6   1.00
   2068.8823000              0.0018663
    310.6495700              0.0142515
     70.6830330              0.0695516
     19.8610800              0.2325729
      6.2993048              0.4670787
      2.1270270              0.3634314
SP   3   1.00
      4.7279710             -0.1303938              0.0745976
      1.1903377             -0.1307889              0.3078467
      0.3594117              1.1309444              0.7434568
SP   1   1.00
      0.1267512              1.0000000              1.0000000
D    1   1.00
      0.8020000              1.0000000
D    1   1.00
      0.2005000              1.0000000
F    1   1.00
      0.5000000              1.0000000
****
C     0
S    6   1.00
   3047.5249000              0.0018347
    457.3695100              0.0140373
    103.9486900              0.0688426
     29.2101550              0.2321844
      9.2866630              0.4679413
      3.1639270              0.3623120
SP   3   1.00
      7.8682724             -0.1193324              0.0689991
      1.8812885             -0.1608542              0.3164240
      0.5442493              1.1434564              0.7443083
SP   1   1.00
      0.1687144              1.0000000              1.0000000
D    1   1.00
      1.2520000              1.0000000
D    1   1.00
      0.3130000              1.0000000
F    1   1.00
      0.8000000              1.0000000
****
N     0
S    6   1.00
   4173.5110000              0.0018348
    627.4579000              0.0139950
    142.9021000              0.0685870
     40.2343300              0.2322410
     12.8202100              0.4690700
      4.3904370              0.3604550
SP   3   1.00
     11.6263580             -0.1149610              0.0675800
      2.7162800             -0.1691180              0.3239070
      0.7722180              1.1458520              0.7408950
SP   1   1.00
      0.2120313              1.0000000              1.0000000
D    1   1.00
      1.8260000              1.0000000
D    1   1.00
      0.4565000              1.0000000
F    1   1.00
      1.0000000              1.0000000
****
O     0
S    6   1.00
   5484.6717000              0.0018311
    825.2349500              0.0139501
    188.0469600              0.0684451
     52.9645000              0.2327143
     16.8975700              0.4701930
      5.7996353              0.3585209
SP   3   1.00
     15.5396160             -0.1107775              0.0708743
      3.5999336             -0.1480263              0.3397528
      1.0137618              1.1307670              0.7271586
SP   1   1.00
      0.2700058              1.0000000              1.0000000
D    1   1.00
      2.5840000              1.0000000
D    1   1.00
      0.6460000              1.0000000
F    1   1.00
      1.4000000              1.0000000
****
F     0
S    6   1.00
   7001.7130900              0.0018196169
   1051.3660900              0.0139160796
    239.2856900              0.0684053245
     67.3974453              0.233185760
     21.5199573              0.471267439
      7.40310130             0.356618546
SP   3   1.00
     20.8479528             -0.108506975            0.0716287243
      4.80830834            -0.146451658            0.3459121030
      1.34406986             1.128688580            0.7224699570
SP   1   1.00
      0.358151393            1.0000000              1.0000000
D    1   1.00
      3.5000000              1.0000000
D    1   1.00
      0.8750000              1.0000000
F    1   1.00
      1.8500000              1.0000000
****
Al     0
S    6   1.00
  13983.1000000              0.00194267
   2098.7500000              0.0148599
    477.7050000              0.0728494
    134.3600000              0.2468300
     42.8709000              0.4872580
     14.5189000              0.3234960
SP   6   1.00
    239.6680000             -0.00292619             0.00460285
     57.4419000             -0.0374080              0.0331990
     18.2859000             -0.1144870              0.1362820
      6.5991400              0.1156350              0.3304760
      2.4904900              0.6125950              0.4491460
      0.9445400              0.3937990              0.2657040
SP   3   1.00
      1.2779000             -0.2276060             -0.0175130
      0.3975900              0.00144583             0.2445330
      0.1600950              1.0927900              0.8049340
SP   1   1.00
      0.0556577              1.0000000              1.0000000
D    1   1.00
      0.6500000              1.0000000
D    1   1.00
      0.1625000              1.0000000
F    1   1.00
      0.2500000              1.0000000
****
Si     0
S    6   1.00
  16115.9000000              0.00195948
   2425.5800000              0.01492880
    553.8670000              0.07284780
    156.3400000              0.24613000
     50.0683000              0.48591400
     17.0178000              0.32500200
SP   6   1.00
    292.7180000             -0.00278094             0.00443826
     69.8731000             -0.03571460             0.03266790
     22.3363000             -0.11498500             0.13472100
      8.1503900              0.09356340             0.32867800
      3.1345800              0.60301700             0.44964000
      1.2254300              0.41895900             0.26137200
SP   3   1.00
      1.7273800             -0.24463000            -0.01779510
      0.5729220              0.00431572             0.25353900
      0.2221920              1.09818000             0.80066900
SP   1   1.00
      0.0778369              1.00000000             1.00000000
D    1   1.00
      0.9000000              1.0000000
D    1   1.00
      0.2250000              1.0000000
F    1   1.00
      0.3200000              1.0000000
****
P     0
S    6   1.00
  19413.3000000              0.0018516
   2909.4200000              0.0142062
    661.3640000              0.0699995
    185.7590000              0.2400790
     59.1943000              0.4847620
     20.0310000              0.3352000
SP   6   1.00
    339.4780000             -0.00278217             0.00456462
     81.0101000             -0.0360499              0.03369360
     25.8780000             -0.1166310              0.13975500
      9.4522100              0.0968328              0.33936200
      3.6656600              0.6144180              0.45092100
      1.4674600              0.4037980              0.23858600
SP   3   1.00
      2.1562300             -0.2529230             -0.01776530
      0.7489970              0.0328517              0.27405800
      0.2831450              1.0812500              0.78542100
SP   1   1.00
      0.0998317              1.0000000              1.00000000
D    1   1.00
      1.1000000              1.0000000
D    1   1.00
      0.2750000              1.0000000
F    1   1.00
      0.4500000              1.0000000
****
S     0
S    6   1.00
  21917.1000000              0.0018690
   3301.4900000              0.0142300
    754.1460000              0.0696960
    212.7110000              0.2384870
     67.9896000              0.4833070
     23.0515000              0.3380740
SP   6   1.00
    423.7350000             -0.0023767              0.0040610
    100.7100000             -0.0316930              0.0306810
     32.1599000             -0.1133170              0.1304520
     11.8079000              0.0560900              0.3272050
      4.6311000              0.5922550              0.4528510
      1.8702500              0.4550060              0.2560420
SP   3   1.00
      2.6158400             -0.2503740             -0.0145110
      0.9221670              0.0669570              0.3102630
      0.3412870              1.0545100              0.7544830
SP   1   1.00
      0.1171670              1.0000000              1.0000000
D    1   1.00
      1.3000000              1.0000000
D    1   1.00
      0.3250000              1.0000000
F    1   1.00
      0.5500000              1.0000000
****
Cl     0
S    6   1.00
  25180.1000000              0.0018330
   3780.3500000              0.0140340
    860.4740000              0.0690970
    242.1450000              0.2374520
     77.3349000              0.4830340
     26.2470000              0.3398560
SP   6   1.00
    491.7650000             -0.0022974              0.0039894
    116.9840000             -0.0307140              0.0303180
     37.4153000             -0.1125280              0.1298800
     13.7834000              0.0450160              0.3279510
      5.4521500              0.5893530              0.4535270
      2.2258800              0.4652060              0.2521540
SP   3   1.00
      3.1864900             -0.2518300             -0.0142990
      1.1442700              0.0615890              0.3235720
      0.4203770              1.0601800              0.7435070
SP   1   1.00
      0.1426570              1.0000000              1.0000000
D    1   1.00
      1.5000000              1.0000000
D    1   1.00
      0.3750000              1.0000000
F    1   1.00
      0.7000000              1.0000000
****
}

set {
reference uhf
freeze_core true
e_convergence 10
d_convergence 10
dft_spherical_points 1202
dft_radial_points 99
}

e = energy('b3lyp')

print_out('Grab this energy {0}'.format(e))
--------------------------------------------------------------------------

    Molecular point group: c1

    Geometry (in Bohr), charge = 0, multiplicity = 2:

       Center              X                  Y                   Z               Mass
    ------------   -----------------  -----------------  -----------------  -----------------
         C           -0.324454484901    -0.000002190758    -0.000000002135    12.000000000000
         C            0.061247677799    -1.401841527158    -2.426121257035    12.000000000000
         C            0.061127908699     2.802016879342    -0.000964531735    12.000000000000
         C            0.061247664899    -1.400170985658     2.427085776765    12.000000000000
         H            2.087918690999    -1.643331914058    -2.840916123935     1.007825032230
         H           -0.766688057301    -0.389051292258    -4.029320991935     1.007825032230
         H           -0.762127073201    -3.291342616058    -2.352498384735     1.007825032230
         H            2.087780503599     3.282069458742    -0.002599333435     1.007825032230
         H           -0.766929168601     3.683994772842     1.677700977165     1.007825032230
         H           -0.762205120801     3.682965570742    -1.674175452835     1.007825032230
         H            2.087919332199    -1.638829909358     2.843515336665     1.007825032230
         H           -0.766851092901    -3.294909883758     2.351627432065     1.007825032230
         H           -0.761964643601    -0.391590093358     4.026666709365     1.007825032230

  Charge       = 0
  Multiplicity = 2
  Basis Set: ANONYMOUSCF5889E8
    Blend: 6-31G_2DFP_
  Basis Set: (ANONYMOUSCF5889E8 AUX)
    Blend: DEF2-UNIVERSAL-JKFIT

    Orbital Energies [Eh]
    ---------------------

    Alpha Occupied:

       1A    -10.180355     2A    -10.167077     3A    -10.167077
       4A    -10.167031     5A     -0.797702     6A     -0.686151
       7A     -0.686150     8A     -0.530766     9A     -0.441293
      10A     -0.434461    11A     -0.434460    12A     -0.382753
      13A     -0.382751    14A     -0.363472    15A     -0.337975
      16A     -0.337975    17A     -0.168871

    Alpha Virtual:

      18A      0.076036    19A      0.134194    20A      0.134195
      21A      0.142566    22A      0.142566    23A      0.154672
      24A      0.178818    25A      0.178818    26A      0.203413
      27A      0.214584    28A      0.275946    29A      0.275947
      30A      0.399001    31A      0.399005    32A      0.403418
      33A      0.424249    34A      0.424249    35A      0.456356
      36A      0.495412    37A      0.495413    38A      0.512348
      39A      0.513925    40A      0.578650    41A      0.578658
      42A      0.591834    43A      0.591835    44A      0.602801
      45A      0.624655    46A      0.631578    47A      0.636145
      48A      0.636149    49A      0.663136    50A      0.663136
      51A      0.683947    52A      0.683948    53A      0.734909
      54A      0.825504    55A      0.825507    56A      0.853574
      57A      0.914882    58A      0.914888    59A      0.943894
      60A      0.945419    61A      0.961560    62A      0.961576
      63A      1.002728    64A      1.127654    65A      1.127667
      66A      1.142806    67A      1.162712    68A      1.162724
      69A      1.223403    70A      1.274512    71A      1.274515
      72A      1.279137    73A      1.324062    74A      1.324064
      75A      1.356401    76A      1.365732    77A      1.365736
      78A      1.392658    79A      1.404319    80A      1.404321
      81A      1.417268    82A      1.417275    83A      1.427295
      84A      1.490861    85A      1.499415    86A      1.542758
      87A      1.542760    88A      1.575075    89A      1.575077
      90A      1.669772    91A      1.739540    92A      1.739551
      93A      1.768461    94A      1.831123    95A      1.831123
      96A      1.971604    97A      2.018201    98A      2.018205
      99A      2.018553   100A      2.052168   101A      2.052168
     102A      2.738901   103A      2.738901   104A      2.790697
     105A      2.810914   106A      2.889789   107A      2.889796
     108A      2.894689   109A      2.929034   110A      2.929042
     111A      2.958933   112A      2.964325   113A      2.964339
     114A      3.033516   115A      3.071758   116A      3.071772
     117A      3.084726   118A      3.168846   119A      3.168854
     120A      3.180434   121A      3.285709   122A      3.285710
     123A      3.326061   124A      3.326067   125A      3.375901
     126A      3.490648   127A      3.490668   128A      3.513727
     129A      3.525165   130A      3.567844   131A      3.567864
     132A      3.574324   133A      3.666431   134A      3.666439
     135A      3.678576   136A      3.694633   137A      3.694649
     138A      3.775637   139A      3.775662   140A      3.790431
     141A      3.912128   142A      3.912134   143A      4.035564
     144A      4.111183   145A      4.111187   146A      4.148399
     147A      4.148407   148A      4.173170   149A      4.202288
     150A      4.202291   151A      4.203007   152A      4.210514
     153A      4.315647   154A      4.315666   155A      4.357788
     156A      4.424968   157A      4.424970   158A      4.442451
     159A      4.516014   160A      4.516016   161A      4.577306
     162A      4.577318   163A      4.616994   164A      4.709171
     165A      4.774223   166A      4.774230   167A      4.837916
     168A      4.962359   169A      5.003064   170A      5.003076
     171A      5.227675   172A      5.246793   173A      5.246793
     174A      5.355007   175A      5.355020   176A      5.479116

    Beta Occupied:

       1A    -10.167829     2A    -10.167829     3A    -10.167803
       4A    -10.166527     5A     -0.781024     6A     -0.683955
       7A     -0.683955     8A     -0.511741     9A     -0.430840
      10A     -0.430839    11A     -0.421985    12A     -0.376848
      13A     -0.376847    14A     -0.362462    15A     -0.333095
      16A     -0.333094

    Beta Virtual:

      17A     -0.025576    18A      0.077048    19A      0.135069
      20A      0.135070    21A      0.144426    22A      0.144427
      23A      0.163083    24A      0.182496    25A      0.182496
      26A      0.214804    27A      0.218842    28A      0.282304
      29A      0.282307    30A      0.400165    31A      0.400169
      32A      0.419844    33A      0.427065    34A      0.427066
      35A      0.468186    36A      0.497659    37A      0.497659
      38A      0.514080    39A      0.556353    40A      0.584180
      41A      0.584188    42A      0.598039    43A      0.598039
      44A      0.610203    45A      0.627996    46A      0.631762
      47A      0.639439    48A      0.639443    49A      0.666677
      50A      0.666677    51A      0.686600    52A      0.686602
      53A      0.757469    54A      0.830657    55A      0.830659
      56A      0.854925    57A      0.922807    58A      0.922814
      59A      0.945738    60A      0.954259    61A      0.966892
      62A      0.966908    63A      1.007939    64A      1.131681
      65A      1.131693    66A      1.156404    67A      1.167791
      68A      1.167804    69A      1.232272    70A      1.280091
      71A      1.280094    72A      1.284824    73A      1.329012
      74A      1.329014    75A      1.365875    76A      1.370982
      77A      1.370987    78A      1.393700    79A      1.407769
      80A      1.407772    81A      1.422372    82A      1.422378
      83A      1.427560    84A      1.491931    85A      1.509871
      86A      1.547173    87A      1.547174    88A      1.582936
      89A      1.582936    90A      1.674615    91A      1.745299
      92A      1.745311    93A      1.779227    94A      1.834981
      95A      1.834982    96A      1.972469    97A      2.024575
      98A      2.024578    99A      2.039898   100A      2.058896
     101A      2.058897   102A      2.747225   103A      2.747227
     104A      2.811317   105A      2.815833   106A      2.902544
     107A      2.902550   108A      2.924412   109A      2.931498
     110A      2.931507   111A      2.959993   112A      2.968832
     113A      2.968846   114A      3.041456   115A      3.081683
     116A      3.081695   117A      3.086545   118A      3.184611
     119A      3.184615   120A      3.188088   121A      3.290531
     122A      3.290531   123A      3.329891   124A      3.329896
     125A      3.383746   126A      3.493311   127A      3.493331
     128A      3.512087   129A      3.528243   130A      3.574201
     131A      3.581239   132A      3.581261   133A      3.671270
     134A      3.671282   135A      3.691924   136A      3.726105
     137A      3.726120   138A      3.780098   139A      3.780124
     140A      3.818952   141A      3.921991   142A      3.921999
     143A      4.046398   144A      4.117905   145A      4.117907
     146A      4.155693   147A      4.155702   148A      4.187217
     149A      4.208257   150A      4.208261   151A      4.210904
     152A      4.215031   153A      4.323074   154A      4.323094
     155A      4.361128   156A      4.433178   157A      4.433180
     158A      4.445353   159A      4.523818   160A      4.523820
     161A      4.587886   162A      4.587898   163A      4.624263
     164A      4.719408   165A      4.781190   166A      4.781197
     167A      4.840829   168A      4.967157   169A      5.007087
     170A      5.007100   171A      5.233405   172A      5.248578
     173A      5.248578   174A      5.361481   175A      5.361494
     176A      5.481432

    Final Occupation by Irrep:
              A
    DOCC [    16 ]
    SOCC [     1 ]

  @DF-UKS Final Energy:  -157.81305065918519

   => Energetics <=

    Nuclear Repulsion Energy =            125.3830464727180072
    One-Electron Energy =                -458.7262702047245853
    Two-Electron Energy =                 195.8369737959464487
    DFT Exchange-Correlation Energy =     -20.3068007231251038
    Empirical Dispersion Energy =           0.0000000000000000
    VV10 Nonlocal Energy =                  0.0000000000000000
    Total Energy =                       -157.8130506591851940

  UHF NO Occupations:
  HONO-2 :   15  A 1.9996022
  HONO-1 :   16  A 1.9989785
  HONO-0 :   17  A 1.0000000
  LUNO+0 :   18  A 0.0010215
  LUNO+1 :   19  A 0.0003978
  LUNO+2 :   20  A 0.0001978
  LUNO+3 :   21  A 0.0001978

Computation Completed

Properties will be evaluated at   0.000000,   0.000000,   0.000000 [a0]

Properties computed using the SCF density matrix

  Nuclear Dipole Moment: [e a0]
     X:     0.8319      Y:    -0.0000      Z:     0.0000

  Electronic Dipole Moment: [e a0]
     X:    -0.7535      Y:     0.0000      Z:    -0.0000

  Dipole Moment: [e a0]
     X:     0.0783      Y:     0.0000      Z:    -0.0000     Total:     0.0783

  Dipole Moment: [D]
     X:     0.1991      Y:     0.0000      Z:    -0.0000     Total:     0.1991

*** tstop() called on n065 at Fri Nov  5 14:44:06 2021
Module time:
	user time   =     541.12 seconds =       9.02 minutes
	system time =      12.10 seconds =       0.20 minutes
	total time  =        139 seconds =       2.32 minutes
Total time:
	user time   =     541.12 seconds =       9.02 minutes
	system time =      12.10 seconds =       0.20 minutes
	total time  =        139 seconds =       2.32 minutes
Grab this energy -157.8130506591852
    Psi4 stopped on: Friday, 05 November 2021 02:44PM
    Psi4 wall time for execution: 0:02:19.12

*** Psi4 exiting successfully. Buy a developer a beer!
