                               Psi4 1.4a2.dev629

  ==> Input File <==

--------------------------------------------------------------------------
import os
memory 14 GB

molecule {
 C   -0.3233406133    0.0000005640    0.0004329403
 C    0.0608702953   -1.4008317862   -2.4265124550
 C    0.0610226734    2.8017613554    0.0021869182
 C    0.0614066581   -1.4009189001    2.4262493523
 H    2.0877252944   -1.6442359860   -2.8473499770
 H   -0.7666369743   -0.3895100288   -4.0305310732
 H   -0.7649409671   -3.2870205100   -2.3463739727
 H    2.0867984681    3.2881084511    0.0050778400
 H   -0.7617674086    3.6837765399    1.6751144314
 H   -0.7695231776    3.6767159934   -1.6778770695
 H    2.0861469954   -1.6439583642    2.8475315085
 H   -0.7661971256   -3.2969718050    2.3516167528
 H   -0.7641719950   -0.3869398371    4.0204348038
units bohr
0 2
}

basis {

assign 6-31g_2dfp_

[ 6-31g_2dfp_ ]

spherical

!----------------------------------------------------------------------
! Basis Set Exchange
! Version v0.8.13
! https://www.basissetexchange.org
!----------------------------------------------------------------------
!   Basis set: 6-31G(2df,p)
! Description: 6-31G(2df,p)
!        Role: orbital
!     Version: 0  (Data from the original Basis Set Exchange)
!----------------------------------------------------------------------

****
H     0
S    3   1.00
     18.7311370              0.03349460
      2.8253937              0.23472695
      0.6401217              0.81375733
S    1   1.00
      0.1612778              1.00000000
P    1   1.00
      1.5000000              1.0000000
P    1   1.00
      0.3750000              1.0000000
****
B     0
S    6   1.00
   2068.8823000              0.0018663
    310.6495700              0.0142515
     70.6830330              0.0695516
     19.8610800              0.2325729
      6.2993048              0.4670787
      2.1270270              0.3634314
SP   3   1.00
      4.7279710             -0.1303938              0.0745976
      1.1903377             -0.1307889              0.3078467
      0.3594117              1.1309444              0.7434568
SP   1   1.00
      0.1267512              1.0000000              1.0000000
D    1   1.00
      0.8020000              1.0000000
D    1   1.00
      0.2005000              1.0000000
F    1   1.00
      0.5000000              1.0000000
****
C     0
S    6   1.00
   3047.5249000              0.0018347
    457.3695100              0.0140373
    103.9486900              0.0688426
     29.2101550              0.2321844
      9.2866630              0.4679413
      3.1639270              0.3623120
SP   3   1.00
      7.8682724             -0.1193324              0.0689991
      1.8812885             -0.1608542              0.3164240
      0.5442493              1.1434564              0.7443083
SP   1   1.00
      0.1687144              1.0000000              1.0000000
D    1   1.00
      1.2520000              1.0000000
D    1   1.00
      0.3130000              1.0000000
F    1   1.00
      0.8000000              1.0000000
****
N     0
S    6   1.00
   4173.5110000              0.0018348
    627.4579000              0.0139950
    142.9021000              0.0685870
     40.2343300              0.2322410
     12.8202100              0.4690700
      4.3904370              0.3604550
SP   3   1.00
     11.6263580             -0.1149610              0.0675800
      2.7162800             -0.1691180              0.3239070
      0.7722180              1.1458520              0.7408950
SP   1   1.00
      0.2120313              1.0000000              1.0000000
D    1   1.00
      1.8260000              1.0000000
D    1   1.00
      0.4565000              1.0000000
F    1   1.00
      1.0000000              1.0000000
****
O     0
S    6   1.00
   5484.6717000              0.0018311
    825.2349500              0.0139501
    188.0469600              0.0684451
     52.9645000              0.2327143
     16.8975700              0.4701930
      5.7996353              0.3585209
SP   3   1.00
     15.5396160             -0.1107775              0.0708743
      3.5999336             -0.1480263              0.3397528
      1.0137618              1.1307670              0.7271586
SP   1   1.00
      0.2700058              1.0000000              1.0000000
D    1   1.00
      2.5840000              1.0000000
D    1   1.00
      0.6460000              1.0000000
F    1   1.00
      1.4000000              1.0000000
****
F     0
S    6   1.00
   7001.7130900              0.0018196169
   1051.3660900              0.0139160796
    239.2856900              0.0684053245
     67.3974453              0.233185760
     21.5199573              0.471267439
      7.40310130             0.356618546
SP   3   1.00
     20.8479528             -0.108506975            0.0716287243
      4.80830834            -0.146451658            0.3459121030
      1.34406986             1.128688580            0.7224699570
SP   1   1.00
      0.358151393            1.0000000              1.0000000
D    1   1.00
      3.5000000              1.0000000
D    1   1.00
      0.8750000              1.0000000
F    1   1.00
      1.8500000              1.0000000
****
Al     0
S    6   1.00
  13983.1000000              0.00194267
   2098.7500000              0.0148599
    477.7050000              0.0728494
    134.3600000              0.2468300
     42.8709000              0.4872580
     14.5189000              0.3234960
SP   6   1.00
    239.6680000             -0.00292619             0.00460285
     57.4419000             -0.0374080              0.0331990
     18.2859000             -0.1144870              0.1362820
      6.5991400              0.1156350              0.3304760
      2.4904900              0.6125950              0.4491460
      0.9445400              0.3937990              0.2657040
SP   3   1.00
      1.2779000             -0.2276060             -0.0175130
      0.3975900              0.00144583             0.2445330
      0.1600950              1.0927900              0.8049340
SP   1   1.00
      0.0556577              1.0000000              1.0000000
D    1   1.00
      0.6500000              1.0000000
D    1   1.00
      0.1625000              1.0000000
F    1   1.00
      0.2500000              1.0000000
****
Si     0
S    6   1.00
  16115.9000000              0.00195948
   2425.5800000              0.01492880
    553.8670000              0.07284780
    156.3400000              0.24613000
     50.0683000              0.48591400
     17.0178000              0.32500200
SP   6   1.00
    292.7180000             -0.00278094             0.00443826
     69.8731000             -0.03571460             0.03266790
     22.3363000             -0.11498500             0.13472100
      8.1503900              0.09356340             0.32867800
      3.1345800              0.60301700             0.44964000
      1.2254300              0.41895900             0.26137200
SP   3   1.00
      1.7273800             -0.24463000            -0.01779510
      0.5729220              0.00431572             0.25353900
      0.2221920              1.09818000             0.80066900
SP   1   1.00
      0.0778369              1.00000000             1.00000000
D    1   1.00
      0.9000000              1.0000000
D    1   1.00
      0.2250000              1.0000000
F    1   1.00
      0.3200000              1.0000000
****
P     0
S    6   1.00
  19413.3000000              0.0018516
   2909.4200000              0.0142062
    661.3640000              0.0699995
    185.7590000              0.2400790
     59.1943000              0.4847620
     20.0310000              0.3352000
SP   6   1.00
    339.4780000             -0.00278217             0.00456462
     81.0101000             -0.0360499              0.03369360
     25.8780000             -0.1166310              0.13975500
      9.4522100              0.0968328              0.33936200
      3.6656600              0.6144180              0.45092100
      1.4674600              0.4037980              0.23858600
SP   3   1.00
      2.1562300             -0.2529230             -0.01776530
      0.7489970              0.0328517              0.27405800
      0.2831450              1.0812500              0.78542100
SP   1   1.00
      0.0998317              1.0000000              1.00000000
D    1   1.00
      1.1000000              1.0000000
D    1   1.00
      0.2750000              1.0000000
F    1   1.00
      0.4500000              1.0000000
****
S     0
S    6   1.00
  21917.1000000              0.0018690
   3301.4900000              0.0142300
    754.1460000              0.0696960
    212.7110000              0.2384870
     67.9896000              0.4833070
     23.0515000              0.3380740
SP   6   1.00
    423.7350000             -0.0023767              0.0040610
    100.7100000             -0.0316930              0.0306810
     32.1599000             -0.1133170              0.1304520
     11.8079000              0.0560900              0.3272050
      4.6311000              0.5922550              0.4528510
      1.8702500              0.4550060              0.2560420
SP   3   1.00
      2.6158400             -0.2503740             -0.0145110
      0.9221670              0.0669570              0.3102630
      0.3412870              1.0545100              0.7544830
SP   1   1.00
      0.1171670              1.0000000              1.0000000
D    1   1.00
      1.3000000              1.0000000
D    1   1.00
      0.3250000              1.0000000
F    1   1.00
      0.5500000              1.0000000
****
Cl     0
S    6   1.00
  25180.1000000              0.0018330
   3780.3500000              0.0140340
    860.4740000              0.0690970
    242.1450000              0.2374520
     77.3349000              0.4830340
     26.2470000              0.3398560
SP   6   1.00
    491.7650000             -0.0022974              0.0039894
    116.9840000             -0.0307140              0.0303180
     37.4153000             -0.1125280              0.1298800
     13.7834000              0.0450160              0.3279510
      5.4521500              0.5893530              0.4535270
      2.2258800              0.4652060              0.2521540
SP   3   1.00
      3.1864900             -0.2518300             -0.0142990
      1.1442700              0.0615890              0.3235720
      0.4203770              1.0601800              0.7435070
SP   1   1.00
      0.1426570              1.0000000              1.0000000
D    1   1.00
      1.5000000              1.0000000
D    1   1.00
      0.3750000              1.0000000
F    1   1.00
      0.7000000              1.0000000
****
}

set {
reference uhf
freeze_core true
e_convergence 10
d_convergence 10
dft_spherical_points 1202
dft_radial_points 99
}

e = energy('b3lyp')

print_out('Grab this energy {0}'.format(e))
--------------------------------------------------------------------------

    Molecular point group: c1

    Geometry (in Bohr), charge = 0, multiplicity = 2:

       Center              X                  Y                   Z               Mass
    ------------   -----------------  -----------------  -----------------  -----------------
         C           -0.323340420372    -0.000001170214    -0.000020987840    12.000000000000
         C            0.060870488228    -1.400833520414    -2.426966383140    12.000000000000
         C            0.061022866328     2.801759621186     0.001732990060    12.000000000000
         C            0.061406851028    -1.400920634314     2.425795424160    12.000000000000
         H            2.087725487328    -1.644237720214    -2.847803905140     1.007825032230
         H           -0.766636781372    -0.389511763014    -4.030985001340     1.007825032230
         H           -0.764940774172    -3.287022244214    -2.346827900840     1.007825032230
         H            2.086798661028     3.288106716886     0.004623911860     1.007825032230
         H           -0.761767215672     3.683774805686     1.674660503260     1.007825032230
         H           -0.769522984672     3.676714259186    -1.678330997640     1.007825032230
         H            2.086147188328    -1.643960098414     2.847077580360     1.007825032230
         H           -0.766196932672    -3.296973539214     2.351162824660     1.007825032230
         H           -0.764171802072    -0.386941571314     4.019980875660     1.007825032230

  Charge       = 0
  Multiplicity = 2
  Basis Set: ANONYMOUSB33ED580
    Blend: 6-31G_2DFP_
  Basis Set: (ANONYMOUSB33ED580 AUX)
    Blend: DEF2-UNIVERSAL-JKFIT

    Orbital Energies [Eh]
    ---------------------

    Alpha Occupied:

       1A    -10.180343     2A    -10.167034     3A    -10.167027
       4A    -10.166984     5A     -0.797767     6A     -0.686248
       7A     -0.686128     8A     -0.530778     9A     -0.441126
      10A     -0.434858    11A     -0.434484    12A     -0.382621
      13A     -0.382575    14A     -0.363611    15A     -0.338160
      16A     -0.337836    17A     -0.168961

    Alpha Virtual:

      18A      0.076070    19A      0.134038    20A      0.134265
      21A      0.142423    22A      0.142833    23A      0.154882
      24A      0.178686    25A      0.178872    26A      0.203529
      27A      0.214820    28A      0.275876    29A      0.276095
      30A      0.398982    31A      0.399474    32A      0.403344
      33A      0.423936    34A      0.424260    35A      0.456593
      36A      0.495340    37A      0.495441    38A      0.512161
      39A      0.513980    40A      0.578759    41A      0.578874
      42A      0.591490    43A      0.591776    44A      0.602570
      45A      0.624643    46A      0.631845    47A      0.635992
      48A      0.636555    49A      0.663201    50A      0.663622
      51A      0.683662    52A      0.684061    53A      0.734993
      54A      0.825156    55A      0.825658    56A      0.853915
      57A      0.914811    58A      0.915239    59A      0.944019
      60A      0.944698    61A      0.961210    62A      0.961379
      63A      1.003470    64A      1.127827    65A      1.128391
      66A      1.142217    67A      1.163209    68A      1.163330
      69A      1.223323    70A      1.274250    71A      1.274740
      72A      1.279352    73A      1.324140    74A      1.324560
      75A      1.355973    76A      1.365747    77A      1.366349
      78A      1.392458    79A      1.403977    80A      1.404074
      81A      1.416432    82A      1.417831    83A      1.427907
      84A      1.491498    85A      1.499076    86A      1.542817
      87A      1.542859    88A      1.574245    89A      1.574653
      90A      1.669839    91A      1.738712    92A      1.740125
      93A      1.768324    94A      1.830614    95A      1.832162
      96A      1.971755    97A      2.017641    98A      2.018846
      99A      2.019904   100A      2.052119   101A      2.053179
     102A      2.738303   103A      2.738666   104A      2.790921
     105A      2.811429   106A      2.889805   107A      2.890105
     108A      2.894936   109A      2.929475   110A      2.929522
     111A      2.958963   112A      2.964338   113A      2.964455
     114A      3.034014   115A      3.070709   116A      3.071800
     117A      3.084431   118A      3.168367   119A      3.169198
     120A      3.180588   121A      3.285139   122A      3.285458
     123A      3.326796   124A      3.327560   125A      3.375624
     126A      3.489877   127A      3.490432   128A      3.513932
     129A      3.525418   130A      3.567951   131A      3.568823
     132A      3.575125   133A      3.665918   134A      3.666891
     135A      3.679639   136A      3.693881   137A      3.694356
     138A      3.776701   139A      3.776922   140A      3.789125
     141A      3.911660   142A      3.912819   143A      4.034449
     144A      4.110809   145A      4.111860   146A      4.147791
     147A      4.148379   148A      4.173325   149A      4.202231
     150A      4.202647   151A      4.203828   152A      4.210988
     153A      4.315306   154A      4.316623   155A      4.358959
     156A      4.423915   157A      4.425001   158A      4.443458
     159A      4.515796   160A      4.517888   161A      4.578259
     162A      4.578275   163A      4.617559   164A      4.709408
     165A      4.773621   166A      4.775591   167A      4.836923
     168A      4.962890   169A      5.002593   170A      5.003332
     171A      5.227583   172A      5.246759   173A      5.247283
     174A      5.354256   175A      5.356783   176A      5.479413

    Beta Occupied:

       1A    -10.167787     2A    -10.167780     3A    -10.167757
       4A    -10.166520     5A     -0.781092     6A     -0.684053
       7A     -0.683929     8A     -0.511749     9A     -0.431231
      10A     -0.430856    11A     -0.421822    12A     -0.376702
      13A     -0.376665    14A     -0.362594    15A     -0.333279
      16A     -0.332963

    Beta Virtual:

      17A     -0.025743    18A      0.077079    19A      0.134903
      20A      0.135181    21A      0.144266    22A      0.144731
      23A      0.163340    24A      0.182357    25A      0.182542
      26A      0.214985    27A      0.218977    28A      0.282224
      29A      0.282442    30A      0.400147    31A      0.400648
      32A      0.419790    33A      0.426747    34A      0.427071
      35A      0.468500    36A      0.497595    37A      0.497707
      38A      0.513896    39A      0.556325    40A      0.584310
      41A      0.584422    42A      0.597646    43A      0.597978
      44A      0.609993    45A      0.627966    46A      0.632058
      47A      0.639296    48A      0.639819    49A      0.666780
      50A      0.667171    51A      0.686319    52A      0.686673
      53A      0.757516    54A      0.830336    55A      0.830815
      56A      0.855269    57A      0.922802    58A      0.923191
      59A      0.945937    60A      0.953544    61A      0.966499
      62A      0.966703    63A      1.008709    64A      1.131858
      65A      1.132413    66A      1.155596    67A      1.168289
      68A      1.168401    69A      1.232295    70A      1.279828
      71A      1.280352    72A      1.285105    73A      1.329131
      74A      1.329547    75A      1.365387    76A      1.371052
      77A      1.371528    78A      1.393519    79A      1.407429
      80A      1.407561    81A      1.421529    82A      1.422828
      83A      1.428176    84A      1.492549    85A      1.509518
      86A      1.547198    87A      1.547296    88A      1.582114
      89A      1.582523    90A      1.674686    91A      1.744461
      92A      1.745902    93A      1.779102    94A      1.834465
      95A      1.836022    96A      1.972618    97A      2.024870
      98A      2.025993    99A      2.039693   100A      2.058827
     101A      2.059913   102A      2.746627   103A      2.747013
     104A      2.811831   105A      2.816065   106A      2.902450
     107A      2.902835   108A      2.924643   109A      2.931956
     110A      2.932000   111A      2.960043   112A      2.968870
     113A      2.969001   114A      3.041948   115A      3.080558
     116A      3.081643   117A      3.086377   118A      3.184148
     119A      3.184911   120A      3.188276   121A      3.289926
     122A      3.290267   123A      3.330567   124A      3.331400
     125A      3.383441   126A      3.492621   127A      3.493150
     128A      3.512319   129A      3.528440   130A      3.574988
     131A      3.581208   132A      3.582237   133A      3.670794
     134A      3.671503   135A      3.692943   136A      3.725699
     137A      3.725800   138A      3.781199   139A      3.781484
     140A      3.817665   141A      3.921409   142A      3.922701
     143A      4.045337   144A      4.117417   145A      4.118889
     146A      4.154778   147A      4.155822   148A      4.187360
     149A      4.208194   150A      4.209722   151A      4.210616
     152A      4.215483   153A      4.322790   154A      4.324024
     155A      4.362323   156A      4.432149   157A      4.433194
     158A      4.446343   159A      4.523578   160A      4.525685
     161A      4.588834   162A      4.588904   163A      4.624751
     164A      4.719749   165A      4.780602   166A      4.782518
     167A      4.839843   168A      4.967683   169A      5.006634
     170A      5.007369   171A      5.233194   172A      5.248554
     173A      5.249167   174A      5.360745   175A      5.363250
     176A      5.481736

    Final Occupation by Irrep:
              A
    DOCC [    16 ]
    SOCC [     1 ]

  @DF-UKS Final Energy:  -157.81305531929073

   => Energetics <=

    Nuclear Repulsion Energy =            125.3946480274182704
    One-Electron Energy =                -458.7489183451752979
    Two-Electron Energy =                 195.8483613578425491
    DFT Exchange-Correlation Energy =     -20.3071463593762402
    Empirical Dispersion Energy =           0.0000000000000000
    VV10 Nonlocal Energy =                  0.0000000000000000
    Total Energy =                       -157.8130553192907257

  UHF NO Occupations:
  HONO-2 :   15  A 1.9996009
  HONO-1 :   16  A 1.9989805
  HONO-0 :   17  A 1.0000000
  LUNO+0 :   18  A 0.0010195
  LUNO+1 :   19  A 0.0003991
  LUNO+2 :   20  A 0.0001976
  LUNO+3 :   21  A 0.0001975

Computation Completed

Properties will be evaluated at   0.000000,   0.000000,   0.000000 [a0]

Properties computed using the SCF density matrix

  Nuclear Dipole Moment: [e a0]
     X:     0.8272      Y:    -0.0000      Z:    -0.0032

  Electronic Dipole Moment: [e a0]
     X:    -0.7493      Y:     0.0000      Z:     0.0049

  Dipole Moment: [e a0]
     X:     0.0779      Y:     0.0000      Z:     0.0017     Total:     0.0779

  Dipole Moment: [D]
     X:     0.1980      Y:     0.0000      Z:     0.0044     Total:     0.1981

*** tstop() called on n049 at Fri Nov  5 14:35:01 2021
Module time:
	user time   =     518.04 seconds =       8.63 minutes
	system time =      11.57 seconds =       0.19 minutes
	total time  =        133 seconds =       2.22 minutes
Total time:
	user time   =     518.04 seconds =       8.63 minutes
	system time =      11.57 seconds =       0.19 minutes
	total time  =        133 seconds =       2.22 minutes
Grab this energy -157.81305531929073
    Psi4 stopped on: Friday, 05 November 2021 02:35PM
    Psi4 wall time for execution: 0:02:13.33

*** Psi4 exiting successfully. Buy a developer a beer!
