                               Psi4 1.4a2.dev629

  ==> Input File <==

--------------------------------------------------------------------------
import os
memory 14 GB

molecule {
 C   -0.3233391106   -0.0000026611   -0.0005270927
 C    0.0617047273   -1.4011333766   -2.4249817263
 C    0.0610196423    2.8017582992    0.0018425593
 C    0.0605769510   -1.4006215812    2.4277803316
 H    2.0904889804   -1.6436076704   -2.8473226370
 H   -0.7673545928   -0.3853552988   -4.0279670119
 H   -0.7677576291   -3.2948529750   -2.3477045426
 H    2.0867969716    3.2881008072   -0.0007269677
 H   -0.7658842045    3.6798463182    1.6758917041
 H   -0.7654073698    3.6806563024   -1.6771114589
 H    2.0833877332   -1.6445842230    2.8475609693
 H   -0.7633827607   -3.2891439834    2.3502711898
 H   -0.7634572150   -0.3910842713    4.0229946831
units bohr
0 2
}

basis {

assign 6-31g_2dfp_

[ 6-31g_2dfp_ ]

spherical

!----------------------------------------------------------------------
! Basis Set Exchange
! Version v0.8.13
! https://www.basissetexchange.org
!----------------------------------------------------------------------
!   Basis set: 6-31G(2df,p)
! Description: 6-31G(2df,p)
!        Role: orbital
!     Version: 0  (Data from the original Basis Set Exchange)
!----------------------------------------------------------------------

****
H     0
S    3   1.00
     18.7311370              0.03349460
      2.8253937              0.23472695
      0.6401217              0.81375733
S    1   1.00
      0.1612778              1.00000000
P    1   1.00
      1.5000000              1.0000000
P    1   1.00
      0.3750000              1.0000000
****
B     0
S    6   1.00
   2068.8823000              0.0018663
    310.6495700              0.0142515
     70.6830330              0.0695516
     19.8610800              0.2325729
      6.2993048              0.4670787
      2.1270270              0.3634314
SP   3   1.00
      4.7279710             -0.1303938              0.0745976
      1.1903377             -0.1307889              0.3078467
      0.3594117              1.1309444              0.7434568
SP   1   1.00
      0.1267512              1.0000000              1.0000000
D    1   1.00
      0.8020000              1.0000000
D    1   1.00
      0.2005000              1.0000000
F    1   1.00
      0.5000000              1.0000000
****
C     0
S    6   1.00
   3047.5249000              0.0018347
    457.3695100              0.0140373
    103.9486900              0.0688426
     29.2101550              0.2321844
      9.2866630              0.4679413
      3.1639270              0.3623120
SP   3   1.00
      7.8682724             -0.1193324              0.0689991
      1.8812885             -0.1608542              0.3164240
      0.5442493              1.1434564              0.7443083
SP   1   1.00
      0.1687144              1.0000000              1.0000000
D    1   1.00
      1.2520000              1.0000000
D    1   1.00
      0.3130000              1.0000000
F    1   1.00
      0.8000000              1.0000000
****
N     0
S    6   1.00
   4173.5110000              0.0018348
    627.4579000              0.0139950
    142.9021000              0.0685870
     40.2343300              0.2322410
     12.8202100              0.4690700
      4.3904370              0.3604550
SP   3   1.00
     11.6263580             -0.1149610              0.0675800
      2.7162800             -0.1691180              0.3239070
      0.7722180              1.1458520              0.7408950
SP   1   1.00
      0.2120313              1.0000000              1.0000000
D    1   1.00
      1.8260000              1.0000000
D    1   1.00
      0.4565000              1.0000000
F    1   1.00
      1.0000000              1.0000000
****
O     0
S    6   1.00
   5484.6717000              0.0018311
    825.2349500              0.0139501
    188.0469600              0.0684451
     52.9645000              0.2327143
     16.8975700              0.4701930
      5.7996353              0.3585209
SP   3   1.00
     15.5396160             -0.1107775              0.0708743
      3.5999336             -0.1480263              0.3397528
      1.0137618              1.1307670              0.7271586
SP   1   1.00
      0.2700058              1.0000000              1.0000000
D    1   1.00
      2.5840000              1.0000000
D    1   1.00
      0.6460000              1.0000000
F    1   1.00
      1.4000000              1.0000000
****
F     0
S    6   1.00
   7001.7130900              0.0018196169
   1051.3660900              0.0139160796
    239.2856900              0.0684053245
     67.3974453              0.233185760
     21.5199573              0.471267439
      7.40310130             0.356618546
SP   3   1.00
     20.8479528             -0.108506975            0.0716287243
      4.80830834            -0.146451658            0.3459121030
      1.34406986             1.128688580            0.7224699570
SP   1   1.00
      0.358151393            1.0000000              1.0000000
D    1   1.00
      3.5000000              1.0000000
D    1   1.00
      0.8750000              1.0000000
F    1   1.00
      1.8500000              1.0000000
****
Al     0
S    6   1.00
  13983.1000000              0.00194267
   2098.7500000              0.0148599
    477.7050000              0.0728494
    134.3600000              0.2468300
     42.8709000              0.4872580
     14.5189000              0.3234960
SP   6   1.00
    239.6680000             -0.00292619             0.00460285
     57.4419000             -0.0374080              0.0331990
     18.2859000             -0.1144870              0.1362820
      6.5991400              0.1156350              0.3304760
      2.4904900              0.6125950              0.4491460
      0.9445400              0.3937990              0.2657040
SP   3   1.00
      1.2779000             -0.2276060             -0.0175130
      0.3975900              0.00144583             0.2445330
      0.1600950              1.0927900              0.8049340
SP   1   1.00
      0.0556577              1.0000000              1.0000000
D    1   1.00
      0.6500000              1.0000000
D    1   1.00
      0.1625000              1.0000000
F    1   1.00
      0.2500000              1.0000000
****
Si     0
S    6   1.00
  16115.9000000              0.00195948
   2425.5800000              0.01492880
    553.8670000              0.07284780
    156.3400000              0.24613000
     50.0683000              0.48591400
     17.0178000              0.32500200
SP   6   1.00
    292.7180000             -0.00278094             0.00443826
     69.8731000             -0.03571460             0.03266790
     22.3363000             -0.11498500             0.13472100
      8.1503900              0.09356340             0.32867800
      3.1345800              0.60301700             0.44964000
      1.2254300              0.41895900             0.26137200
SP   3   1.00
      1.7273800             -0.24463000            -0.01779510
      0.5729220              0.00431572             0.25353900
      0.2221920              1.09818000             0.80066900
SP   1   1.00
      0.0778369              1.00000000             1.00000000
D    1   1.00
      0.9000000              1.0000000
D    1   1.00
      0.2250000              1.0000000
F    1   1.00
      0.3200000              1.0000000
****
P     0
S    6   1.00
  19413.3000000              0.0018516
   2909.4200000              0.0142062
    661.3640000              0.0699995
    185.7590000              0.2400790
     59.1943000              0.4847620
     20.0310000              0.3352000
SP   6   1.00
    339.4780000             -0.00278217             0.00456462
     81.0101000             -0.0360499              0.03369360
     25.8780000             -0.1166310              0.13975500
      9.4522100              0.0968328              0.33936200
      3.6656600              0.6144180              0.45092100
      1.4674600              0.4037980              0.23858600
SP   3   1.00
      2.1562300             -0.2529230             -0.01776530
      0.7489970              0.0328517              0.27405800
      0.2831450              1.0812500              0.78542100
SP   1   1.00
      0.0998317              1.0000000              1.00000000
D    1   1.00
      1.1000000              1.0000000
D    1   1.00
      0.2750000              1.0000000
F    1   1.00
      0.4500000              1.0000000
****
S     0
S    6   1.00
  21917.1000000              0.0018690
   3301.4900000              0.0142300
    754.1460000              0.0696960
    212.7110000              0.2384870
     67.9896000              0.4833070
     23.0515000              0.3380740
SP   6   1.00
    423.7350000             -0.0023767              0.0040610
    100.7100000             -0.0316930              0.0306810
     32.1599000             -0.1133170              0.1304520
     11.8079000              0.0560900              0.3272050
      4.6311000              0.5922550              0.4528510
      1.8702500              0.4550060              0.2560420
SP   3   1.00
      2.6158400             -0.2503740             -0.0145110
      0.9221670              0.0669570              0.3102630
      0.3412870              1.0545100              0.7544830
SP   1   1.00
      0.1171670              1.0000000              1.0000000
D    1   1.00
      1.3000000              1.0000000
D    1   1.00
      0.3250000              1.0000000
F    1   1.00
      0.5500000              1.0000000
****
Cl     0
S    6   1.00
  25180.1000000              0.0018330
   3780.3500000              0.0140340
    860.4740000              0.0690970
    242.1450000              0.2374520
     77.3349000              0.4830340
     26.2470000              0.3398560
SP   6   1.00
    491.7650000             -0.0022974              0.0039894
    116.9840000             -0.0307140              0.0303180
     37.4153000             -0.1125280              0.1298800
     13.7834000              0.0450160              0.3279510
      5.4521500              0.5893530              0.4535270
      2.2258800              0.4652060              0.2521540
SP   3   1.00
      3.1864900             -0.2518300             -0.0142990
      1.1442700              0.0615890              0.3235720
      0.4203770              1.0601800              0.7435070
SP   1   1.00
      0.1426570              1.0000000              1.0000000
D    1   1.00
      1.5000000              1.0000000
D    1   1.00
      0.3750000              1.0000000
F    1   1.00
      0.7000000              1.0000000
****
}

set {
reference uhf
freeze_core true
e_convergence 10
d_convergence 10
dft_spherical_points 1202
dft_radial_points 99
}

e = energy('b3lyp')

print_out('Grab this energy {0}'.format(e))
--------------------------------------------------------------------------

    Molecular point group: c1

    Geometry (in Bohr), charge = 0, multiplicity = 2:

       Center              X                  Y                   Z               Mass
    ------------   -----------------  -----------------  -----------------  -----------------
         C           -0.323339533343    -0.000002362765    -0.001319492582    12.000000000000
         C            0.061704304557    -1.401133078265    -2.425774126182    12.000000000000
         C            0.061019219557     2.801758597535     0.001050159418    12.000000000000
         C            0.060576528257    -1.400621282865     2.426987931718    12.000000000000
         H            2.090488557657    -1.643607372065    -2.848115036882     1.007825032230
         H           -0.767355015543    -0.385355000465    -4.028759411782     1.007825032230
         H           -0.767758051843    -3.294852676665    -2.348496942482     1.007825032230
         H            2.086796548857     3.288101105535    -0.001519367582     1.007825032230
         H           -0.765884627243     3.679846616535     1.675099304218     1.007825032230
         H           -0.765407792543     3.680656600735    -1.677903858782     1.007825032230
         H            2.083387310457    -1.644583924665     2.846768569418     1.007825032230
         H           -0.763383183443    -3.289143685065     2.349478789918     1.007825032230
         H           -0.763457637743    -0.391083972965     4.022202283218     1.007825032230

  Charge       = 0
  Multiplicity = 2
  Basis Set: ANONYMOUSC0EF4543
    Blend: 6-31G_2DFP_
  Basis Set: (ANONYMOUSC0EF4543 AUX)
    Blend: DEF2-UNIVERSAL-JKFIT

    Orbital Energies [Eh]
    ---------------------

    Alpha Occupied:

       1A    -10.180342     2A    -10.167622     3A    -10.167015
       4A    -10.166407     5A     -0.797766     6A     -0.686431
       7A     -0.685946     8A     -0.530774     9A     -0.441126
      10A     -0.434750    11A     -0.434593    12A     -0.382785
      13A     -0.382416    14A     -0.363606    15A     -0.338324
      16A     -0.337674    17A     -0.168961

    Alpha Virtual:

      18A      0.076070    19A      0.134105    20A      0.134185
      21A      0.142470    22A      0.142803    23A      0.154878
      24A      0.178405    25A      0.179152    26A      0.203546
      27A      0.214807    28A      0.275815    29A      0.276157
      30A      0.399199    31A      0.399257    32A      0.403344
      33A      0.424006    34A      0.424188    35A      0.456591
      36A      0.495284    37A      0.495495    38A      0.512162
      39A      0.513978    40A      0.578733    41A      0.578895
      42A      0.591347    43A      0.591909    44A      0.602586
      45A      0.624758    46A      0.631644    47A      0.635929
      48A      0.636701    49A      0.663320    50A      0.663508
      51A      0.683538    52A      0.684189    53A      0.734994
      54A      0.825008    55A      0.825798    56A      0.853915
      57A      0.914934    58A      0.915122    59A      0.944130
      60A      0.944611    61A      0.960984    62A      0.961608
      63A      1.003453    64A      1.127763    65A      1.128454
      66A      1.142210    67A      1.163205    68A      1.163342
      69A      1.223324    70A      1.274487    71A      1.274495
      72A      1.279350    73A      1.323937    74A      1.324761
      75A      1.355981    76A      1.365551    77A      1.366552
      78A      1.392456    79A      1.403910    80A      1.404197
      81A      1.417051    82A      1.417155    83A      1.427918
      84A      1.491488    85A      1.499083    86A      1.542604
      87A      1.543059    88A      1.574417    89A      1.574488
      90A      1.669789    91A      1.739176    92A      1.739557
      93A      1.768405    94A      1.829775    95A      1.833112
      96A      1.971674    97A      2.018248    98A      2.018760
      99A      2.019392   100A      2.052124   101A      2.053202
     102A      2.737991   103A      2.738979   104A      2.790924
     105A      2.811431   106A      2.889536   107A      2.890321
     108A      2.894980   109A      2.929223   110A      2.929766
     111A      2.958996   112A      2.963577   113A      2.965210
     114A      3.034017   115A      3.071188   116A      3.071372
     117A      3.084386   118A      3.168774   119A      3.168797
     120A      3.180590   121A      3.285031   122A      3.285605
     123A      3.327154   124A      3.327165   125A      3.375623
     126A      3.489279   127A      3.491020   128A      3.514026
     129A      3.525357   130A      3.568238   131A      3.568517
     132A      3.575163   133A      3.665751   134A      3.666818
     135A      3.679775   136A      3.693690   137A      3.694594
     138A      3.776233   139A      3.777414   140A      3.789114
     141A      3.912113   142A      3.912295   143A      4.034451
     144A      4.110369   145A      4.112269   146A      4.145890
     147A      4.150249   148A      4.173326   149A      4.200597
     150A      4.202925   151A      4.205172   152A      4.211178
     153A      4.315858   154A      4.316053   155A      4.358954
     156A      4.423957   157A      4.424693   158A      4.443703
     159A      4.516776   160A      4.516873   161A      4.577565
     162A      4.579035   163A      4.617530   164A      4.709473
     165A      4.774335   166A      4.774847   167A      4.836879
     168A      4.962876   169A      5.002117   170A      5.003825
     171A      5.227784   172A      5.242928   173A      5.250760
     174A      5.352598   175A      5.358588   176A      5.479430

    Beta Occupied:

       1A    -10.168384     2A    -10.167775     3A    -10.167168
       4A    -10.166516     5A     -0.781092     6A     -0.684235
       7A     -0.683746     8A     -0.511746     9A     -0.431127
      10A     -0.430962    11A     -0.421820    12A     -0.376872
      13A     -0.376500    14A     -0.362589    15A     -0.333440
      16A     -0.332804

    Beta Virtual:

      17A     -0.025743    18A      0.077079    19A      0.134927
      20A      0.135144    21A      0.144406    22A      0.144606
      23A      0.163337    24A      0.182097    25A      0.182802
      26A      0.215037    27A      0.218929    28A      0.282175
      29A      0.282493    30A      0.400372    31A      0.400423
      32A      0.419790    33A      0.426816    34A      0.427001
      35A      0.468499    36A      0.497547    37A      0.497752
      38A      0.513897    39A      0.556324    40A      0.584275
      41A      0.584452    42A      0.597559    43A      0.598058
      44A      0.610009    45A      0.628132    46A      0.631861
      47A      0.639212    48A      0.639931    49A      0.666874
      50A      0.667082    51A      0.686206    52A      0.686791
      53A      0.757518    54A      0.830147    55A      0.830996
      56A      0.855269    57A      0.922902    58A      0.923095
      59A      0.945967    60A      0.953540    61A      0.966328
      62A      0.966876    63A      1.008693    64A      1.131789
      65A      1.132489    66A      1.155568    67A      1.168282
      68A      1.168428    69A      1.232296    70A      1.280064
      71A      1.280111    72A      1.285105    73A      1.328869
      74A      1.329808    75A      1.365390    76A      1.370785
      77A      1.371810    78A      1.393513    79A      1.407368
      80A      1.407672    81A      1.422033    82A      1.422270
      83A      1.428190    84A      1.492537    85A      1.509525
      86A      1.546954    87A      1.547524    88A      1.582287
      89A      1.582359    90A      1.674636    91A      1.744963
      92A      1.745306    93A      1.779173    94A      1.833662
      95A      1.836937    96A      1.972541    97A      2.025088
      98A      2.025831    99A      2.039636   100A      2.058885
     101A      2.059886   102A      2.746319   103A      2.747323
     104A      2.811844   105A      2.816060   106A      2.902171
     107A      2.903096   108A      2.924657   109A      2.931719
     110A      2.932229   111A      2.960066   112A      2.968090
     113A      2.969779   114A      3.041950   115A      3.081028
     116A      3.081313   117A      3.086244   118A      3.184511
     119A      3.184567   120A      3.188264   121A      3.289834
     122A      3.290400   123A      3.330928   124A      3.331000
     125A      3.383441   126A      3.492026   127A      3.493734
     128A      3.512390   129A      3.528401   130A      3.574982
     131A      3.581669   132A      3.581804   133A      3.670563
     134A      3.671545   135A      3.693080   136A      3.725108
     137A      3.726383   138A      3.780851   139A      3.781853
     140A      3.817659   141A      3.921965   142A      3.922078
     143A      4.045331   144A      4.117390   145A      4.118852
     146A      4.153366   147A      4.157232   148A      4.187376
     149A      4.207322   150A      4.209013   151A      4.212199
     152A      4.215662   153A      4.323142   154A      4.323648
     155A      4.362319   156A      4.432049   157A      4.432923
     158A      4.446693   159A      4.524601   160A      4.524631
     161A      4.588234   162A      4.589566   163A      4.624722
     164A      4.719817   165A      4.781275   166A      4.781813
     167A      4.839795   168A      4.967672   169A      5.006172
     170A      5.007848   171A      5.233483   172A      5.244737
     173A      5.252541   174A      5.359110   175A      5.365033
     176A      5.481751

    Final Occupation by Irrep:
              A
    DOCC [    16 ]
    SOCC [     1 ]

  @DF-UKS Final Energy:  -157.81305435300487

   => Energetics <=

    Nuclear Repulsion Energy =            125.3946657674849376
    One-Electron Energy =                -458.7489529445036851
    Two-Electron Energy =                 195.8483811124556837
    DFT Exchange-Correlation Energy =     -20.3071482884417911
    Empirical Dispersion Energy =           0.0000000000000000
    VV10 Nonlocal Energy =                  0.0000000000000000
    Total Energy =                       -157.8130543530048726

  UHF NO Occupations:
  HONO-2 :   15  A 1.9996009
  HONO-1 :   16  A 1.9989805
  HONO-0 :   17  A 1.0000000
  LUNO+0 :   18  A 0.0010195
  LUNO+1 :   19  A 0.0003991
  LUNO+2 :   20  A 0.0001979
  LUNO+3 :   21  A 0.0001972

Computation Completed

Properties will be evaluated at   0.000000,   0.000000,   0.000000 [a0]

Properties computed using the SCF density matrix

  Nuclear Dipole Moment: [e a0]
     X:     0.8272      Y:    -0.0000      Z:    -0.0056

  Electronic Dipole Moment: [e a0]
     X:    -0.7493      Y:     0.0000      Z:     0.0080

  Dipole Moment: [e a0]
     X:     0.0779      Y:    -0.0000      Z:     0.0024     Total:     0.0780

  Dipole Moment: [D]
     X:     0.1980      Y:    -0.0000      Z:     0.0061     Total:     0.1981

*** tstop() called on n082 at Fri Nov  5 12:06:38 2021
Module time:
	user time   =     494.32 seconds =       8.24 minutes
	system time =       4.54 seconds =       0.08 minutes
	total time  =        126 seconds =       2.10 minutes
Total time:
	user time   =     494.32 seconds =       8.24 minutes
	system time =       4.54 seconds =       0.08 minutes
	total time  =        126 seconds =       2.10 minutes
Grab this energy -157.81305435300487
    Psi4 stopped on: Friday, 05 November 2021 12:06PM
    Psi4 wall time for execution: 0:02:05.44

*** Psi4 exiting successfully. Buy a developer a beer!
