                               Psi4 1.4a2.dev629

  ==> Input File <==

--------------------------------------------------------------------------
import os
memory 14 GB

molecule {
 C   -0.3218893049   -0.0000013454    0.0004326879
 C    0.0600158979   -1.4015718958   -2.4261946413
 C    0.0601658714    2.8018539922    0.0013894164
 C    0.0605532097   -1.4002763805    2.4267297382
 H    2.0877766790   -1.6455859484   -2.8465203805
 H   -0.7671493924   -0.3881146995   -4.0262140179
 H   -0.7641096607   -3.2901624401   -2.3496727747
 H    2.0868494940    3.2880589839    0.0034968829
 H   -0.7622833247    3.6793475218    1.6741643389
 H   -0.7686899307    3.6811574493   -1.6789471632
 H    2.0861993295   -1.6425659592    2.8482840896
 H   -0.7667071085   -3.2939327423    2.3482456119
 H   -0.7633396362   -0.3882308495    4.0248062117
units bohr
0 2
}

basis {

assign 6-31g_2dfp_

[ 6-31g_2dfp_ ]

spherical

!----------------------------------------------------------------------
! Basis Set Exchange
! Version v0.8.13
! https://www.basissetexchange.org
!----------------------------------------------------------------------
!   Basis set: 6-31G(2df,p)
! Description: 6-31G(2df,p)
!        Role: orbital
!     Version: 0  (Data from the original Basis Set Exchange)
!----------------------------------------------------------------------

****
H     0
S    3   1.00
     18.7311370              0.03349460
      2.8253937              0.23472695
      0.6401217              0.81375733
S    1   1.00
      0.1612778              1.00000000
P    1   1.00
      1.5000000              1.0000000
P    1   1.00
      0.3750000              1.0000000
****
B     0
S    6   1.00
   2068.8823000              0.0018663
    310.6495700              0.0142515
     70.6830330              0.0695516
     19.8610800              0.2325729
      6.2993048              0.4670787
      2.1270270              0.3634314
SP   3   1.00
      4.7279710             -0.1303938              0.0745976
      1.1903377             -0.1307889              0.3078467
      0.3594117              1.1309444              0.7434568
SP   1   1.00
      0.1267512              1.0000000              1.0000000
D    1   1.00
      0.8020000              1.0000000
D    1   1.00
      0.2005000              1.0000000
F    1   1.00
      0.5000000              1.0000000
****
C     0
S    6   1.00
   3047.5249000              0.0018347
    457.3695100              0.0140373
    103.9486900              0.0688426
     29.2101550              0.2321844
      9.2866630              0.4679413
      3.1639270              0.3623120
SP   3   1.00
      7.8682724             -0.1193324              0.0689991
      1.8812885             -0.1608542              0.3164240
      0.5442493              1.1434564              0.7443083
SP   1   1.00
      0.1687144              1.0000000              1.0000000
D    1   1.00
      1.2520000              1.0000000
D    1   1.00
      0.3130000              1.0000000
F    1   1.00
      0.8000000              1.0000000
****
N     0
S    6   1.00
   4173.5110000              0.0018348
    627.4579000              0.0139950
    142.9021000              0.0685870
     40.2343300              0.2322410
     12.8202100              0.4690700
      4.3904370              0.3604550
SP   3   1.00
     11.6263580             -0.1149610              0.0675800
      2.7162800             -0.1691180              0.3239070
      0.7722180              1.1458520              0.7408950
SP   1   1.00
      0.2120313              1.0000000              1.0000000
D    1   1.00
      1.8260000              1.0000000
D    1   1.00
      0.4565000              1.0000000
F    1   1.00
      1.0000000              1.0000000
****
O     0
S    6   1.00
   5484.6717000              0.0018311
    825.2349500              0.0139501
    188.0469600              0.0684451
     52.9645000              0.2327143
     16.8975700              0.4701930
      5.7996353              0.3585209
SP   3   1.00
     15.5396160             -0.1107775              0.0708743
      3.5999336             -0.1480263              0.3397528
      1.0137618              1.1307670              0.7271586
SP   1   1.00
      0.2700058              1.0000000              1.0000000
D    1   1.00
      2.5840000              1.0000000
D    1   1.00
      0.6460000              1.0000000
F    1   1.00
      1.4000000              1.0000000
****
F     0
S    6   1.00
   7001.7130900              0.0018196169
   1051.3660900              0.0139160796
    239.2856900              0.0684053245
     67.3974453              0.233185760
     21.5199573              0.471267439
      7.40310130             0.356618546
SP   3   1.00
     20.8479528             -0.108506975            0.0716287243
      4.80830834            -0.146451658            0.3459121030
      1.34406986             1.128688580            0.7224699570
SP   1   1.00
      0.358151393            1.0000000              1.0000000
D    1   1.00
      3.5000000              1.0000000
D    1   1.00
      0.8750000              1.0000000
F    1   1.00
      1.8500000              1.0000000
****
Al     0
S    6   1.00
  13983.1000000              0.00194267
   2098.7500000              0.0148599
    477.7050000              0.0728494
    134.3600000              0.2468300
     42.8709000              0.4872580
     14.5189000              0.3234960
SP   6   1.00
    239.6680000             -0.00292619             0.00460285
     57.4419000             -0.0374080              0.0331990
     18.2859000             -0.1144870              0.1362820
      6.5991400              0.1156350              0.3304760
      2.4904900              0.6125950              0.4491460
      0.9445400              0.3937990              0.2657040
SP   3   1.00
      1.2779000             -0.2276060             -0.0175130
      0.3975900              0.00144583             0.2445330
      0.1600950              1.0927900              0.8049340
SP   1   1.00
      0.0556577              1.0000000              1.0000000
D    1   1.00
      0.6500000              1.0000000
D    1   1.00
      0.1625000              1.0000000
F    1   1.00
      0.2500000              1.0000000
****
Si     0
S    6   1.00
  16115.9000000              0.00195948
   2425.5800000              0.01492880
    553.8670000              0.07284780
    156.3400000              0.24613000
     50.0683000              0.48591400
     17.0178000              0.32500200
SP   6   1.00
    292.7180000             -0.00278094             0.00443826
     69.8731000             -0.03571460             0.03266790
     22.3363000             -0.11498500             0.13472100
      8.1503900              0.09356340             0.32867800
      3.1345800              0.60301700             0.44964000
      1.2254300              0.41895900             0.26137200
SP   3   1.00
      1.7273800             -0.24463000            -0.01779510
      0.5729220              0.00431572             0.25353900
      0.2221920              1.09818000             0.80066900
SP   1   1.00
      0.0778369              1.00000000             1.00000000
D    1   1.00
      0.9000000              1.0000000
D    1   1.00
      0.2250000              1.0000000
F    1   1.00
      0.3200000              1.0000000
****
P     0
S    6   1.00
  19413.3000000              0.0018516
   2909.4200000              0.0142062
    661.3640000              0.0699995
    185.7590000              0.2400790
     59.1943000              0.4847620
     20.0310000              0.3352000
SP   6   1.00
    339.4780000             -0.00278217             0.00456462
     81.0101000             -0.0360499              0.03369360
     25.8780000             -0.1166310              0.13975500
      9.4522100              0.0968328              0.33936200
      3.6656600              0.6144180              0.45092100
      1.4674600              0.4037980              0.23858600
SP   3   1.00
      2.1562300             -0.2529230             -0.01776530
      0.7489970              0.0328517              0.27405800
      0.2831450              1.0812500              0.78542100
SP   1   1.00
      0.0998317              1.0000000              1.00000000
D    1   1.00
      1.1000000              1.0000000
D    1   1.00
      0.2750000              1.0000000
F    1   1.00
      0.4500000              1.0000000
****
S     0
S    6   1.00
  21917.1000000              0.0018690
   3301.4900000              0.0142300
    754.1460000              0.0696960
    212.7110000              0.2384870
     67.9896000              0.4833070
     23.0515000              0.3380740
SP   6   1.00
    423.7350000             -0.0023767              0.0040610
    100.7100000             -0.0316930              0.0306810
     32.1599000             -0.1133170              0.1304520
     11.8079000              0.0560900              0.3272050
      4.6311000              0.5922550              0.4528510
      1.8702500              0.4550060              0.2560420
SP   3   1.00
      2.6158400             -0.2503740             -0.0145110
      0.9221670              0.0669570              0.3102630
      0.3412870              1.0545100              0.7544830
SP   1   1.00
      0.1171670              1.0000000              1.0000000
D    1   1.00
      1.3000000              1.0000000
D    1   1.00
      0.3250000              1.0000000
F    1   1.00
      0.5500000              1.0000000
****
Cl     0
S    6   1.00
  25180.1000000              0.0018330
   3780.3500000              0.0140340
    860.4740000              0.0690970
    242.1450000              0.2374520
     77.3349000              0.4830340
     26.2470000              0.3398560
SP   6   1.00
    491.7650000             -0.0022974              0.0039894
    116.9840000             -0.0307140              0.0303180
     37.4153000             -0.1125280              0.1298800
     13.7834000              0.0450160              0.3279510
      5.4521500              0.5893530              0.4535270
      2.2258800              0.4652060              0.2521540
SP   3   1.00
      3.1864900             -0.2518300             -0.0142990
      1.1442700              0.0615890              0.3235720
      0.4203770              1.0601800              0.7435070
SP   1   1.00
      0.1426570              1.0000000              1.0000000
D    1   1.00
      1.5000000              1.0000000
D    1   1.00
      0.3750000              1.0000000
F    1   1.00
      0.7000000              1.0000000
****
}

set {
reference uhf
freeze_core true
e_convergence 10
d_convergence 10
dft_spherical_points 1202
dft_radial_points 99
}

e = energy('b3lyp')

print_out('Grab this energy {0}'.format(e))
--------------------------------------------------------------------------

    Molecular point group: c1

    Geometry (in Bohr), charge = 0, multiplicity = 2:

       Center              X                  Y                   Z               Mass
    ------------   -----------------  -----------------  -----------------  -----------------
         C           -0.321674674788    -0.000001757830    -0.000021326027    12.000000000000
         C            0.060230528012    -1.401572308230    -2.426648655227    12.000000000000
         C            0.060380501512     2.801853579770     0.000935402473    12.000000000000
         C            0.060767839812    -1.400276792930     2.426275724273    12.000000000000
         H            2.087991309112    -1.645586360830    -2.846974394427     1.007825032230
         H           -0.766934762288    -0.388115111930    -4.026668031827     1.007825032230
         H           -0.763895030588    -3.290162852530    -2.350126788627     1.007825032230
         H            2.087064124112     3.288058571470     0.003042868973     1.007825032230
         H           -0.762068694588     3.679347109370     1.673710324973     1.007825032230
         H           -0.768475300588     3.681157036870    -1.679401177127     1.007825032230
         H            2.086413959612    -1.642566371630     2.847830075673     1.007825032230
         H           -0.766492478388    -3.293933154730     2.347791597973     1.007825032230
         H           -0.763125006088    -0.388231261930     4.024352197773     1.007825032230

  Charge       = 0
  Multiplicity = 2
  Basis Set: ANONYMOUSC996A47E
    Blend: 6-31G_2DFP_
  Basis Set: (ANONYMOUSC996A47E AUX)
    Blend: DEF2-UNIVERSAL-JKFIT

    Orbital Energies [Eh]
    ---------------------

    Alpha Occupied:

       1A    -10.180277     2A    -10.167042     3A    -10.167035
       4A    -10.166992     5A     -0.797782     6A     -0.686265
       7A     -0.686145     8A     -0.530772     9A     -0.441069
      10A     -0.434920    11A     -0.434546    12A     -0.382514
      13A     -0.382470    14A     -0.363738    15A     -0.338252
      16A     -0.337928    17A     -0.168778

    Alpha Virtual:

      18A      0.076067    19A      0.134045    20A      0.134270
      21A      0.142447    22A      0.142855    23A      0.154802
      24A      0.178616    25A      0.178802    26A      0.203521
      27A      0.214852    28A      0.276049    29A      0.276269
      30A      0.399002    31A      0.399494    32A      0.403425
      33A      0.423962    34A      0.424287    35A      0.456499
      36A      0.495364    37A      0.495466    38A      0.512116
      39A      0.514078    40A      0.578631    41A      0.578747
      42A      0.591463    43A      0.591748    44A      0.602351
      45A      0.624798    46A      0.631829    47A      0.636147
      48A      0.636714    49A      0.663043    50A      0.663463
      51A      0.683771    52A      0.684170    53A      0.735190
      54A      0.825211    55A      0.825713    56A      0.853914
      57A      0.914876    58A      0.915304    59A      0.944077
      60A      0.944559    61A      0.961193    62A      0.961362
      63A      1.003455    64A      1.127736    65A      1.128300
      66A      1.142205    67A      1.162777    68A      1.162898
      69A      1.223485    70A      1.274307    71A      1.274798
      72A      1.279115    73A      1.324395    74A      1.324810
      75A      1.355752    76A      1.366127    77A      1.366732
      78A      1.392442    79A      1.403962    80A      1.404042
      81A      1.416180    82A      1.417566    83A      1.427851
      84A      1.491681    85A      1.498678    86A      1.542765
      87A      1.542812    88A      1.574529    89A      1.574935
      90A      1.670100    91A      1.738948    92A      1.740361
      93A      1.768266    94A      1.831005    95A      1.832545
      96A      1.972017    97A      2.017846    98A      2.018918
      99A      2.020029   100A      2.051729   101A      2.052786
     102A      2.738498   103A      2.738859   104A      2.790725
     105A      2.811458   106A      2.890049   107A      2.890357
     108A      2.894627   109A      2.929455   110A      2.929499
     111A      2.959030   112A      2.964447   113A      2.964563
     114A      3.033655   115A      3.071548   116A      3.072639
     117A      3.084514   118A      3.168245   119A      3.169079
     120A      3.180623   121A      3.284359   122A      3.284663
     123A      3.326436   124A      3.327182   125A      3.375458
     126A      3.490117   127A      3.490672   128A      3.514199
     129A      3.524865   130A      3.568244   131A      3.569118
     132A      3.574502   133A      3.666488   134A      3.667463
     135A      3.679862   136A      3.693826   137A      3.694309
     138A      3.776963   139A      3.777192   140A      3.790392
     141A      3.911667   142A      3.912826   143A      4.034755
     144A      4.111055   145A      4.112096   146A      4.147828
     147A      4.148402   148A      4.173377   149A      4.201959
     150A      4.203017   151A      4.203564   152A      4.210917
     153A      4.315106   154A      4.316428   155A      4.358494
     156A      4.424070   157A      4.425158   158A      4.443707
     159A      4.515493   160A      4.517590   161A      4.578144
     162A      4.578168   163A      4.618042   164A      4.709104
     165A      4.773771   166A      4.775746   167A      4.838103
     168A      4.962766   169A      5.002442   170A      5.003179
     171A      5.227692   172A      5.246863   173A      5.247379
     174A      5.354528   175A      5.357063   176A      5.479779

    Beta Occupied:

       1A    -10.167798     2A    -10.167791     3A    -10.167766
       4A    -10.166458     5A     -0.781102     6A     -0.684072
       7A     -0.683948     8A     -0.511752     9A     -0.431303
      10A     -0.430928    11A     -0.421732    12A     -0.376585
      13A     -0.376549    14A     -0.362723    15A     -0.333367
      16A     -0.333051

    Beta Virtual:

      17A     -0.025642    18A      0.077080    19A      0.134920
      20A      0.135196    21A      0.144287    22A      0.144751
      23A      0.163271    24A      0.182287    25A      0.182472
      26A      0.215081    27A      0.218926    28A      0.282385
      29A      0.282603    30A      0.400168    31A      0.400669
      32A      0.419897    33A      0.426771    34A      0.427096
      35A      0.468394    36A      0.497615    37A      0.497727
      38A      0.513855    39A      0.556424    40A      0.584196
      41A      0.584309    42A      0.597612    43A      0.597944
      44A      0.609802    45A      0.628153    46A      0.631986
      47A      0.639446    48A      0.639973    49A      0.666619
      50A      0.667010    51A      0.686433    52A      0.686788
      53A      0.757693    54A      0.830387    55A      0.830866
      56A      0.855271    57A      0.922857    58A      0.923245
      59A      0.945917    60A      0.953492    61A      0.966515
      62A      0.966720    63A      1.008676    64A      1.131762
      65A      1.132317    66A      1.155615    67A      1.167857
      68A      1.167969    69A      1.232461    70A      1.279871
      71A      1.280396    72A      1.284862    73A      1.329377
      74A      1.329789    75A      1.365193    76A      1.371438
      77A      1.371915    78A      1.393508    79A      1.407409
      80A      1.407528    81A      1.421302    82A      1.422587
      83A      1.428114    84A      1.492732    85A      1.509115
      86A      1.547148    87A      1.547250    88A      1.582398
      89A      1.582804    90A      1.674931    91A      1.744699
      92A      1.746140    93A      1.779064    94A      1.834864
      95A      1.836412    96A      1.972878    97A      2.024579
      98A      2.025699    99A      2.040684   100A      2.058418
     101A      2.059500   102A      2.746823   103A      2.747207
     104A      2.811861   105A      2.815880   106A      2.902649
     107A      2.903043   108A      2.924354   109A      2.931945
     110A      2.931994   111A      2.960106   112A      2.968967
     113A      2.969098   114A      3.041631   115A      3.081344
     116A      3.082427   117A      3.086492   118A      3.184128
     119A      3.184891   120A      3.188261   121A      3.289186
     122A      3.289514   123A      3.330196   124A      3.331012
     125A      3.383267   126A      3.492842   127A      3.493371
     128A      3.512558   129A      3.527902   130A      3.574360
     131A      3.581462   132A      3.582493   133A      3.671389
     134A      3.672091   135A      3.693172   136A      3.725636
     137A      3.725739   138A      3.781420   139A      3.781713
     140A      3.818941   141A      3.921454   142A      3.922745
     143A      4.045614   144A      4.117675   145A      4.119140
     146A      4.154802   147A      4.155833   148A      4.187452
     149A      4.207921   150A      4.209461   151A      4.210981
     152A      4.215426   153A      4.322569   154A      4.323809
     155A      4.361856   156A      4.432346   157A      4.433393
     158A      4.446589   159A      4.523293   160A      4.525405
     161A      4.588688   162A      4.588759   163A      4.625243
     164A      4.719423   165A      4.780737   166A      4.782659
     167A      4.841009   168A      4.967563   169A      5.006497
     170A      5.007230   171A      5.233300   172A      5.248656
     173A      5.249265   174A      5.361009   175A      5.363522
     176A      5.482095

    Final Occupation by Irrep:
              A
    DOCC [    16 ]
    SOCC [     1 ]

  @DF-UKS Final Energy:  -157.81306862006682

   => Energetics <=

    Nuclear Repulsion Energy =            125.3970593723277887
    One-Electron Energy =                -458.7535894021050922
    Two-Electron Energy =                 195.8506757718344318
    DFT Exchange-Correlation Energy =     -20.3072143621239007
    Empirical Dispersion Energy =           0.0000000000000000
    VV10 Nonlocal Energy =                  0.0000000000000000
    Total Energy =                       -157.8130686200668151

  UHF NO Occupations:
  HONO-2 :   15  A 1.9995994
  HONO-1 :   16  A 1.9989790
  HONO-0 :   17  A 1.0000000
  LUNO+0 :   18  A 0.0010210
  LUNO+1 :   19  A 0.0004006
  LUNO+2 :   20  A 0.0001974
  LUNO+3 :   21  A 0.0001974

Computation Completed

Properties will be evaluated at   0.000000,   0.000000,   0.000000 [a0]

Properties computed using the SCF density matrix

  Nuclear Dipole Moment: [e a0]
     X:     0.8287      Y:    -0.0000      Z:    -0.0032

  Electronic Dipole Moment: [e a0]
     X:    -0.7516      Y:     0.0000      Z:     0.0049

  Dipole Moment: [e a0]
     X:     0.0771      Y:    -0.0000      Z:     0.0017     Total:     0.0772

  Dipole Moment: [D]
     X:     0.1961      Y:    -0.0000      Z:     0.0044     Total:     0.1961

*** tstop() called on n073 at Fri Nov  5 11:34:35 2021
Module time:
	user time   =     536.82 seconds =       8.95 minutes
	system time =      12.36 seconds =       0.21 minutes
	total time  =        138 seconds =       2.30 minutes
Total time:
	user time   =     536.82 seconds =       8.95 minutes
	system time =      12.36 seconds =       0.21 minutes
	total time  =        138 seconds =       2.30 minutes
Grab this energy -157.81306862006682
    Psi4 stopped on: Friday, 05 November 2021 11:34AM
    Psi4 wall time for execution: 0:02:18.14

*** Psi4 exiting successfully. Buy a developer a beer!
