                               Psi4 1.4a2.dev629

  ==> Input File <==

--------------------------------------------------------------------------
import os
memory 14 GB

molecule {
 C   -0.3233546685   -0.0050080490   -0.0000000000
 C    0.0607449042   -1.3978553818   -2.4319201043
 C    0.0615337018    2.7931807988    0.0000000000
 C    0.0607449042   -1.3978553818    2.4319201043
 H    2.0896989498   -1.6378419376   -2.8559053146
 H   -0.7698569940   -0.3774376729   -4.0288887615
 H   -0.7652338399   -3.2927749246   -2.3609237526
 H    2.0907328725    3.2785788659    0.0000000000
 H   -0.7661129113    3.6725219522    1.6790935154
 H   -0.7661129113    3.6725219522   -1.6790935154
 H    2.0896989498   -1.6378419376    2.8559053146
 H   -0.7652338399   -3.2927749246    2.3609237526
 H   -0.7698569940   -0.3774376729    4.0288887615
units bohr
0 2
}

basis {

assign 6-31g_2dfp_

[ 6-31g_2dfp_ ]

spherical

!----------------------------------------------------------------------
! Basis Set Exchange
! Version v0.8.13
! https://www.basissetexchange.org
!----------------------------------------------------------------------
!   Basis set: 6-31G(2df,p)
! Description: 6-31G(2df,p)
!        Role: orbital
!     Version: 0  (Data from the original Basis Set Exchange)
!----------------------------------------------------------------------

****
H     0
S    3   1.00
     18.7311370              0.03349460
      2.8253937              0.23472695
      0.6401217              0.81375733
S    1   1.00
      0.1612778              1.00000000
P    1   1.00
      1.5000000              1.0000000
P    1   1.00
      0.3750000              1.0000000
****
B     0
S    6   1.00
   2068.8823000              0.0018663
    310.6495700              0.0142515
     70.6830330              0.0695516
     19.8610800              0.2325729
      6.2993048              0.4670787
      2.1270270              0.3634314
SP   3   1.00
      4.7279710             -0.1303938              0.0745976
      1.1903377             -0.1307889              0.3078467
      0.3594117              1.1309444              0.7434568
SP   1   1.00
      0.1267512              1.0000000              1.0000000
D    1   1.00
      0.8020000              1.0000000
D    1   1.00
      0.2005000              1.0000000
F    1   1.00
      0.5000000              1.0000000
****
C     0
S    6   1.00
   3047.5249000              0.0018347
    457.3695100              0.0140373
    103.9486900              0.0688426
     29.2101550              0.2321844
      9.2866630              0.4679413
      3.1639270              0.3623120
SP   3   1.00
      7.8682724             -0.1193324              0.0689991
      1.8812885             -0.1608542              0.3164240
      0.5442493              1.1434564              0.7443083
SP   1   1.00
      0.1687144              1.0000000              1.0000000
D    1   1.00
      1.2520000              1.0000000
D    1   1.00
      0.3130000              1.0000000
F    1   1.00
      0.8000000              1.0000000
****
N     0
S    6   1.00
   4173.5110000              0.0018348
    627.4579000              0.0139950
    142.9021000              0.0685870
     40.2343300              0.2322410
     12.8202100              0.4690700
      4.3904370              0.3604550
SP   3   1.00
     11.6263580             -0.1149610              0.0675800
      2.7162800             -0.1691180              0.3239070
      0.7722180              1.1458520              0.7408950
SP   1   1.00
      0.2120313              1.0000000              1.0000000
D    1   1.00
      1.8260000              1.0000000
D    1   1.00
      0.4565000              1.0000000
F    1   1.00
      1.0000000              1.0000000
****
O     0
S    6   1.00
   5484.6717000              0.0018311
    825.2349500              0.0139501
    188.0469600              0.0684451
     52.9645000              0.2327143
     16.8975700              0.4701930
      5.7996353              0.3585209
SP   3   1.00
     15.5396160             -0.1107775              0.0708743
      3.5999336             -0.1480263              0.3397528
      1.0137618              1.1307670              0.7271586
SP   1   1.00
      0.2700058              1.0000000              1.0000000
D    1   1.00
      2.5840000              1.0000000
D    1   1.00
      0.6460000              1.0000000
F    1   1.00
      1.4000000              1.0000000
****
F     0
S    6   1.00
   7001.7130900              0.0018196169
   1051.3660900              0.0139160796
    239.2856900              0.0684053245
     67.3974453              0.233185760
     21.5199573              0.471267439
      7.40310130             0.356618546
SP   3   1.00
     20.8479528             -0.108506975            0.0716287243
      4.80830834            -0.146451658            0.3459121030
      1.34406986             1.128688580            0.7224699570
SP   1   1.00
      0.358151393            1.0000000              1.0000000
D    1   1.00
      3.5000000              1.0000000
D    1   1.00
      0.8750000              1.0000000
F    1   1.00
      1.8500000              1.0000000
****
Al     0
S    6   1.00
  13983.1000000              0.00194267
   2098.7500000              0.0148599
    477.7050000              0.0728494
    134.3600000              0.2468300
     42.8709000              0.4872580
     14.5189000              0.3234960
SP   6   1.00
    239.6680000             -0.00292619             0.00460285
     57.4419000             -0.0374080              0.0331990
     18.2859000             -0.1144870              0.1362820
      6.5991400              0.1156350              0.3304760
      2.4904900              0.6125950              0.4491460
      0.9445400              0.3937990              0.2657040
SP   3   1.00
      1.2779000             -0.2276060             -0.0175130
      0.3975900              0.00144583             0.2445330
      0.1600950              1.0927900              0.8049340
SP   1   1.00
      0.0556577              1.0000000              1.0000000
D    1   1.00
      0.6500000              1.0000000
D    1   1.00
      0.1625000              1.0000000
F    1   1.00
      0.2500000              1.0000000
****
Si     0
S    6   1.00
  16115.9000000              0.00195948
   2425.5800000              0.01492880
    553.8670000              0.07284780
    156.3400000              0.24613000
     50.0683000              0.48591400
     17.0178000              0.32500200
SP   6   1.00
    292.7180000             -0.00278094             0.00443826
     69.8731000             -0.03571460             0.03266790
     22.3363000             -0.11498500             0.13472100
      8.1503900              0.09356340             0.32867800
      3.1345800              0.60301700             0.44964000
      1.2254300              0.41895900             0.26137200
SP   3   1.00
      1.7273800             -0.24463000            -0.01779510
      0.5729220              0.00431572             0.25353900
      0.2221920              1.09818000             0.80066900
SP   1   1.00
      0.0778369              1.00000000             1.00000000
D    1   1.00
      0.9000000              1.0000000
D    1   1.00
      0.2250000              1.0000000
F    1   1.00
      0.3200000              1.0000000
****
P     0
S    6   1.00
  19413.3000000              0.0018516
   2909.4200000              0.0142062
    661.3640000              0.0699995
    185.7590000              0.2400790
     59.1943000              0.4847620
     20.0310000              0.3352000
SP   6   1.00
    339.4780000             -0.00278217             0.00456462
     81.0101000             -0.0360499              0.03369360
     25.8780000             -0.1166310              0.13975500
      9.4522100              0.0968328              0.33936200
      3.6656600              0.6144180              0.45092100
      1.4674600              0.4037980              0.23858600
SP   3   1.00
      2.1562300             -0.2529230             -0.01776530
      0.7489970              0.0328517              0.27405800
      0.2831450              1.0812500              0.78542100
SP   1   1.00
      0.0998317              1.0000000              1.00000000
D    1   1.00
      1.1000000              1.0000000
D    1   1.00
      0.2750000              1.0000000
F    1   1.00
      0.4500000              1.0000000
****
S     0
S    6   1.00
  21917.1000000              0.0018690
   3301.4900000              0.0142300
    754.1460000              0.0696960
    212.7110000              0.2384870
     67.9896000              0.4833070
     23.0515000              0.3380740
SP   6   1.00
    423.7350000             -0.0023767              0.0040610
    100.7100000             -0.0316930              0.0306810
     32.1599000             -0.1133170              0.1304520
     11.8079000              0.0560900              0.3272050
      4.6311000              0.5922550              0.4528510
      1.8702500              0.4550060              0.2560420
SP   3   1.00
      2.6158400             -0.2503740             -0.0145110
      0.9221670              0.0669570              0.3102630
      0.3412870              1.0545100              0.7544830
SP   1   1.00
      0.1171670              1.0000000              1.0000000
D    1   1.00
      1.3000000              1.0000000
D    1   1.00
      0.3250000              1.0000000
F    1   1.00
      0.5500000              1.0000000
****
Cl     0
S    6   1.00
  25180.1000000              0.0018330
   3780.3500000              0.0140340
    860.4740000              0.0690970
    242.1450000              0.2374520
     77.3349000              0.4830340
     26.2470000              0.3398560
SP   6   1.00
    491.7650000             -0.0022974              0.0039894
    116.9840000             -0.0307140              0.0303180
     37.4153000             -0.1125280              0.1298800
     13.7834000              0.0450160              0.3279510
      5.4521500              0.5893530              0.4535270
      2.2258800              0.4652060              0.2521540
SP   3   1.00
      3.1864900             -0.2518300             -0.0142990
      1.1442700              0.0615890              0.3235720
      0.4203770              1.0601800              0.7435070
SP   1   1.00
      0.1426570              1.0000000              1.0000000
D    1   1.00
      1.5000000              1.0000000
D    1   1.00
      0.3750000              1.0000000
F    1   1.00
      0.7000000              1.0000000
****
}

set {
reference uhf
freeze_core true
e_convergence 10
d_convergence 10
dft_spherical_points 1202
dft_radial_points 99
}

e = energy('b3lyp')

print_out('Grab this energy {0}'.format(e))
--------------------------------------------------------------------------

    Molecular point group: cs

    Geometry (in Bohr), charge = 0, multiplicity = 2:

       Center              X                  Y                   Z               Mass
    ------------   -----------------  -----------------  -----------------  -----------------
         C           -0.323298586397    -0.003555743885     0.000000000000    12.000000000000
         C            0.060800986303    -1.396403076685    -2.431920104300    12.000000000000
         C            0.061589783903     2.794633103915     0.000000000000    12.000000000000
         C            0.060800986303    -1.396403076685     2.431920104300    12.000000000000
         H            2.089755031903    -1.636389632485    -2.855905314600     1.007825032230
         H           -0.769800911897    -0.375985367785    -4.028888761500     1.007825032230
         H           -0.765177757797    -3.291322619485    -2.360923752600     1.007825032230
         H            2.090788954603     3.280031171015     0.000000000000     1.007825032230
         H           -0.766056829197     3.673974257315     1.679093515400     1.007825032230
         H           -0.766056829197     3.673974257315    -1.679093515400     1.007825032230
         H            2.089755031903    -1.636389632485     2.855905314600     1.007825032230
         H           -0.765177757797    -3.291322619485     2.360923752600     1.007825032230
         H           -0.769800911897    -0.375985367785     4.028888761500     1.007825032230

  Charge       = 0
  Multiplicity = 2
  Basis Set: ANONYMOUS5798AD6C
    Blend: 6-31G_2DFP_
  Basis Set: (ANONYMOUS5798AD6C AUX)
    Blend: DEF2-UNIVERSAL-JKFIT

    Orbital Energies [Eh]
    ---------------------

    Alpha Occupied:

       1Ap   -10.180410     1App  -10.167721     2Ap   -10.167692
       3Ap   -10.167238     4Ap    -0.797809     2App   -0.686047
       5Ap    -0.685606     6Ap    -0.530465     7Ap    -0.441026
       3App   -0.434797     8Ap    -0.434267     4App   -0.382484
       9Ap    -0.382195     5App   -0.363295     6App   -0.338263
      10Ap    -0.337722    11Ap    -0.169023

    Alpha Virtual:

      12Ap     0.075739     7App    0.133547    13Ap     0.134028
       8App    0.142081    14Ap     0.142355    15Ap     0.154582
       9App    0.178048    16Ap     0.178496    17Ap     0.203654
      10App    0.214352    11App    0.275793    18Ap     0.276133
      12App    0.399147    19Ap     0.399347    20Ap     0.403213
      13App    0.423694    21Ap     0.423962    22Ap     0.456461
      14App    0.494763    23Ap     0.495561    15App    0.511903
      24Ap     0.513854    16App    0.578227    25Ap     0.578709
      17App    0.591021    26Ap     0.591051    27Ap     0.601925
      28Ap     0.623796    18App    0.631069    29Ap     0.635469
      19App    0.635910    20App    0.662863    30Ap     0.663297
      21App    0.683065    31Ap     0.683552    32Ap     0.734683
      22App    0.823761    33Ap     0.825407    23App    0.853397
      24App    0.914078    34Ap     0.914553    25App    0.943432
      35Ap     0.943726    36Ap     0.960488    26App    0.960994
      37Ap     1.003370    27App    1.126544    38Ap     1.128856
      39Ap     1.141343    28App    1.162533    40Ap     1.163487
      41Ap     1.222889    29App    1.273442    42Ap     1.274483
      43Ap     1.279801    44Ap     1.323563    30App    1.323721
      45Ap     1.355139    31App    1.364759    46Ap     1.366290
      32App    1.391842    33App    1.402276    47Ap     1.403852
      34App    1.415677    48Ap     1.416686    35App    1.427173
      36App    1.490546    49Ap     1.497707    37App    1.542018
      50Ap     1.542622    38App    1.572472    51Ap     1.576194
      52Ap     1.667657    39App    1.736934    53Ap     1.738998
      54Ap     1.766838    40App    1.828414    55Ap     1.829442
      41App    1.970095    42App    2.016429    56Ap     2.017190
      57Ap     2.019259    43App    2.049063    58Ap     2.054153
      44App    2.737242    59Ap     2.737777    60Ap     2.790709
      45App    2.810928    61Ap     2.889281    46App    2.889487
      62Ap     2.894869    47App    2.928956    63Ap     2.929271
      48App    2.958367    49App    2.962859    64Ap     2.964635
      65Ap     3.033111    50App    3.069310    66Ap     3.071344
      51App    3.083461    52App    3.168724    67Ap     3.170215
      68Ap     3.180263    69Ap     3.284633    53App    3.286058
      54App    3.326732    70Ap     3.328625    71Ap     3.376359
      55App    3.490608    72Ap     3.491622    56App    3.514329
      73Ap     3.525934    57App    3.566936    74Ap     3.569397
      58App    3.576977    59App    3.665527    75Ap     3.665764
      76Ap     3.677829    77Ap     3.692825    60App    3.693754
      78Ap     3.775338    61App    3.777096    79Ap     3.788720
      62App    3.909875    80Ap     3.912698    81Ap     4.032123
      63App    4.107546    82Ap     4.110278    64App    4.143163
      83Ap     4.146418    84Ap     4.170280    65App    4.199885
      85Ap     4.201260    86Ap     4.203409    66App    4.207278
      87Ap     4.313690    67App    4.313741    68App    4.356589
      69App    4.421651    88Ap     4.421995    70App    4.441510
      71App    4.513630    89Ap     4.515225    72App    4.575720
      90Ap     4.577855    91Ap     4.616849    92Ap     4.707424
      73App    4.771475    93Ap     4.774181    74App    4.834589
      94Ap     4.962087    75App    5.000871    95Ap     5.002875
      96Ap     5.222736    97Ap     5.241369    76App    5.241685
      77App    5.350213    98Ap     5.351620    78App    5.476112

    Beta Occupied:

       1App  -10.168477     1Ap   -10.168457     2Ap   -10.168002
       3Ap   -10.166601     4Ap    -0.781107     2App   -0.683855
       5Ap    -0.683407     6Ap    -0.511494     3App   -0.431167
       7Ap    -0.430622     8Ap    -0.421687     4App   -0.376570
       9Ap    -0.376262     5App   -0.362276     6App   -0.333400
      10Ap    -0.332850

    Beta Virtual:

      11Ap    -0.025977    12Ap     0.076752     7App    0.134419
      13Ap     0.134920     8App    0.143985    14Ap     0.144248
      15Ap     0.163104     9App    0.181720    16Ap     0.182186
      10App    0.214584    17Ap     0.219017    11App    0.282120
      18Ap     0.282483    12App    0.400344    19Ap     0.400562
      20Ap     0.419577    13App    0.426486    21Ap     0.426788
      22Ap     0.468390    14App    0.497020    23Ap     0.497830
      15App    0.513644    24Ap     0.556137    16App    0.583790
      25Ap     0.584215    17App    0.597166    26Ap     0.597221
      27Ap     0.609358    28Ap     0.627189    18App    0.631233
      29Ap     0.638761    19App    0.639232    20App    0.666396
      30Ap     0.666878    21App    0.685684    31Ap     0.686276
      32Ap     0.757181    22App    0.828921    33Ap     0.830588
      23App    0.854775    24App    0.922051    34Ap     0.922550
      25App    0.945291    35Ap     0.952618    36Ap     0.965771
      26App    0.966337    37Ap     1.008595    27App    1.130592
      38Ap     1.132894    39Ap     1.154725    28App    1.167545
      40Ap     1.168568    41Ap     1.231876    29App    1.279046
      42Ap     1.280097    43Ap     1.285567    44Ap     1.328510
      30App    1.328700    45Ap     1.364532    31App    1.369896
      46Ap     1.371637    32App    1.392910    33App    1.405779
      47Ap     1.407293    34App    1.420721    48Ap     1.421735
      35App    1.427456    36App    1.491592    49Ap     1.508149
      37App    1.546464    50Ap     1.547252    38App    1.580370
      51Ap     1.583824    52Ap     1.672430    39App    1.742693
      53Ap     1.744752    54Ap     1.777672    40App    1.832281
      55Ap     1.833346    41App    1.970961    42App    2.022784
      56Ap     2.025737    57Ap     2.038582    43App    2.055867
      58Ap     2.060787    44App    2.745519    59Ap     2.746147
      45App    2.811337    60Ap     2.815819    61Ap     2.901963
      46App    2.902089    62Ap     2.924537    47App    2.931583
      63Ap     2.931712    48App    2.959431    49App    2.967386
      64Ap     2.969107    65Ap     3.041126    50App    3.078963
      66Ap     3.081303    51App    3.085375    52App    3.184624
      67Ap     3.185880    68Ap     3.187899    69Ap     3.289558
      53App    3.290846    54App    3.330521    70Ap     3.332432
      71Ap     3.384152    55App    3.493291    72Ap     3.494301
      56App    3.512699    73Ap     3.528972    57App    3.576272
      58App    3.580826    74Ap     3.582704    59App    3.669998
      75Ap     3.670271    76Ap     3.691064    77Ap     3.724647
      60App    3.725475    78Ap     3.779932    61App    3.781655
      79Ap     3.817167    62App    3.919708    80Ap     3.922529
      81Ap     4.042887    63App    4.114288    82Ap     4.117007
      64App    4.150465    83Ap     4.153617    84Ap     4.184484
      65App    4.205776    85Ap     4.209130    86Ap     4.209541
      66App    4.211805    87Ap     4.321194    67App    4.321280
      68App    4.359961    69App    4.429880    88Ap     4.430214
      70App    4.444455    71App    4.521524    89Ap     4.522926
      72App    4.586275    90Ap     4.588569    91Ap     4.624050
      92Ap     4.717774    73App    4.778393    93Ap     4.781175
      74App    4.837502    94Ap     4.966907    75App    5.004930
      95Ap     5.006935    96Ap     5.228474    97Ap     5.243157
      76App    5.243479    77App    5.356703    98Ap     5.358146
      78App    5.478446

    Final Occupation by Irrep:
             Ap   App
    DOCC [    10,    6 ]
    SOCC [     1,    0 ]

  @DF-UKS Final Energy:  -157.81308446863284

   => Energetics <=

    Nuclear Repulsion Energy =            125.3575231612131233
    One-Electron Energy =                -458.6785593148800331
    Two-Electron Energy =                 195.8110774306766757
    DFT Exchange-Correlation Energy =     -20.3031257456426104
    Empirical Dispersion Energy =           0.0000000000000000
    VV10 Nonlocal Energy =                  0.0000000000000000
    Total Energy =                       -157.8130844686328373

  UHF NO Occupations:
  HONO-2 :    9 Ap 1.9995983
  HONO-1 :   10 Ap 1.9989811
  HONO-0 :   11 Ap 1.0000000
  LUNO+0 :   12 Ap 0.0010189
  LUNO+1 :   13 Ap 0.0004017
  LUNO+2 :   14 Ap 0.0001975
  LUNO+3 :    7App 0.0001969

Computation Completed

Properties will be evaluated at   0.000000,   0.000000,   0.000000 [a0]

Properties computed using the SCF density matrix

  Nuclear Dipole Moment: [e a0]
     X:     0.8276      Y:     0.0102      Z:     0.0000

  Electronic Dipole Moment: [e a0]
     X:    -0.7503      Y:    -0.0110      Z:     0.0000

  Dipole Moment: [e a0]
     X:     0.0773      Y:    -0.0007      Z:     0.0000     Total:     0.0773

  Dipole Moment: [D]
     X:     0.1964      Y:    -0.0019      Z:     0.0000     Total:     0.1964

*** tstop() called on n065 at Fri Nov  5 15:01:51 2021
Module time:
	user time   =     539.71 seconds =       9.00 minutes
	system time =      11.64 seconds =       0.19 minutes
	total time  =        139 seconds =       2.32 minutes
Total time:
	user time   =     539.71 seconds =       9.00 minutes
	system time =      11.64 seconds =       0.19 minutes
	total time  =        139 seconds =       2.32 minutes
Grab this energy -157.81308446863284
    Psi4 stopped on: Friday, 05 November 2021 03:01PM
    Psi4 wall time for execution: 0:02:18.68

*** Psi4 exiting successfully. Buy a developer a beer!
