                               Psi4 1.4a2.dev629

  ==> Input File <==

--------------------------------------------------------------------------
import os
memory 14 GB

molecule {
 C   -0.3236405713   -0.0000025917   -0.0019989308
 C    0.0611451713   -1.4027345011   -2.4307514382
 C    0.0611582757    2.8072041138   -0.0011545462
 C    0.0614127387   -1.4044661578    2.4314416332
 H    2.0874235395   -1.6436343628   -2.8507366554
 H   -0.7658165040   -0.3933143267   -4.0329414968
 H   -0.7646078178   -3.2937948064   -2.3518597850
 H    2.0870869846    3.2946999782   -0.0040940425
 H   -0.7644350292    3.6806313254    1.6776740263
 H   -0.7671836413    3.6918802643   -1.6760784443
 H    2.0870294454   -1.6511525586    2.8555703537
 H   -0.7668602197   -3.2968720013    2.3561309407
 H   -0.7653202487   -0.3884686889    4.0287983853
units bohr
0 2
}

basis {

assign 6-31g_2dfp_

[ 6-31g_2dfp_ ]

spherical

!----------------------------------------------------------------------
! Basis Set Exchange
! Version v0.8.13
! https://www.basissetexchange.org
!----------------------------------------------------------------------
!   Basis set: 6-31G(2df,p)
! Description: 6-31G(2df,p)
!        Role: orbital
!     Version: 0  (Data from the original Basis Set Exchange)
!----------------------------------------------------------------------

****
H     0
S    3   1.00
     18.7311370              0.03349460
      2.8253937              0.23472695
      0.6401217              0.81375733
S    1   1.00
      0.1612778              1.00000000
P    1   1.00
      1.5000000              1.0000000
P    1   1.00
      0.3750000              1.0000000
****
B     0
S    6   1.00
   2068.8823000              0.0018663
    310.6495700              0.0142515
     70.6830330              0.0695516
     19.8610800              0.2325729
      6.2993048              0.4670787
      2.1270270              0.3634314
SP   3   1.00
      4.7279710             -0.1303938              0.0745976
      1.1903377             -0.1307889              0.3078467
      0.3594117              1.1309444              0.7434568
SP   1   1.00
      0.1267512              1.0000000              1.0000000
D    1   1.00
      0.8020000              1.0000000
D    1   1.00
      0.2005000              1.0000000
F    1   1.00
      0.5000000              1.0000000
****
C     0
S    6   1.00
   3047.5249000              0.0018347
    457.3695100              0.0140373
    103.9486900              0.0688426
     29.2101550              0.2321844
      9.2866630              0.4679413
      3.1639270              0.3623120
SP   3   1.00
      7.8682724             -0.1193324              0.0689991
      1.8812885             -0.1608542              0.3164240
      0.5442493              1.1434564              0.7443083
SP   1   1.00
      0.1687144              1.0000000              1.0000000
D    1   1.00
      1.2520000              1.0000000
D    1   1.00
      0.3130000              1.0000000
F    1   1.00
      0.8000000              1.0000000
****
N     0
S    6   1.00
   4173.5110000              0.0018348
    627.4579000              0.0139950
    142.9021000              0.0685870
     40.2343300              0.2322410
     12.8202100              0.4690700
      4.3904370              0.3604550
SP   3   1.00
     11.6263580             -0.1149610              0.0675800
      2.7162800             -0.1691180              0.3239070
      0.7722180              1.1458520              0.7408950
SP   1   1.00
      0.2120313              1.0000000              1.0000000
D    1   1.00
      1.8260000              1.0000000
D    1   1.00
      0.4565000              1.0000000
F    1   1.00
      1.0000000              1.0000000
****
O     0
S    6   1.00
   5484.6717000              0.0018311
    825.2349500              0.0139501
    188.0469600              0.0684451
     52.9645000              0.2327143
     16.8975700              0.4701930
      5.7996353              0.3585209
SP   3   1.00
     15.5396160             -0.1107775              0.0708743
      3.5999336             -0.1480263              0.3397528
      1.0137618              1.1307670              0.7271586
SP   1   1.00
      0.2700058              1.0000000              1.0000000
D    1   1.00
      2.5840000              1.0000000
D    1   1.00
      0.6460000              1.0000000
F    1   1.00
      1.4000000              1.0000000
****
F     0
S    6   1.00
   7001.7130900              0.0018196169
   1051.3660900              0.0139160796
    239.2856900              0.0684053245
     67.3974453              0.233185760
     21.5199573              0.471267439
      7.40310130             0.356618546
SP   3   1.00
     20.8479528             -0.108506975            0.0716287243
      4.80830834            -0.146451658            0.3459121030
      1.34406986             1.128688580            0.7224699570
SP   1   1.00
      0.358151393            1.0000000              1.0000000
D    1   1.00
      3.5000000              1.0000000
D    1   1.00
      0.8750000              1.0000000
F    1   1.00
      1.8500000              1.0000000
****
Al     0
S    6   1.00
  13983.1000000              0.00194267
   2098.7500000              0.0148599
    477.7050000              0.0728494
    134.3600000              0.2468300
     42.8709000              0.4872580
     14.5189000              0.3234960
SP   6   1.00
    239.6680000             -0.00292619             0.00460285
     57.4419000             -0.0374080              0.0331990
     18.2859000             -0.1144870              0.1362820
      6.5991400              0.1156350              0.3304760
      2.4904900              0.6125950              0.4491460
      0.9445400              0.3937990              0.2657040
SP   3   1.00
      1.2779000             -0.2276060             -0.0175130
      0.3975900              0.00144583             0.2445330
      0.1600950              1.0927900              0.8049340
SP   1   1.00
      0.0556577              1.0000000              1.0000000
D    1   1.00
      0.6500000              1.0000000
D    1   1.00
      0.1625000              1.0000000
F    1   1.00
      0.2500000              1.0000000
****
Si     0
S    6   1.00
  16115.9000000              0.00195948
   2425.5800000              0.01492880
    553.8670000              0.07284780
    156.3400000              0.24613000
     50.0683000              0.48591400
     17.0178000              0.32500200
SP   6   1.00
    292.7180000             -0.00278094             0.00443826
     69.8731000             -0.03571460             0.03266790
     22.3363000             -0.11498500             0.13472100
      8.1503900              0.09356340             0.32867800
      3.1345800              0.60301700             0.44964000
      1.2254300              0.41895900             0.26137200
SP   3   1.00
      1.7273800             -0.24463000            -0.01779510
      0.5729220              0.00431572             0.25353900
      0.2221920              1.09818000             0.80066900
SP   1   1.00
      0.0778369              1.00000000             1.00000000
D    1   1.00
      0.9000000              1.0000000
D    1   1.00
      0.2250000              1.0000000
F    1   1.00
      0.3200000              1.0000000
****
P     0
S    6   1.00
  19413.3000000              0.0018516
   2909.4200000              0.0142062
    661.3640000              0.0699995
    185.7590000              0.2400790
     59.1943000              0.4847620
     20.0310000              0.3352000
SP   6   1.00
    339.4780000             -0.00278217             0.00456462
     81.0101000             -0.0360499              0.03369360
     25.8780000             -0.1166310              0.13975500
      9.4522100              0.0968328              0.33936200
      3.6656600              0.6144180              0.45092100
      1.4674600              0.4037980              0.23858600
SP   3   1.00
      2.1562300             -0.2529230             -0.01776530
      0.7489970              0.0328517              0.27405800
      0.2831450              1.0812500              0.78542100
SP   1   1.00
      0.0998317              1.0000000              1.00000000
D    1   1.00
      1.1000000              1.0000000
D    1   1.00
      0.2750000              1.0000000
F    1   1.00
      0.4500000              1.0000000
****
S     0
S    6   1.00
  21917.1000000              0.0018690
   3301.4900000              0.0142300
    754.1460000              0.0696960
    212.7110000              0.2384870
     67.9896000              0.4833070
     23.0515000              0.3380740
SP   6   1.00
    423.7350000             -0.0023767              0.0040610
    100.7100000             -0.0316930              0.0306810
     32.1599000             -0.1133170              0.1304520
     11.8079000              0.0560900              0.3272050
      4.6311000              0.5922550              0.4528510
      1.8702500              0.4550060              0.2560420
SP   3   1.00
      2.6158400             -0.2503740             -0.0145110
      0.9221670              0.0669570              0.3102630
      0.3412870              1.0545100              0.7544830
SP   1   1.00
      0.1171670              1.0000000              1.0000000
D    1   1.00
      1.3000000              1.0000000
D    1   1.00
      0.3250000              1.0000000
F    1   1.00
      0.5500000              1.0000000
****
Cl     0
S    6   1.00
  25180.1000000              0.0018330
   3780.3500000              0.0140340
    860.4740000              0.0690970
    242.1450000              0.2374520
     77.3349000              0.4830340
     26.2470000              0.3398560
SP   6   1.00
    491.7650000             -0.0022974              0.0039894
    116.9840000             -0.0307140              0.0303180
     37.4153000             -0.1125280              0.1298800
     13.7834000              0.0450160              0.3279510
      5.4521500              0.5893530              0.4535270
      2.2258800              0.4652060              0.2521540
SP   3   1.00
      3.1864900             -0.2518300             -0.0142990
      1.1442700              0.0615890              0.3235720
      0.4203770              1.0601800              0.7435070
SP   1   1.00
      0.1426570              1.0000000              1.0000000
D    1   1.00
      1.5000000              1.0000000
D    1   1.00
      0.3750000              1.0000000
F    1   1.00
      0.7000000              1.0000000
****
}

set {
reference uhf
freeze_core true
e_convergence 10
d_convergence 10
dft_spherical_points 1202
dft_radial_points 99
}

e = energy('b3lyp')

print_out('Grab this energy {0}'.format(e))
--------------------------------------------------------------------------

    Molecular point group: c1

    Geometry (in Bohr), charge = 0, multiplicity = 2:

       Center              X                  Y                   Z               Mass
    ------------   -----------------  -----------------  -----------------  -----------------
         C           -0.323662836545    -0.000002328597    -0.001524484945    12.000000000000
         C            0.061122906055    -1.402734237997    -2.430276992345    12.000000000000
         C            0.061136010455     2.807204376903    -0.000680100345    12.000000000000
         C            0.061390473455    -1.404465894697     2.431916079055    12.000000000000
         H            2.087401274255    -1.643634099697    -2.850262209545     1.007825032230
         H           -0.765838769245    -0.393314063597    -4.032467050945     1.007825032230
         H           -0.764630083045    -3.293794543297    -2.351385339145     1.007825032230
         H            2.087064719355     3.294700241303    -0.003619596645     1.007825032230
         H           -0.764457294445     3.680631588503     1.678148472155     1.007825032230
         H           -0.767205906545     3.691880527403    -1.675603998445     1.007825032230
         H            2.087007180155    -1.651152295497     2.856044799555     1.007825032230
         H           -0.766882484945    -3.296871738197     2.356605386555     1.007825032230
         H           -0.765342513945    -0.388468425797     4.029272831155     1.007825032230

  Charge       = 0
  Multiplicity = 2
  Basis Set: ANONYMOUSCEBE1794
    Blend: 6-31G_2DFP_
  Basis Set: (ANONYMOUSCEBE1794 AUX)
    Blend: DEF2-UNIVERSAL-JKFIT

    Orbital Energies [Eh]
    ---------------------

    Alpha Occupied:

       1A    -10.181113     2A    -10.167535     3A    -10.167377
       4A    -10.167216     5A     -0.796722     6A     -0.686008
       7A     -0.685766     8A     -0.530778     9A     -0.440536
      10A     -0.434261    11A     -0.434120    12A     -0.382560
      13A     -0.382489    14A     -0.363729    15A     -0.337875
      16A     -0.337745    17A     -0.169285

    Alpha Virtual:

      18A      0.076102    19A      0.134083    20A      0.134147
      21A      0.142362    22A      0.142487    23A      0.154818
      24A      0.178564    25A      0.178642    26A      0.202438
      27A      0.214459    28A      0.275185    29A      0.275721
      30A      0.399210    31A      0.399280    32A      0.403555
      33A      0.424330    34A      0.424437    35A      0.456030
      36A      0.495104    37A      0.495224    38A      0.511826
      39A      0.513570    40A      0.577826    41A      0.578413
      42A      0.590795    43A      0.591381    44A      0.602127
      45A      0.624351    46A      0.631423    47A      0.635425
      48A      0.635486    49A      0.662899    50A      0.662963
      51A      0.683384    52A      0.683439    53A      0.735194
      54A      0.825346    55A      0.825775    56A      0.852910
      57A      0.914156    58A      0.914433    59A      0.942799
      60A      0.945181    61A      0.959650    62A      0.961029
      63A      1.002344    64A      1.126994    65A      1.127427
      66A      1.141880    67A      1.162393    68A      1.162604
      69A      1.222436    70A      1.273425    71A      1.273741
      72A      1.278831    73A      1.324017    74A      1.324025
      75A      1.355824    76A      1.364060    77A      1.364400
      78A      1.390940    79A      1.404011    80A      1.404633
      81A      1.416366    82A      1.417149    83A      1.426481
      84A      1.490299    85A      1.498507    86A      1.541814
      87A      1.542366    88A      1.573274    89A      1.573284
      90A      1.669903    91A      1.738408    92A      1.739162
      93A      1.766801    94A      1.829707    95A      1.830692
      96A      1.970358    97A      2.015878    98A      2.017924
      99A      2.018077   100A      2.047392   101A      2.048982
     102A      2.737602   103A      2.738157   104A      2.789767
     105A      2.808694   106A      2.888503   107A      2.889036
     108A      2.893468   109A      2.929309   110A      2.929349
     111A      2.958757   112A      2.964524   113A      2.964828
     114A      3.034038   115A      3.070210   116A      3.070481
     117A      3.082781   118A      3.167736   119A      3.168138
     120A      3.178730   121A      3.284750   122A      3.284826
     123A      3.326420   124A      3.327061   125A      3.376976
     126A      3.488189   127A      3.488504   128A      3.513240
     129A      3.522959   130A      3.568089   131A      3.568732
     132A      3.573165   133A      3.666220   134A      3.666595
     135A      3.677710   136A      3.692270   137A      3.693170
     138A      3.771102   139A      3.773576   140A      3.788450
     141A      3.909873   142A      3.910414   143A      4.032615
     144A      4.107167   145A      4.109765   146A      4.146549
     147A      4.148270   148A      4.172070   149A      4.200689
     150A      4.200780   151A      4.201244   152A      4.209246
     153A      4.313619   154A      4.315189   155A      4.356537
     156A      4.422140   157A      4.422668   158A      4.441034
     159A      4.513439   160A      4.514271   161A      4.574382
     162A      4.575032   163A      4.610238   164A      4.704688
     165A      4.767091   166A      4.769239   167A      4.832993
     168A      4.959843   169A      5.000987   170A      5.001694
     171A      5.227023   172A      5.244940   173A      5.245864
     174A      5.352195   175A      5.353613   176A      5.473656

    Beta Occupied:

       1A    -10.168293     2A    -10.168136     3A    -10.167980
       4A    -10.167259     5A     -0.780070     6A     -0.683824
       7A     -0.683597     8A     -0.511648     9A     -0.430645
      10A     -0.430523    11A     -0.421322    12A     -0.376678
      13A     -0.376616    14A     -0.362724    15A     -0.332990
      16A     -0.332867

    Beta Virtual:

      17A     -0.025774    18A      0.077100    19A      0.134987
      20A      0.135036    21A      0.144202    22A      0.144330
      23A      0.163234    24A      0.182227    25A      0.182269
      26A      0.214682    27A      0.218000    28A      0.281613
      29A      0.282129    30A      0.400351    31A      0.400419
      32A      0.420089    33A      0.427150    34A      0.427260
      35A      0.467584    36A      0.497353    37A      0.497468
      38A      0.513546    39A      0.555985    40A      0.583370
      41A      0.583958    42A      0.597046    43A      0.597608
      44A      0.609514    45A      0.627669    46A      0.631569
      47A      0.638619    48A      0.638718    49A      0.666502
      50A      0.666569    51A      0.685921    52A      0.686017
      53A      0.757895    54A      0.830476    55A      0.830948
      56A      0.854227    57A      0.922147    58A      0.922357
      59A      0.944634    60A      0.954194    61A      0.964988
      62A      0.966258    63A      1.007663    64A      1.130950
      65A      1.131531    66A      1.155247    67A      1.167543
      68A      1.167592    69A      1.231268    70A      1.278985
      71A      1.279298    72A      1.284650    73A      1.329000
      74A      1.329026    75A      1.365212    76A      1.369337
      77A      1.369622    78A      1.391990    79A      1.407487
      80A      1.408153    81A      1.421363    82A      1.422139
      83A      1.426717    84A      1.491348    85A      1.508888
      86A      1.546276    87A      1.546833    88A      1.581081
      89A      1.581085    90A      1.674742    91A      1.744159
      92A      1.744929    93A      1.777558    94A      1.833547
      95A      1.834528    96A      1.971214    97A      2.024264
      98A      2.024374    99A      2.037336   100A      2.054046
     101A      2.055696   102A      2.746050   103A      2.746573
     104A      2.809102   105A      2.814920   106A      2.901485
     107A      2.901899   108A      2.923076   109A      2.931644
     110A      2.931658   111A      2.959807   112A      2.969029
     113A      2.969298   114A      3.041885   115A      3.080043
     116A      3.080294   117A      3.084580   118A      3.183564
     119A      3.184032   120A      3.186459   121A      3.289349
     122A      3.289473   123A      3.330318   124A      3.330922
     125A      3.384813   126A      3.490950   127A      3.491235
     128A      3.511617   129A      3.526062   130A      3.572800
     131A      3.581473   132A      3.582183   133A      3.671213
     134A      3.671345   135A      3.691017   136A      3.724400
     137A      3.724631   138A      3.775632   139A      3.778016
     140A      3.817129   141A      3.919700   142A      3.920207
     143A      4.043571   144A      4.114365   145A      4.116746
     146A      4.153555   147A      4.155320   148A      4.186010
     149A      4.206618   150A      4.206746   151A      4.209131
     152A      4.213648   153A      4.321000   154A      4.322619
     155A      4.359926   156A      4.430296   157A      4.430733
     158A      4.443903   159A      4.521113   160A      4.521923
     161A      4.584963   162A      4.585610   163A      4.617450
     164A      4.714951   165A      4.774084   166A      4.776147
     167A      4.835913   168A      4.964615   169A      5.004978
     170A      5.005704   171A      5.232700   172A      5.246704
     173A      5.247644   174A      5.358599   175A      5.360061
     176A      5.475955

    Final Occupation by Irrep:
              A
    DOCC [    16 ]
    SOCC [     1 ]

  @DF-UKS Final Energy:  -157.81306928301657

   => Energetics <=

    Nuclear Repulsion Energy =            125.2136715557584665
    One-Electron Energy =                -458.3926108329400222
    Two-Electron Energy =                 195.6692210150581559
    DFT Exchange-Correlation Energy =     -20.3033510208931922
    Empirical Dispersion Energy =           0.0000000000000000
    VV10 Nonlocal Energy =                  0.0000000000000000
    Total Energy =                       -157.8130692830165742

  UHF NO Occupations:
  HONO-2 :   15  A 1.9996026
  HONO-1 :   16  A 1.9989734
  HONO-0 :   17  A 1.0000000
  LUNO+0 :   18  A 0.0010266
  LUNO+1 :   19  A 0.0003974
  LUNO+2 :   20  A 0.0002001
  LUNO+3 :   21  A 0.0001994

Computation Completed

Properties will be evaluated at   0.000000,   0.000000,   0.000000 [a0]

Properties computed using the SCF density matrix

  Nuclear Dipole Moment: [e a0]
     X:     0.8270      Y:    -0.0000      Z:     0.0033

  Electronic Dipole Moment: [e a0]
     X:    -0.7483      Y:     0.0000      Z:    -0.0034

  Dipole Moment: [e a0]
     X:     0.0788      Y:    -0.0000      Z:    -0.0000     Total:     0.0788

  Dipole Moment: [D]
     X:     0.2002      Y:    -0.0000      Z:    -0.0001     Total:     0.2002

*** tstop() called on n032 at Fri Nov  5 15:38:00 2021
Module time:
	user time   =     631.74 seconds =      10.53 minutes
	system time =      12.00 seconds =       0.20 minutes
	total time  =        162 seconds =       2.70 minutes
Total time:
	user time   =     631.74 seconds =      10.53 minutes
	system time =      12.00 seconds =       0.20 minutes
	total time  =        162 seconds =       2.70 minutes
Grab this energy -157.81306928301657
    Psi4 stopped on: Friday, 05 November 2021 03:38PM
    Psi4 wall time for execution: 0:02:41.88

*** Psi4 exiting successfully. Buy a developer a beer!
