                               Psi4 1.4a2.dev629

  ==> Input File <==

--------------------------------------------------------------------------
import os
memory 14 GB

molecule {
 C   -0.3233410313   -0.0000015300    0.0043233871
 C    0.0619157607   -1.4019406030   -2.4253156403
 C    0.0610193120    2.8017598572    0.0029090808
 C    0.0603639978   -1.3998119205    2.4274467877
 H    2.0866597880   -1.6436631462   -2.8483871612
 H   -0.7651454871   -0.3887299134   -4.0265401505
 H   -0.7662914126   -3.2913957249   -2.3497978777
 H    2.0867940498    3.2880981161   -0.0016990852
 H   -0.7666278854    3.6794826834    1.6754877621
 H   -0.7646598517    3.6810182013   -1.6775170159
 H    2.0872133817   -1.6445299285    2.8464903562
 H   -0.7648432222   -3.2925991603    2.3481736650
 H   -0.7656652765   -0.3877112448    4.0244258918
units bohr
0 2
}

basis {

assign 6-31g_2dfp_

[ 6-31g_2dfp_ ]

spherical

!----------------------------------------------------------------------
! Basis Set Exchange
! Version v0.8.13
! https://www.basissetexchange.org
!----------------------------------------------------------------------
!   Basis set: 6-31G(2df,p)
! Description: 6-31G(2df,p)
!        Role: orbital
!     Version: 0  (Data from the original Basis Set Exchange)
!----------------------------------------------------------------------

****
H     0
S    3   1.00
     18.7311370              0.03349460
      2.8253937              0.23472695
      0.6401217              0.81375733
S    1   1.00
      0.1612778              1.00000000
P    1   1.00
      1.5000000              1.0000000
P    1   1.00
      0.3750000              1.0000000
****
B     0
S    6   1.00
   2068.8823000              0.0018663
    310.6495700              0.0142515
     70.6830330              0.0695516
     19.8610800              0.2325729
      6.2993048              0.4670787
      2.1270270              0.3634314
SP   3   1.00
      4.7279710             -0.1303938              0.0745976
      1.1903377             -0.1307889              0.3078467
      0.3594117              1.1309444              0.7434568
SP   1   1.00
      0.1267512              1.0000000              1.0000000
D    1   1.00
      0.8020000              1.0000000
D    1   1.00
      0.2005000              1.0000000
F    1   1.00
      0.5000000              1.0000000
****
C     0
S    6   1.00
   3047.5249000              0.0018347
    457.3695100              0.0140373
    103.9486900              0.0688426
     29.2101550              0.2321844
      9.2866630              0.4679413
      3.1639270              0.3623120
SP   3   1.00
      7.8682724             -0.1193324              0.0689991
      1.8812885             -0.1608542              0.3164240
      0.5442493              1.1434564              0.7443083
SP   1   1.00
      0.1687144              1.0000000              1.0000000
D    1   1.00
      1.2520000              1.0000000
D    1   1.00
      0.3130000              1.0000000
F    1   1.00
      0.8000000              1.0000000
****
N     0
S    6   1.00
   4173.5110000              0.0018348
    627.4579000              0.0139950
    142.9021000              0.0685870
     40.2343300              0.2322410
     12.8202100              0.4690700
      4.3904370              0.3604550
SP   3   1.00
     11.6263580             -0.1149610              0.0675800
      2.7162800             -0.1691180              0.3239070
      0.7722180              1.1458520              0.7408950
SP   1   1.00
      0.2120313              1.0000000              1.0000000
D    1   1.00
      1.8260000              1.0000000
D    1   1.00
      0.4565000              1.0000000
F    1   1.00
      1.0000000              1.0000000
****
O     0
S    6   1.00
   5484.6717000              0.0018311
    825.2349500              0.0139501
    188.0469600              0.0684451
     52.9645000              0.2327143
     16.8975700              0.4701930
      5.7996353              0.3585209
SP   3   1.00
     15.5396160             -0.1107775              0.0708743
      3.5999336             -0.1480263              0.3397528
      1.0137618              1.1307670              0.7271586
SP   1   1.00
      0.2700058              1.0000000              1.0000000
D    1   1.00
      2.5840000              1.0000000
D    1   1.00
      0.6460000              1.0000000
F    1   1.00
      1.4000000              1.0000000
****
F     0
S    6   1.00
   7001.7130900              0.0018196169
   1051.3660900              0.0139160796
    239.2856900              0.0684053245
     67.3974453              0.233185760
     21.5199573              0.471267439
      7.40310130             0.356618546
SP   3   1.00
     20.8479528             -0.108506975            0.0716287243
      4.80830834            -0.146451658            0.3459121030
      1.34406986             1.128688580            0.7224699570
SP   1   1.00
      0.358151393            1.0000000              1.0000000
D    1   1.00
      3.5000000              1.0000000
D    1   1.00
      0.8750000              1.0000000
F    1   1.00
      1.8500000              1.0000000
****
Al     0
S    6   1.00
  13983.1000000              0.00194267
   2098.7500000              0.0148599
    477.7050000              0.0728494
    134.3600000              0.2468300
     42.8709000              0.4872580
     14.5189000              0.3234960
SP   6   1.00
    239.6680000             -0.00292619             0.00460285
     57.4419000             -0.0374080              0.0331990
     18.2859000             -0.1144870              0.1362820
      6.5991400              0.1156350              0.3304760
      2.4904900              0.6125950              0.4491460
      0.9445400              0.3937990              0.2657040
SP   3   1.00
      1.2779000             -0.2276060             -0.0175130
      0.3975900              0.00144583             0.2445330
      0.1600950              1.0927900              0.8049340
SP   1   1.00
      0.0556577              1.0000000              1.0000000
D    1   1.00
      0.6500000              1.0000000
D    1   1.00
      0.1625000              1.0000000
F    1   1.00
      0.2500000              1.0000000
****
Si     0
S    6   1.00
  16115.9000000              0.00195948
   2425.5800000              0.01492880
    553.8670000              0.07284780
    156.3400000              0.24613000
     50.0683000              0.48591400
     17.0178000              0.32500200
SP   6   1.00
    292.7180000             -0.00278094             0.00443826
     69.8731000             -0.03571460             0.03266790
     22.3363000             -0.11498500             0.13472100
      8.1503900              0.09356340             0.32867800
      3.1345800              0.60301700             0.44964000
      1.2254300              0.41895900             0.26137200
SP   3   1.00
      1.7273800             -0.24463000            -0.01779510
      0.5729220              0.00431572             0.25353900
      0.2221920              1.09818000             0.80066900
SP   1   1.00
      0.0778369              1.00000000             1.00000000
D    1   1.00
      0.9000000              1.0000000
D    1   1.00
      0.2250000              1.0000000
F    1   1.00
      0.3200000              1.0000000
****
P     0
S    6   1.00
  19413.3000000              0.0018516
   2909.4200000              0.0142062
    661.3640000              0.0699995
    185.7590000              0.2400790
     59.1943000              0.4847620
     20.0310000              0.3352000
SP   6   1.00
    339.4780000             -0.00278217             0.00456462
     81.0101000             -0.0360499              0.03369360
     25.8780000             -0.1166310              0.13975500
      9.4522100              0.0968328              0.33936200
      3.6656600              0.6144180              0.45092100
      1.4674600              0.4037980              0.23858600
SP   3   1.00
      2.1562300             -0.2529230             -0.01776530
      0.7489970              0.0328517              0.27405800
      0.2831450              1.0812500              0.78542100
SP   1   1.00
      0.0998317              1.0000000              1.00000000
D    1   1.00
      1.1000000              1.0000000
D    1   1.00
      0.2750000              1.0000000
F    1   1.00
      0.4500000              1.0000000
****
S     0
S    6   1.00
  21917.1000000              0.0018690
   3301.4900000              0.0142300
    754.1460000              0.0696960
    212.7110000              0.2384870
     67.9896000              0.4833070
     23.0515000              0.3380740
SP   6   1.00
    423.7350000             -0.0023767              0.0040610
    100.7100000             -0.0316930              0.0306810
     32.1599000             -0.1133170              0.1304520
     11.8079000              0.0560900              0.3272050
      4.6311000              0.5922550              0.4528510
      1.8702500              0.4550060              0.2560420
SP   3   1.00
      2.6158400             -0.2503740             -0.0145110
      0.9221670              0.0669570              0.3102630
      0.3412870              1.0545100              0.7544830
SP   1   1.00
      0.1171670              1.0000000              1.0000000
D    1   1.00
      1.3000000              1.0000000
D    1   1.00
      0.3250000              1.0000000
F    1   1.00
      0.5500000              1.0000000
****
Cl     0
S    6   1.00
  25180.1000000              0.0018330
   3780.3500000              0.0140340
    860.4740000              0.0690970
    242.1450000              0.2374520
     77.3349000              0.4830340
     26.2470000              0.3398560
SP   6   1.00
    491.7650000             -0.0022974              0.0039894
    116.9840000             -0.0307140              0.0303180
     37.4153000             -0.1125280              0.1298800
     13.7834000              0.0450160              0.3279510
      5.4521500              0.5893530              0.4535270
      2.2258800              0.4652060              0.2521540
SP   3   1.00
      3.1864900             -0.2518300             -0.0142990
      1.1442700              0.0615890              0.3235720
      0.4203770              1.0601800              0.7435070
SP   1   1.00
      0.1426570              1.0000000              1.0000000
D    1   1.00
      1.5000000              1.0000000
D    1   1.00
      0.3750000              1.0000000
F    1   1.00
      0.7000000              1.0000000
****
}

set {
reference uhf
freeze_core true
e_convergence 10
d_convergence 10
dft_spherical_points 1202
dft_radial_points 99
}

e = energy('b3lyp')

print_out('Grab this energy {0}'.format(e))
--------------------------------------------------------------------------

    Molecular point group: c1

    Geometry (in Bohr), charge = 0, multiplicity = 2:

       Center              X                  Y                   Z               Mass
    ------------   -----------------  -----------------  -----------------  -----------------
         C           -0.323340650715    -0.000002218473     0.002519887352    12.000000000000
         C            0.061916141285    -1.401941291473    -2.427119140048    12.000000000000
         C            0.061019692585     2.801759168727     0.001105581052    12.000000000000
         C            0.060364378385    -1.399812608973     2.425643287952    12.000000000000
         H            2.086660168585    -1.643663834673    -2.850190660948     1.007825032230
         H           -0.765145106515    -0.388730601873    -4.028343650248     1.007825032230
         H           -0.766291032015    -3.291396413373    -2.351601377448     1.007825032230
         H            2.086794430385     3.288097427627    -0.003502584948     1.007825032230
         H           -0.766627504815     3.679481994927     1.673684262352     1.007825032230
         H           -0.764659471115     3.681017512827    -1.679320515648     1.007825032230
         H            2.087213762285    -1.644530616973     2.844686856452     1.007825032230
         H           -0.764842841615    -3.292599848773     2.346370165252     1.007825032230
         H           -0.765664895915    -0.387711933273     4.022622392052     1.007825032230

  Charge       = 0
  Multiplicity = 2
  Basis Set: ANONYMOUS91F2F8FD
    Blend: 6-31G_2DFP_
  Basis Set: (ANONYMOUS91F2F8FD AUX)
    Blend: DEF2-UNIVERSAL-JKFIT

    Orbital Energies [Eh]
    ---------------------

    Alpha Occupied:

       1A    -10.180341     2A    -10.167075     3A    -10.167017
       4A    -10.166952     5A     -0.797768     6A     -0.686296
       7A     -0.686077     8A     -0.530775     9A     -0.441136
      10A     -0.434872    11A     -0.434461    12A     -0.382682
      13A     -0.382525    14A     -0.363601    15A     -0.338225
      16A     -0.337772    17A     -0.168960

    Alpha Virtual:

      18A      0.076072    19A      0.134104    20A      0.134208
      21A      0.142514    22A      0.142737    23A      0.154880
      24A      0.178722    25A      0.178835    26A      0.203545
      27A      0.214804    28A      0.275822    29A      0.276148
      30A      0.399212    31A      0.399244    32A      0.403344
      33A      0.424092    34A      0.424102    35A      0.456593
      36A      0.495306    37A      0.495473    38A      0.512161
      39A      0.513978    40A      0.578660    41A      0.578965
      42A      0.591621    43A      0.591665    44A      0.602570
      45A      0.624739    46A      0.631763    47A      0.636116
      48A      0.636416    49A      0.663256    50A      0.663568
      51A      0.683816    52A      0.683893    53A      0.734994
      54A      0.825295    55A      0.825518    56A      0.853916
      57A      0.915013    58A      0.915032    59A      0.944127
      60A      0.944619    61A      0.961179    62A      0.961403
      63A      1.003455    64A      1.127832    65A      1.128358
      66A      1.142235    67A      1.162865    68A      1.163680
      69A      1.223331    70A      1.273839    71A      1.275132
      72A      1.279362    73A      1.324316    74A      1.324393
      75A      1.355995    76A      1.365542    77A      1.366555
      78A      1.392387    79A      1.403872    80A      1.404251
      81A      1.416535    82A      1.417696    83A      1.427954
      84A      1.491488    85A      1.499076    86A      1.542664
      87A      1.542999    88A      1.574154    89A      1.574746
      90A      1.669819    91A      1.739323    92A      1.739511
      93A      1.768336    94A      1.831060    95A      1.831719
      96A      1.971729    97A      2.018239    98A      2.018940
      99A      2.019237   100A      2.051509   101A      2.053778
     102A      2.738293   103A      2.738676   104A      2.790925
     105A      2.811426   106A      2.889844   107A      2.890064
     108A      2.894935   109A      2.929271   110A      2.929717
     111A      2.958981   112A      2.964249   113A      2.964525
     114A      3.034007   115A      3.070913   116A      3.071660
     117A      3.084348   118A      3.168733   119A      3.168836
     120A      3.180600   121A      3.285234   122A      3.285394
     123A      3.326821   124A      3.327496   125A      3.375611
     126A      3.489653   127A      3.490629   128A      3.514053
     129A      3.525338   130A      3.568255   131A      3.568521
     132A      3.575138   133A      3.665861   134A      3.666888
     135A      3.679687   136A      3.694076   137A      3.694159
     138A      3.776052   139A      3.777533   140A      3.789176
     141A      3.912116   142A      3.912334   143A      4.034446
     144A      4.110831   145A      4.111911   146A      4.147331
     147A      4.148914   148A      4.173243   149A      4.202313
     150A      4.202889   151A      4.203559   152A      4.210873
     153A      4.315733   154A      4.316188   155A      4.358967
     156A      4.423776   157A      4.425018   158A      4.443508
     159A      4.516802   160A      4.516913   161A      4.577699
     162A      4.578596   163A      4.617805   164A      4.709466
     165A      4.773886   166A      4.775313   167A      4.836894
     168A      4.962830   169A      5.002941   170A      5.002986
     171A      5.228028   172A      5.246622   173A      5.247043
     174A      5.354967   175A      5.356041   176A      5.479356

    Beta Occupied:

       1A    -10.167829     2A    -10.167775     3A    -10.167719
       4A    -10.166519     5A     -0.781093     6A     -0.684089
       7A     -0.683889     8A     -0.511747     9A     -0.431243
      10A     -0.430853    11A     -0.421813    12A     -0.376720
      13A     -0.376659    14A     -0.362583    15A     -0.333358
      16A     -0.332885

    Beta Virtual:

      17A     -0.025742    18A      0.077081    19A      0.134999
      20A      0.135093    21A      0.144377    22A      0.144616
      23A      0.163339    24A      0.182393    25A      0.182506
      26A      0.215033    27A      0.218928    28A      0.282191
      29A      0.282475    30A      0.400385    31A      0.400410
      32A      0.419790    33A      0.426892    34A      0.426925
      35A      0.468501    36A      0.497566    37A      0.497733
      38A      0.513896    39A      0.556322    40A      0.584188
      41A      0.584540    42A      0.597800    43A      0.597844
      44A      0.609995    45A      0.628115    46A      0.631924
      47A      0.639381    48A      0.639716    49A      0.666822
      50A      0.667130    51A      0.686451    52A      0.686528
      53A      0.757517    54A      0.830471    55A      0.830679
      56A      0.855269    57A      0.922959    58A      0.923029
      59A      0.945963    60A      0.953548    61A      0.966468
      62A      0.966727    63A      1.008695    64A      1.131901
      65A      1.132356    66A      1.155594    67A      1.167937
      68A      1.168762    69A      1.232303    70A      1.279464
      71A      1.280704    72A      1.285113    73A      1.329328
      74A      1.329360    75A      1.365410    76A      1.370809
      77A      1.371777    78A      1.393452    79A      1.407375
      80A      1.407666    81A      1.421610    82A      1.422714
      83A      1.428236    84A      1.492537    85A      1.509519
      86A      1.547065    87A      1.547413    88A      1.582007
      89A      1.582636    90A      1.674667    91A      1.745079
      92A      1.745278    93A      1.779117    94A      1.834903
      95A      1.835587    96A      1.972589    97A      2.025304
      98A      2.025607    99A      2.039682   100A      2.058215
     101A      2.060502   102A      2.746592   103A      2.747048
     104A      2.811838   105A      2.816061   106A      2.902458
     107A      2.902826   108A      2.924635   109A      2.931735
     110A      2.932222   111A      2.960051   112A      2.968800
     113A      2.969056   114A      3.041943   115A      3.080908
     116A      3.081484   117A      3.086164   118A      3.184362
     119A      3.184687   120A      3.188303   121A      3.290042
     122A      3.290182   123A      3.330636   124A      3.331290
     125A      3.383431   126A      3.492386   127A      3.493348
     128A      3.512426   129A      3.528383   130A      3.574999
     131A      3.581597   132A      3.581863   133A      3.670590
     134A      3.671654   135A      3.692977   136A      3.725712
     137A      3.725785   138A      3.780661   139A      3.782008
     140A      3.817691   141A      3.921957   142A      3.922128
     143A      4.045332   144A      4.117692   145A      4.118682
     146A      4.154527   147A      4.156133   148A      4.187306
     149A      4.208571   150A      4.209303   151A      4.210723
     152A      4.215352   153A      4.323204   154A      4.323598
     155A      4.362331   156A      4.431977   157A      4.433206
     158A      4.446432   159A      4.524634   160A      4.524661
     161A      4.588312   162A      4.589167   163A      4.625015
     164A      4.719812   165A      4.780822   166A      4.782283
     167A      4.839811   168A      4.967622   169A      5.006966
     170A      5.007043   171A      5.233742   172A      5.248410
     173A      5.248826   174A      5.361441   175A      5.362529
     176A      5.481678

    Final Occupation by Irrep:
              A
    DOCC [    16 ]
    SOCC [     1 ]

  @DF-UKS Final Energy:  -157.81306394287404

   => Energetics <=

    Nuclear Repulsion Energy =            125.3946488859845800
    One-Electron Energy =                -458.7489467220817687
    Two-Electron Energy =                 195.8483787756806862
    DFT Exchange-Correlation Energy =     -20.3071448824575107
    Empirical Dispersion Energy =           0.0000000000000000
    VV10 Nonlocal Energy =                  0.0000000000000000
    Total Energy =                       -157.8130639428740380

  UHF NO Occupations:
  HONO-2 :   15  A 1.9996009
  HONO-1 :   16  A 1.9989805
  HONO-0 :   17  A 1.0000000
  LUNO+0 :   18  A 0.0010195
  LUNO+1 :   19  A 0.0003991
  LUNO+2 :   20  A 0.0001982
  LUNO+3 :   21  A 0.0001969

Computation Completed

Properties will be evaluated at   0.000000,   0.000000,   0.000000 [a0]

Properties computed using the SCF density matrix

  Nuclear Dipole Moment: [e a0]
     X:     0.8272      Y:    -0.0000      Z:    -0.0127

  Electronic Dipole Moment: [e a0]
     X:    -0.7493      Y:     0.0000      Z:     0.0139

  Dipole Moment: [e a0]
     X:     0.0779      Y:     0.0000      Z:     0.0012     Total:     0.0779

  Dipole Moment: [D]
     X:     0.1980      Y:     0.0000      Z:     0.0030     Total:     0.1981

*** tstop() called on n023 at Fri Nov  5 12:03:30 2021
Module time:
	user time   =     632.38 seconds =      10.54 minutes
	system time =      11.94 seconds =       0.20 minutes
	total time  =        162 seconds =       2.70 minutes
Total time:
	user time   =     632.38 seconds =      10.54 minutes
	system time =      11.94 seconds =       0.20 minutes
	total time  =        162 seconds =       2.70 minutes
Grab this energy -157.81306394287404
    Psi4 stopped on: Friday, 05 November 2021 12:03PM
    Psi4 wall time for execution: 0:02:41.99

*** Psi4 exiting successfully. Buy a developer a beer!
