                               Psi4 1.4a2.dev629

  ==> Input File <==

--------------------------------------------------------------------------
import os
memory 14 GB

molecule {
 C   -0.3233312618    0.0004373447    0.0049999319
 C    0.0615088424   -1.3937297649   -2.4226434266
 C    0.0613293033    2.8016385069   -0.0062273199
 C    0.0604676156   -1.4059791529    2.4314036889
 H    2.0880651709   -1.6326757756   -2.8448558942
 H   -0.7632662333   -0.3807784610   -4.0166407159
 H   -0.7662282034   -3.2880413632   -2.3487136234
 H    2.0858831892    3.2880894855   -0.0111401656
 H   -0.7625420241    3.6876776235    1.6679570768
 H   -0.7680609219    3.6724872873   -1.6868382696
 H    2.0867241662   -1.6502613846    2.8530317942
 H   -0.7708173308   -3.2995738351    2.3491272025
 H   -0.7623401891   -0.3993148242    4.0305397209
units bohr
0 2
}

basis {

assign 6-31g_2dfp_

[ 6-31g_2dfp_ ]

spherical

!----------------------------------------------------------------------
! Basis Set Exchange
! Version v0.8.13
! https://www.basissetexchange.org
!----------------------------------------------------------------------
!   Basis set: 6-31G(2df,p)
! Description: 6-31G(2df,p)
!        Role: orbital
!     Version: 0  (Data from the original Basis Set Exchange)
!----------------------------------------------------------------------

****
H     0
S    3   1.00
     18.7311370              0.03349460
      2.8253937              0.23472695
      0.6401217              0.81375733
S    1   1.00
      0.1612778              1.00000000
P    1   1.00
      1.5000000              1.0000000
P    1   1.00
      0.3750000              1.0000000
****
B     0
S    6   1.00
   2068.8823000              0.0018663
    310.6495700              0.0142515
     70.6830330              0.0695516
     19.8610800              0.2325729
      6.2993048              0.4670787
      2.1270270              0.3634314
SP   3   1.00
      4.7279710             -0.1303938              0.0745976
      1.1903377             -0.1307889              0.3078467
      0.3594117              1.1309444              0.7434568
SP   1   1.00
      0.1267512              1.0000000              1.0000000
D    1   1.00
      0.8020000              1.0000000
D    1   1.00
      0.2005000              1.0000000
F    1   1.00
      0.5000000              1.0000000
****
C     0
S    6   1.00
   3047.5249000              0.0018347
    457.3695100              0.0140373
    103.9486900              0.0688426
     29.2101550              0.2321844
      9.2866630              0.4679413
      3.1639270              0.3623120
SP   3   1.00
      7.8682724             -0.1193324              0.0689991
      1.8812885             -0.1608542              0.3164240
      0.5442493              1.1434564              0.7443083
SP   1   1.00
      0.1687144              1.0000000              1.0000000
D    1   1.00
      1.2520000              1.0000000
D    1   1.00
      0.3130000              1.0000000
F    1   1.00
      0.8000000              1.0000000
****
N     0
S    6   1.00
   4173.5110000              0.0018348
    627.4579000              0.0139950
    142.9021000              0.0685870
     40.2343300              0.2322410
     12.8202100              0.4690700
      4.3904370              0.3604550
SP   3   1.00
     11.6263580             -0.1149610              0.0675800
      2.7162800             -0.1691180              0.3239070
      0.7722180              1.1458520              0.7408950
SP   1   1.00
      0.2120313              1.0000000              1.0000000
D    1   1.00
      1.8260000              1.0000000
D    1   1.00
      0.4565000              1.0000000
F    1   1.00
      1.0000000              1.0000000
****
O     0
S    6   1.00
   5484.6717000              0.0018311
    825.2349500              0.0139501
    188.0469600              0.0684451
     52.9645000              0.2327143
     16.8975700              0.4701930
      5.7996353              0.3585209
SP   3   1.00
     15.5396160             -0.1107775              0.0708743
      3.5999336             -0.1480263              0.3397528
      1.0137618              1.1307670              0.7271586
SP   1   1.00
      0.2700058              1.0000000              1.0000000
D    1   1.00
      2.5840000              1.0000000
D    1   1.00
      0.6460000              1.0000000
F    1   1.00
      1.4000000              1.0000000
****
F     0
S    6   1.00
   7001.7130900              0.0018196169
   1051.3660900              0.0139160796
    239.2856900              0.0684053245
     67.3974453              0.233185760
     21.5199573              0.471267439
      7.40310130             0.356618546
SP   3   1.00
     20.8479528             -0.108506975            0.0716287243
      4.80830834            -0.146451658            0.3459121030
      1.34406986             1.128688580            0.7224699570
SP   1   1.00
      0.358151393            1.0000000              1.0000000
D    1   1.00
      3.5000000              1.0000000
D    1   1.00
      0.8750000              1.0000000
F    1   1.00
      1.8500000              1.0000000
****
Al     0
S    6   1.00
  13983.1000000              0.00194267
   2098.7500000              0.0148599
    477.7050000              0.0728494
    134.3600000              0.2468300
     42.8709000              0.4872580
     14.5189000              0.3234960
SP   6   1.00
    239.6680000             -0.00292619             0.00460285
     57.4419000             -0.0374080              0.0331990
     18.2859000             -0.1144870              0.1362820
      6.5991400              0.1156350              0.3304760
      2.4904900              0.6125950              0.4491460
      0.9445400              0.3937990              0.2657040
SP   3   1.00
      1.2779000             -0.2276060             -0.0175130
      0.3975900              0.00144583             0.2445330
      0.1600950              1.0927900              0.8049340
SP   1   1.00
      0.0556577              1.0000000              1.0000000
D    1   1.00
      0.6500000              1.0000000
D    1   1.00
      0.1625000              1.0000000
F    1   1.00
      0.2500000              1.0000000
****
Si     0
S    6   1.00
  16115.9000000              0.00195948
   2425.5800000              0.01492880
    553.8670000              0.07284780
    156.3400000              0.24613000
     50.0683000              0.48591400
     17.0178000              0.32500200
SP   6   1.00
    292.7180000             -0.00278094             0.00443826
     69.8731000             -0.03571460             0.03266790
     22.3363000             -0.11498500             0.13472100
      8.1503900              0.09356340             0.32867800
      3.1345800              0.60301700             0.44964000
      1.2254300              0.41895900             0.26137200
SP   3   1.00
      1.7273800             -0.24463000            -0.01779510
      0.5729220              0.00431572             0.25353900
      0.2221920              1.09818000             0.80066900
SP   1   1.00
      0.0778369              1.00000000             1.00000000
D    1   1.00
      0.9000000              1.0000000
D    1   1.00
      0.2250000              1.0000000
F    1   1.00
      0.3200000              1.0000000
****
P     0
S    6   1.00
  19413.3000000              0.0018516
   2909.4200000              0.0142062
    661.3640000              0.0699995
    185.7590000              0.2400790
     59.1943000              0.4847620
     20.0310000              0.3352000
SP   6   1.00
    339.4780000             -0.00278217             0.00456462
     81.0101000             -0.0360499              0.03369360
     25.8780000             -0.1166310              0.13975500
      9.4522100              0.0968328              0.33936200
      3.6656600              0.6144180              0.45092100
      1.4674600              0.4037980              0.23858600
SP   3   1.00
      2.1562300             -0.2529230             -0.01776530
      0.7489970              0.0328517              0.27405800
      0.2831450              1.0812500              0.78542100
SP   1   1.00
      0.0998317              1.0000000              1.00000000
D    1   1.00
      1.1000000              1.0000000
D    1   1.00
      0.2750000              1.0000000
F    1   1.00
      0.4500000              1.0000000
****
S     0
S    6   1.00
  21917.1000000              0.0018690
   3301.4900000              0.0142300
    754.1460000              0.0696960
    212.7110000              0.2384870
     67.9896000              0.4833070
     23.0515000              0.3380740
SP   6   1.00
    423.7350000             -0.0023767              0.0040610
    100.7100000             -0.0316930              0.0306810
     32.1599000             -0.1133170              0.1304520
     11.8079000              0.0560900              0.3272050
      4.6311000              0.5922550              0.4528510
      1.8702500              0.4550060              0.2560420
SP   3   1.00
      2.6158400             -0.2503740             -0.0145110
      0.9221670              0.0669570              0.3102630
      0.3412870              1.0545100              0.7544830
SP   1   1.00
      0.1171670              1.0000000              1.0000000
D    1   1.00
      1.3000000              1.0000000
D    1   1.00
      0.3250000              1.0000000
F    1   1.00
      0.5500000              1.0000000
****
Cl     0
S    6   1.00
  25180.1000000              0.0018330
   3780.3500000              0.0140340
    860.4740000              0.0690970
    242.1450000              0.2374520
     77.3349000              0.4830340
     26.2470000              0.3398560
SP   6   1.00
    491.7650000             -0.0022974              0.0039894
    116.9840000             -0.0307140              0.0303180
     37.4153000             -0.1125280              0.1298800
     13.7834000              0.0450160              0.3279510
      5.4521500              0.5893530              0.4535270
      2.2258800              0.4652060              0.2521540
SP   3   1.00
      3.1864900             -0.2518300             -0.0142990
      1.1442700              0.0615890              0.3235720
      0.4203770              1.0601800              0.7435070
SP   1   1.00
      0.1426570              1.0000000              1.0000000
D    1   1.00
      1.5000000              1.0000000
D    1   1.00
      0.3750000              1.0000000
F    1   1.00
      0.7000000              1.0000000
****
}

set {
reference uhf
freeze_core true
e_convergence 10
d_convergence 10
dft_spherical_points 1202
dft_radial_points 99
}

e = energy('b3lyp')

print_out('Grab this energy {0}'.format(e))
--------------------------------------------------------------------------

    Molecular point group: c1

    Geometry (in Bohr), charge = 0, multiplicity = 2:

       Center              X                  Y                   Z               Mass
    ------------   -----------------  -----------------  -----------------  -----------------
         C           -0.323334051587    -0.000018114436     0.003549046053    12.000000000000
         C            0.061506052613    -1.394185224036    -2.424094312447    12.000000000000
         C            0.061326513513     2.801183047764    -0.007678205747    12.000000000000
         C            0.060464825813    -1.406434612036     2.429952803053    12.000000000000
         H            2.088062381113    -1.633131234736    -2.846306780047     1.007825032230
         H           -0.763269023087    -0.381233920136    -4.018091601747     1.007825032230
         H           -0.766230993187    -3.288496822336    -2.350164509247     1.007825032230
         H            2.085880399413     3.287634026364    -0.012591051447     1.007825032230
         H           -0.762544813887     3.687222164364     1.666506190953     1.007825032230
         H           -0.768063711687     3.672031828164    -1.688289155447     1.007825032230
         H            2.086721376413    -1.650716843736     2.851580908353     1.007825032230
         H           -0.770820120587    -3.300029294236     2.347676316653     1.007825032230
         H           -0.762342978887    -0.399770283336     4.029088835053     1.007825032230

  Charge       = 0
  Multiplicity = 2
  Basis Set: ANONYMOUSE7FE8859
    Blend: 6-31G_2DFP_
  Basis Set: (ANONYMOUSE7FE8859 AUX)
    Blend: DEF2-UNIVERSAL-JKFIT

    Orbital Energies [Eh]
    ---------------------

    Alpha Occupied:

       1A    -10.180342     2A    -10.167283     3A    -10.167023
       4A    -10.166740     5A     -0.797770     6A     -0.686416
       7A     -0.685958     8A     -0.530779     9A     -0.441128
      10A     -0.434991    11A     -0.434348    12A     -0.382746
      13A     -0.382451    14A     -0.363612    15A     -0.338319
      16A     -0.337675    17A     -0.168961

    Alpha Virtual:

      18A      0.076070    19A      0.133887    20A      0.134420
      21A      0.142380    22A      0.142874    23A      0.154883
      24A      0.178536    25A      0.179021    26A      0.203544
      27A      0.214808    28A      0.275784    29A      0.276189
      30A      0.398932    31A      0.399453    32A      0.403418
      33A      0.423891    34A      0.424313    35A      0.456595
      36A      0.494984    37A      0.495786    38A      0.512173
      39A      0.513987    40A      0.578547    41A      0.579061
      42A      0.591488    43A      0.591784    44A      0.602574
      45A      0.624723    46A      0.631762    47A      0.635909
      48A      0.636643    49A      0.663109    50A      0.663718
      51A      0.683548    52A      0.684178    53A      0.734993
      54A      0.824540    55A      0.826261    56A      0.853914
      57A      0.914713    58A      0.915341    59A      0.944050
      60A      0.944511    61A      0.961145    62A      0.961649
      63A      1.003472    64A      1.126921    65A      1.129324
      66A      1.142214    67A      1.162778    68A      1.163755
      69A      1.223331    70A      1.273916    71A      1.275075
      72A      1.279353    73A      1.324126    74A      1.324571
      75A      1.355988    76A      1.365268    77A      1.366782
      78A      1.392425    79A      1.403289    80A      1.404883
      81A      1.416267    82A      1.417975    83A      1.427920
      84A      1.491440    85A      1.499056    86A      1.542481
      87A      1.543201    88A      1.572613    89A      1.576394
      90A      1.669827    91A      1.738145    92A      1.740646
      93A      1.768355    94A      1.830477    95A      1.832311
      96A      1.971752    97A      2.017169    98A      2.018390
      99A      2.020796   100A      2.050074   101A      2.055318
     102A      2.738159   103A      2.738808   104A      2.790921
     105A      2.811439   106A      2.889766   107A      2.890129
     108A      2.894943   109A      2.929314   110A      2.929676
     111A      2.958946   112A      2.963541   113A      2.965291
     114A      3.034012   115A      3.070080   116A      3.072407
     117A      3.084461   118A      3.167910   119A      3.169693
     120A      3.180562   121A      3.284591   122A      3.286015
     123A      3.326135   124A      3.328202   125A      3.375673
     126A      3.489565   127A      3.490687   128A      3.514037
     129A      3.525305   130A      3.567085   131A      3.569576
     132A      3.575328   133A      3.665914   134A      3.666895
     135A      3.679645   136A      3.693628   137A      3.694609
     138A      3.775945   139A      3.777550   140A      3.789300
     141A      3.910690   142A      3.913766   143A      4.034463
     144A      4.109876   145A      4.112817   146A      4.146376
     147A      4.149752   148A      4.173329   149A      4.201227
     150A      4.202688   151A      4.204700   152A      4.211149
     153A      4.315287   154A      4.316621   155A      4.358999
     156A      4.423891   157A      4.424901   158A      4.443566
     159A      4.515481   160A      4.518225   161A      4.577194
     162A      4.579335   163A      4.617550   164A      4.709422
     165A      4.772964   166A      4.776264   167A      4.836950
     168A      4.962862   169A      5.001918   170A      5.004019
     171A      5.227569   172A      5.246766   173A      5.247288
     174A      5.354058   175A      5.356976   176A      5.479395

    Beta Occupied:

       1A    -10.168039     2A    -10.167782     3A    -10.167504
       4A    -10.166518     5A     -0.781095     6A     -0.684223
       7A     -0.683756     8A     -0.511750     9A     -0.431374
      10A     -0.430711    11A     -0.421822    12A     -0.376840
      13A     -0.376527    14A     -0.362595    15A     -0.333443
      16A     -0.332797

    Beta Virtual:

      17A     -0.025743    18A      0.077079    19A      0.134756
      20A      0.135331    21A      0.144230    22A      0.144766
      23A      0.163341    24A      0.182199    25A      0.182701
      26A      0.215038    27A      0.218927    28A      0.282122
      29A      0.282547    30A      0.400119    31A      0.400668
      32A      0.419799    33A      0.426692    34A      0.427135
      35A      0.468506    36A      0.497242    37A      0.498054
      38A      0.513908    39A      0.556328    40A      0.584128
      41A      0.584583    42A      0.597642    43A      0.597985
      44A      0.609994    45A      0.628107    46A      0.631922
      47A      0.639196    48A      0.639923    49A      0.666663
      50A      0.667290    51A      0.686155    52A      0.686843
      53A      0.757516    54A      0.829702    55A      0.831434
      56A      0.855267    57A      0.922688    58A      0.923307
      59A      0.945910    60A      0.953422    61A      0.966398
      62A      0.967007    63A      1.008710    64A      1.130960
      65A      1.133345    66A      1.155585    67A      1.167823
      68A      1.168861    69A      1.232300    70A      1.279502
      71A      1.280683    72A      1.285108    73A      1.329110
      74A      1.329566    75A      1.365405    76A      1.370431
      77A      1.372098    78A      1.393490    79A      1.406787
      80A      1.408321    81A      1.421352    82A      1.422981
      83A      1.428193    84A      1.492493    85A      1.509499
      86A      1.546782    87A      1.547715    88A      1.580633
      89A      1.584116    90A      1.674673    91A      1.743901
      92A      1.746418    93A      1.779130    94A      1.834320
      95A      1.836179    96A      1.972615    97A      2.023828
      98A      2.027017    99A      2.039667   100A      2.056872
     101A      2.061965   102A      2.746451   103A      2.747189
     104A      2.811852   105A      2.816056   106A      2.902432
     107A      2.902840   108A      2.924648   109A      2.931885
     110A      2.932071   111A      2.960033   112A      2.968091
     113A      2.969805   114A      3.041947   115A      3.079717
     116A      3.082400   117A      3.086479   118A      3.183755
     119A      3.185323   120A      3.188255   121A      3.289455
     122A      3.290755   123A      3.329920   124A      3.332028
     125A      3.383489   126A      3.492302   127A      3.493403
     128A      3.512413   129A      3.528359   130A      3.574730
     131A      3.580719   132A      3.583076   133A      3.670781
     134A      3.671517   135A      3.692954   136A      3.725350
     137A      3.726133   138A      3.780471   139A      3.782161
     140A      3.817760   141A      3.920481   142A      3.923607
     143A      4.045351   144A      4.116611   145A      4.119716
     146A      4.153585   147A      4.156979   148A      4.187366
     149A      4.207166   150A      4.210475   151A      4.210752
     152A      4.215691   153A      4.322769   154A      4.324023
     155A      4.362362   156A      4.432127   157A      4.433042
     158A      4.446504   159A      4.523323   160A      4.525955
     161A      4.587716   162A      4.590018   163A      4.624743
     164A      4.719767   165A      4.779901   166A      4.783232
     167A      4.839869   168A      4.967655   169A      5.005959
     170A      5.008057   171A      5.233177   172A      5.248550
     173A      5.249184   174A      5.360536   175A      5.363453
     176A      5.481718

    Final Occupation by Irrep:
              A
    DOCC [    16 ]
    SOCC [     1 ]

  @DF-UKS Final Energy:  -157.81305218766872

   => Energetics <=

    Nuclear Repulsion Energy =            125.3948882578227284
    One-Electron Energy =                -458.7493923816859933
    Two-Electron Energy =                 195.8486012232948497
    DFT Exchange-Correlation Energy =     -20.3071492871003123
    Empirical Dispersion Energy =           0.0000000000000000
    VV10 Nonlocal Energy =                  0.0000000000000000
    Total Energy =                       -157.8130521876687169

  UHF NO Occupations:
  HONO-2 :   15  A 1.9996009
  HONO-1 :   16  A 1.9989804
  HONO-0 :   17  A 1.0000000
  LUNO+0 :   18  A 0.0010196
  LUNO+1 :   19  A 0.0003991
  LUNO+2 :   20  A 0.0001979
  LUNO+3 :   21  A 0.0001972

Computation Completed

Properties will be evaluated at   0.000000,   0.000000,   0.000000 [a0]

Properties computed using the SCF density matrix

  Nuclear Dipole Moment: [e a0]
     X:     0.8272      Y:    -0.0032      Z:    -0.0102

  Electronic Dipole Moment: [e a0]
     X:    -0.7493      Y:     0.0050      Z:     0.0110

  Dipole Moment: [e a0]
     X:     0.0779      Y:     0.0017      Z:     0.0008     Total:     0.0779

  Dipole Moment: [D]
     X:     0.1980      Y:     0.0044      Z:     0.0019     Total:     0.1981

*** tstop() called on n036 at Fri Nov  5 14:30:30 2021
Module time:
	user time   =     635.02 seconds =      10.58 minutes
	system time =      11.88 seconds =       0.20 minutes
	total time  =        163 seconds =       2.72 minutes
Total time:
	user time   =     635.02 seconds =      10.58 minutes
	system time =      11.88 seconds =       0.20 minutes
	total time  =        163 seconds =       2.72 minutes
Grab this energy -157.81305218766872
    Psi4 stopped on: Friday, 05 November 2021 02:30PM
    Psi4 wall time for execution: 0:02:42.61

*** Psi4 exiting successfully. Buy a developer a beer!
