                               Psi4 1.4a2.dev629

  ==> Input File <==

--------------------------------------------------------------------------
import os
memory 14 GB

molecule {
 C   -0.3233180892   -0.0000025133    0.0004973492
 C    0.0624250900   -1.4013317455   -2.4267822278
 C    0.0611138903    2.8024177779    0.0003839534
 C    0.0600406105   -1.4010833588    2.4271199269
 H    2.0802136790   -1.6445653842   -2.8480670965
 H   -0.7628260500   -0.3881559567   -4.0255071147
 H   -0.7617926464   -3.2915608180   -2.3486923474
 H    2.0836464301    3.2884610547    0.0001823521
 H   -0.7629236504    3.6795884033    1.6734095559
 H   -0.7653180692    3.6805182286   -1.6740142955
 H    2.0873551509   -1.6439872704    2.8474291198
 H   -0.7662920577   -3.2874084828    2.3517221266
 H   -0.7649321645   -0.3929142486    4.0223186981
units bohr
0 2
}

basis {

assign 6-31g_2dfp_

[ 6-31g_2dfp_ ]

spherical

!----------------------------------------------------------------------
! Basis Set Exchange
! Version v0.8.13
! https://www.basissetexchange.org
!----------------------------------------------------------------------
!   Basis set: 6-31G(2df,p)
! Description: 6-31G(2df,p)
!        Role: orbital
!     Version: 0  (Data from the original Basis Set Exchange)
!----------------------------------------------------------------------

****
H     0
S    3   1.00
     18.7311370              0.03349460
      2.8253937              0.23472695
      0.6401217              0.81375733
S    1   1.00
      0.1612778              1.00000000
P    1   1.00
      1.5000000              1.0000000
P    1   1.00
      0.3750000              1.0000000
****
B     0
S    6   1.00
   2068.8823000              0.0018663
    310.6495700              0.0142515
     70.6830330              0.0695516
     19.8610800              0.2325729
      6.2993048              0.4670787
      2.1270270              0.3634314
SP   3   1.00
      4.7279710             -0.1303938              0.0745976
      1.1903377             -0.1307889              0.3078467
      0.3594117              1.1309444              0.7434568
SP   1   1.00
      0.1267512              1.0000000              1.0000000
D    1   1.00
      0.8020000              1.0000000
D    1   1.00
      0.2005000              1.0000000
F    1   1.00
      0.5000000              1.0000000
****
C     0
S    6   1.00
   3047.5249000              0.0018347
    457.3695100              0.0140373
    103.9486900              0.0688426
     29.2101550              0.2321844
      9.2866630              0.4679413
      3.1639270              0.3623120
SP   3   1.00
      7.8682724             -0.1193324              0.0689991
      1.8812885             -0.1608542              0.3164240
      0.5442493              1.1434564              0.7443083
SP   1   1.00
      0.1687144              1.0000000              1.0000000
D    1   1.00
      1.2520000              1.0000000
D    1   1.00
      0.3130000              1.0000000
F    1   1.00
      0.8000000              1.0000000
****
N     0
S    6   1.00
   4173.5110000              0.0018348
    627.4579000              0.0139950
    142.9021000              0.0685870
     40.2343300              0.2322410
     12.8202100              0.4690700
      4.3904370              0.3604550
SP   3   1.00
     11.6263580             -0.1149610              0.0675800
      2.7162800             -0.1691180              0.3239070
      0.7722180              1.1458520              0.7408950
SP   1   1.00
      0.2120313              1.0000000              1.0000000
D    1   1.00
      1.8260000              1.0000000
D    1   1.00
      0.4565000              1.0000000
F    1   1.00
      1.0000000              1.0000000
****
O     0
S    6   1.00
   5484.6717000              0.0018311
    825.2349500              0.0139501
    188.0469600              0.0684451
     52.9645000              0.2327143
     16.8975700              0.4701930
      5.7996353              0.3585209
SP   3   1.00
     15.5396160             -0.1107775              0.0708743
      3.5999336             -0.1480263              0.3397528
      1.0137618              1.1307670              0.7271586
SP   1   1.00
      0.2700058              1.0000000              1.0000000
D    1   1.00
      2.5840000              1.0000000
D    1   1.00
      0.6460000              1.0000000
F    1   1.00
      1.4000000              1.0000000
****
F     0
S    6   1.00
   7001.7130900              0.0018196169
   1051.3660900              0.0139160796
    239.2856900              0.0684053245
     67.3974453              0.233185760
     21.5199573              0.471267439
      7.40310130             0.356618546
SP   3   1.00
     20.8479528             -0.108506975            0.0716287243
      4.80830834            -0.146451658            0.3459121030
      1.34406986             1.128688580            0.7224699570
SP   1   1.00
      0.358151393            1.0000000              1.0000000
D    1   1.00
      3.5000000              1.0000000
D    1   1.00
      0.8750000              1.0000000
F    1   1.00
      1.8500000              1.0000000
****
Al     0
S    6   1.00
  13983.1000000              0.00194267
   2098.7500000              0.0148599
    477.7050000              0.0728494
    134.3600000              0.2468300
     42.8709000              0.4872580
     14.5189000              0.3234960
SP   6   1.00
    239.6680000             -0.00292619             0.00460285
     57.4419000             -0.0374080              0.0331990
     18.2859000             -0.1144870              0.1362820
      6.5991400              0.1156350              0.3304760
      2.4904900              0.6125950              0.4491460
      0.9445400              0.3937990              0.2657040
SP   3   1.00
      1.2779000             -0.2276060             -0.0175130
      0.3975900              0.00144583             0.2445330
      0.1600950              1.0927900              0.8049340
SP   1   1.00
      0.0556577              1.0000000              1.0000000
D    1   1.00
      0.6500000              1.0000000
D    1   1.00
      0.1625000              1.0000000
F    1   1.00
      0.2500000              1.0000000
****
Si     0
S    6   1.00
  16115.9000000              0.00195948
   2425.5800000              0.01492880
    553.8670000              0.07284780
    156.3400000              0.24613000
     50.0683000              0.48591400
     17.0178000              0.32500200
SP   6   1.00
    292.7180000             -0.00278094             0.00443826
     69.8731000             -0.03571460             0.03266790
     22.3363000             -0.11498500             0.13472100
      8.1503900              0.09356340             0.32867800
      3.1345800              0.60301700             0.44964000
      1.2254300              0.41895900             0.26137200
SP   3   1.00
      1.7273800             -0.24463000            -0.01779510
      0.5729220              0.00431572             0.25353900
      0.2221920              1.09818000             0.80066900
SP   1   1.00
      0.0778369              1.00000000             1.00000000
D    1   1.00
      0.9000000              1.0000000
D    1   1.00
      0.2250000              1.0000000
F    1   1.00
      0.3200000              1.0000000
****
P     0
S    6   1.00
  19413.3000000              0.0018516
   2909.4200000              0.0142062
    661.3640000              0.0699995
    185.7590000              0.2400790
     59.1943000              0.4847620
     20.0310000              0.3352000
SP   6   1.00
    339.4780000             -0.00278217             0.00456462
     81.0101000             -0.0360499              0.03369360
     25.8780000             -0.1166310              0.13975500
      9.4522100              0.0968328              0.33936200
      3.6656600              0.6144180              0.45092100
      1.4674600              0.4037980              0.23858600
SP   3   1.00
      2.1562300             -0.2529230             -0.01776530
      0.7489970              0.0328517              0.27405800
      0.2831450              1.0812500              0.78542100
SP   1   1.00
      0.0998317              1.0000000              1.00000000
D    1   1.00
      1.1000000              1.0000000
D    1   1.00
      0.2750000              1.0000000
F    1   1.00
      0.4500000              1.0000000
****
S     0
S    6   1.00
  21917.1000000              0.0018690
   3301.4900000              0.0142300
    754.1460000              0.0696960
    212.7110000              0.2384870
     67.9896000              0.4833070
     23.0515000              0.3380740
SP   6   1.00
    423.7350000             -0.0023767              0.0040610
    100.7100000             -0.0316930              0.0306810
     32.1599000             -0.1133170              0.1304520
     11.8079000              0.0560900              0.3272050
      4.6311000              0.5922550              0.4528510
      1.8702500              0.4550060              0.2560420
SP   3   1.00
      2.6158400             -0.2503740             -0.0145110
      0.9221670              0.0669570              0.3102630
      0.3412870              1.0545100              0.7544830
SP   1   1.00
      0.1171670              1.0000000              1.0000000
D    1   1.00
      1.3000000              1.0000000
D    1   1.00
      0.3250000              1.0000000
F    1   1.00
      0.5500000              1.0000000
****
Cl     0
S    6   1.00
  25180.1000000              0.0018330
   3780.3500000              0.0140340
    860.4740000              0.0690970
    242.1450000              0.2374520
     77.3349000              0.4830340
     26.2470000              0.3398560
SP   6   1.00
    491.7650000             -0.0022974              0.0039894
    116.9840000             -0.0307140              0.0303180
     37.4153000             -0.1125280              0.1298800
     13.7834000              0.0450160              0.3279510
      5.4521500              0.5893530              0.4535270
      2.2258800              0.4652060              0.2521540
SP   3   1.00
      3.1864900             -0.2518300             -0.0142990
      1.1442700              0.0615890              0.3235720
      0.4203770              1.0601800              0.7435070
SP   1   1.00
      0.1426570              1.0000000              1.0000000
D    1   1.00
      1.5000000              1.0000000
D    1   1.00
      0.3750000              1.0000000
F    1   1.00
      0.7000000              1.0000000
****
}

set {
reference uhf
freeze_core true
e_convergence 10
d_convergence 10
dft_spherical_points 1202
dft_radial_points 99
}

e = energy('b3lyp')

print_out('Grab this energy {0}'.format(e))
--------------------------------------------------------------------------

    Molecular point group: c1

    Geometry (in Bohr), charge = 0, multiplicity = 2:

       Center              X                  Y                   Z               Mass
    ------------   -----------------  -----------------  -----------------  -----------------
         C           -0.323376157662    -0.000002114810     0.000262560691    12.000000000000
         C            0.062367021538    -1.401331347010    -2.427017016309    12.000000000000
         C            0.061055821838     2.802418176390     0.000149164891    12.000000000000
         C            0.059982542038    -1.401082960310     2.426885138391    12.000000000000
         H            2.080155610538    -1.644564985710    -2.848301885009     1.007825032230
         H           -0.762884118462    -0.388155558210    -4.025741903209     1.007825032230
         H           -0.761850714862    -3.291560419510    -2.348927135909     1.007825032230
         H            2.083588361638     3.288461453190    -0.000052436409     1.007825032230
         H           -0.762981718862     3.679588801790     1.673174767391     1.007825032230
         H           -0.765376137662     3.680518627090    -1.674249084009     1.007825032230
         H            2.087297082438    -1.643986871910     2.847194331291     1.007825032230
         H           -0.766350126162    -3.287408084310     2.351487338091     1.007825032230
         H           -0.764990232962    -0.392913850110     4.022083909591     1.007825032230

  Charge       = 0
  Multiplicity = 2
  Basis Set: ANONYMOUS7ADF011C
    Blend: 6-31G_2DFP_
  Basis Set: (ANONYMOUS7ADF011C AUX)
    Blend: DEF2-UNIVERSAL-JKFIT

    Orbital Energies [Eh]
    ---------------------

    Alpha Occupied:

       1A    -10.180275     2A    -10.166510     3A    -10.166485
       4A    -10.166442     5A     -0.797727     6A     -0.686549
       7A     -0.686547     8A     -0.531089     9A     -0.441227
      10A     -0.434831    11A     -0.434788    12A     -0.382880
      13A     -0.382834    14A     -0.363927    15A     -0.338037
      16A     -0.337972    17A     -0.168900

    Alpha Virtual:

      18A      0.076402    19A      0.134354    20A      0.134685
      21A      0.142975    22A      0.143098    23A      0.155179
      24A      0.179199    25A      0.179372    26A      0.203438
      27A      0.215258    28A      0.275933    29A      0.276085
      30A      0.399140    31A      0.399206    32A      0.403550
      33A      0.424286    34A      0.424456    35A      0.456724
      36A      0.495467    37A      0.495758    38A      0.512432
      39A      0.514114    40A      0.578978    41A      0.579326
      42A      0.592082    43A      0.592379    44A      0.603234
      45A      0.625743    46A      0.632458    47A      0.636716
      48A      0.636924    49A      0.663377    50A      0.664133
      51A      0.684232    52A      0.684584    53A      0.735305
      54A      0.826202    55A      0.826239    56A      0.854436
      57A      0.915523    58A      0.915954    59A      0.944752
      60A      0.945402    61A      0.961824    62A      0.962078
      63A      1.003552    64A      1.128481    65A      1.128577
      66A      1.143084    67A      1.163402    68A      1.163655
      69A      1.223768    70A      1.274866    71A      1.275165
      72A      1.278919    73A      1.325019    74A      1.325109
      75A      1.356817    76A      1.366527    77A      1.366571
      78A      1.393033    79A      1.404628    80A      1.405542
      81A      1.417512    82A      1.418574    83A      1.428662
      84A      1.492386    85A      1.500428    86A      1.542863
      87A      1.543789    88A      1.574484    89A      1.574799
      90A      1.671978    91A      1.740683    92A      1.740977
      93A      1.769885    94A      1.833088    95A      1.834698
      96A      1.973341    97A      2.019196    98A      2.019931
      99A      2.020753   100A      2.052787   101A      2.054682
     102A      2.739053   103A      2.739876   104A      2.791138
     105A      2.811939   106A      2.890482   107A      2.890513
     108A      2.895046   109A      2.929881   110A      2.929892
     111A      2.959625   112A      2.964706   113A      2.965373
     114A      3.034931   115A      3.072215   116A      3.072254
     117A      3.085296   118A      3.167915   119A      3.168337
     120A      3.180899   121A      3.284956   122A      3.285605
     123A      3.326455   124A      3.326859   125A      3.374923
     126A      3.488994   127A      3.489328   128A      3.513727
     129A      3.524714   130A      3.568463   131A      3.568684
     132A      3.573494   133A      3.666379   134A      3.667786
     135A      3.681454   136A      3.694858   137A      3.695117
     138A      3.777323   139A      3.777367   140A      3.789686
     141A      3.913062   142A      3.913271   143A      4.036771
     144A      4.113373   145A      4.114280   146A      4.150834
     147A      4.152002   148A      4.176215   149A      4.203312
     150A      4.204274   151A      4.205511   152A      4.214610
     153A      4.317405   154A      4.319091   155A      4.361399
     156A      4.426710   157A      4.427376   158A      4.445440
     159A      4.518575   160A      4.519971   161A      4.579614
     162A      4.579872   163A      4.618229   164A      4.711489
     165A      4.775905   166A      4.776832   167A      4.839218
     168A      4.963682   169A      5.003318   170A      5.004795
     171A      5.233299   172A      5.250031   173A      5.254169
     174A      5.358914   175A      5.361356   176A      5.482622

    Beta Occupied:

       1A    -10.167264     2A    -10.167239     3A    -10.167213
       4A    -10.166432     5A     -0.781080     6A     -0.684353
       7A     -0.684345     8A     -0.512002     9A     -0.431207
      10A     -0.431176    11A     -0.421955    12A     -0.376996
      13A     -0.376905    14A     -0.362914    15A     -0.333143
      16A     -0.333093

    Beta Virtual:

      17A     -0.025510    18A      0.077408    19A      0.135263
      20A      0.135574    21A      0.144844    22A      0.144916
      23A      0.163573    24A      0.182843    25A      0.183053
      26A      0.215485    27A      0.218840    28A      0.282287
      29A      0.282446    30A      0.400306    31A      0.400370
      32A      0.420012    33A      0.427100    34A      0.427269
      35A      0.468613    36A      0.497720    37A      0.498026
      38A      0.514162    39A      0.556516    40A      0.584560
      41A      0.584877    42A      0.598261    43A      0.598604
      44A      0.610642    45A      0.629107    46A      0.632617
      47A      0.639975    48A      0.640183    49A      0.666977
      50A      0.667672    51A      0.686849    52A      0.687166
      53A      0.757853    54A      0.831365    55A      0.831408
      56A      0.855767    57A      0.923494    58A      0.923896
      59A      0.946588    60A      0.954354    61A      0.967093
      62A      0.967405    63A      1.008804    64A      1.132530
      65A      1.132556    66A      1.156450    67A      1.168471
      68A      1.168795    69A      1.232724    70A      1.280438
      71A      1.280761    72A      1.284663    73A      1.330037
      74A      1.330122    75A      1.366252    76A      1.371767
      77A      1.371817    78A      1.394086    79A      1.408049
      80A      1.409047    81A      1.422546    82A      1.423643
      83A      1.428920    84A      1.493439    85A      1.510872
      86A      1.547157    87A      1.548050    88A      1.582481
      89A      1.582762    90A      1.676901    91A      1.746455
      92A      1.746748    93A      1.780600    94A      1.836906
      95A      1.838531    96A      1.974198    97A      2.026155
      98A      2.027105    99A      2.040735   100A      2.059547
     101A      2.061355   102A      2.747410   103A      2.748216
     104A      2.812354   105A      2.816299   106A      2.903185
     107A      2.903300   108A      2.924766   109A      2.932281
     110A      2.932351   111A      2.960693   112A      2.969280
     113A      2.969974   114A      3.042784   115A      3.082078
     116A      3.082309   117A      3.087139   118A      3.183505
     119A      3.184148   120A      3.188640   121A      3.289691
     122A      3.290358   123A      3.330243   124A      3.330696
     125A      3.382764   126A      3.491810   127A      3.492066
     128A      3.512098   129A      3.527776   130A      3.573325
     131A      3.581785   132A      3.582099   133A      3.671353
     134A      3.672891   135A      3.694812   136A      3.726293
     137A      3.726599   138A      3.781814   139A      3.781901
     140A      3.818255   141A      3.922842   142A      3.923095
     143A      4.047782   144A      4.120280   145A      4.121153
     146A      4.158062   147A      4.159133   148A      4.190118
     149A      4.209522   150A      4.210998   151A      4.212354
     152A      4.219054   153A      4.324759   154A      4.326449
     155A      4.364752   156A      4.434897   157A      4.435565
     158A      4.448301   159A      4.526353   160A      4.527752
     161A      4.590169   162A      4.590452   163A      4.625416
     164A      4.721828   165A      4.782854   166A      4.783783
     167A      4.842139   168A      4.968450   169A      5.007356
     170A      5.008796   171A      5.238988   172A      5.251821
     173A      5.255937   174A      5.365357   175A      5.367818
     176A      5.484931

    Final Occupation by Irrep:
              A
    DOCC [    16 ]
    SOCC [     1 ]

  @DF-UKS Final Energy:  -157.81301227148458

   => Energetics <=

    Nuclear Repulsion Energy =            125.4320655580445134
    One-Electron Energy =                -458.8198334302568924
    Two-Electron Energy =                 195.8859312473047112
    DFT Exchange-Correlation Energy =     -20.3111756465768956
    Empirical Dispersion Energy =           0.0000000000000000
    VV10 Nonlocal Energy =                  0.0000000000000000
    Total Energy =                       -157.8130122714845811

  UHF NO Occupations:
  HONO-2 :   15  A 1.9996034
  HONO-1 :   16  A 1.9989797
  HONO-0 :   17  A 1.0000000
  LUNO+0 :   18  A 0.0010203
  LUNO+1 :   19  A 0.0003966
  LUNO+2 :   20  A 0.0001979
  LUNO+3 :   21  A 0.0001979

Computation Completed

Properties will be evaluated at   0.000000,   0.000000,   0.000000 [a0]

Properties computed using the SCF density matrix

  Nuclear Dipole Moment: [e a0]
     X:     0.8268      Y:    -0.0000      Z:    -0.0017

  Electronic Dipole Moment: [e a0]
     X:    -0.7482      Y:     0.0000      Z:     0.0023

  Dipole Moment: [e a0]
     X:     0.0785      Y:     0.0000      Z:     0.0006     Total:     0.0785

  Dipole Moment: [D]
     X:     0.1996      Y:     0.0000      Z:     0.0016     Total:     0.1996

*** tstop() called on n082 at Fri Nov  5 14:05:15 2021
Module time:
	user time   =     465.75 seconds =       7.76 minutes
	system time =       4.33 seconds =       0.07 minutes
	total time  =        118 seconds =       1.97 minutes
Total time:
	user time   =     465.75 seconds =       7.76 minutes
	system time =       4.33 seconds =       0.07 minutes
	total time  =        118 seconds =       1.97 minutes
Grab this energy -157.81301227148458
    Psi4 stopped on: Friday, 05 November 2021 02:05PM
    Psi4 wall time for execution: 0:01:58.25

*** Psi4 exiting successfully. Buy a developer a beer!
