                               Psi4 1.4a2.dev629

  ==> Input File <==

--------------------------------------------------------------------------
import os
memory 14 GB

molecule {
 C   -0.3233399600   -0.0002488231    0.0000000000
 C    0.0605846276   -1.4007978906   -2.4264986197
 C    0.0621327382    2.8016351783   -0.0000000000
 C    0.0605846276   -1.4007978906    2.4264986197
 H    2.0853132531   -1.6411854648   -2.8456056776
 H   -0.7670580677   -0.3900512999   -4.0277673724
 H   -0.7655542417   -3.2926983975   -2.3490909461
 H    2.0900348262    3.2942041784   -0.0000000000
 H   -0.7640033119    3.6769256292    1.6763846630
 H   -0.7640033119    3.6769256292   -1.6763846630
 H    2.0853132531   -1.6411854648    2.8456056776
 H   -0.7655542417   -3.2926983975    2.3490909461
 H   -0.7670580677   -0.3900512999    4.0277673724
units bohr
0 2
}

basis {

assign 6-31g_2dfp_

[ 6-31g_2dfp_ ]

spherical

!----------------------------------------------------------------------
! Basis Set Exchange
! Version v0.8.13
! https://www.basissetexchange.org
!----------------------------------------------------------------------
!   Basis set: 6-31G(2df,p)
! Description: 6-31G(2df,p)
!        Role: orbital
!     Version: 0  (Data from the original Basis Set Exchange)
!----------------------------------------------------------------------

****
H     0
S    3   1.00
     18.7311370              0.03349460
      2.8253937              0.23472695
      0.6401217              0.81375733
S    1   1.00
      0.1612778              1.00000000
P    1   1.00
      1.5000000              1.0000000
P    1   1.00
      0.3750000              1.0000000
****
B     0
S    6   1.00
   2068.8823000              0.0018663
    310.6495700              0.0142515
     70.6830330              0.0695516
     19.8610800              0.2325729
      6.2993048              0.4670787
      2.1270270              0.3634314
SP   3   1.00
      4.7279710             -0.1303938              0.0745976
      1.1903377             -0.1307889              0.3078467
      0.3594117              1.1309444              0.7434568
SP   1   1.00
      0.1267512              1.0000000              1.0000000
D    1   1.00
      0.8020000              1.0000000
D    1   1.00
      0.2005000              1.0000000
F    1   1.00
      0.5000000              1.0000000
****
C     0
S    6   1.00
   3047.5249000              0.0018347
    457.3695100              0.0140373
    103.9486900              0.0688426
     29.2101550              0.2321844
      9.2866630              0.4679413
      3.1639270              0.3623120
SP   3   1.00
      7.8682724             -0.1193324              0.0689991
      1.8812885             -0.1608542              0.3164240
      0.5442493              1.1434564              0.7443083
SP   1   1.00
      0.1687144              1.0000000              1.0000000
D    1   1.00
      1.2520000              1.0000000
D    1   1.00
      0.3130000              1.0000000
F    1   1.00
      0.8000000              1.0000000
****
N     0
S    6   1.00
   4173.5110000              0.0018348
    627.4579000              0.0139950
    142.9021000              0.0685870
     40.2343300              0.2322410
     12.8202100              0.4690700
      4.3904370              0.3604550
SP   3   1.00
     11.6263580             -0.1149610              0.0675800
      2.7162800             -0.1691180              0.3239070
      0.7722180              1.1458520              0.7408950
SP   1   1.00
      0.2120313              1.0000000              1.0000000
D    1   1.00
      1.8260000              1.0000000
D    1   1.00
      0.4565000              1.0000000
F    1   1.00
      1.0000000              1.0000000
****
O     0
S    6   1.00
   5484.6717000              0.0018311
    825.2349500              0.0139501
    188.0469600              0.0684451
     52.9645000              0.2327143
     16.8975700              0.4701930
      5.7996353              0.3585209
SP   3   1.00
     15.5396160             -0.1107775              0.0708743
      3.5999336             -0.1480263              0.3397528
      1.0137618              1.1307670              0.7271586
SP   1   1.00
      0.2700058              1.0000000              1.0000000
D    1   1.00
      2.5840000              1.0000000
D    1   1.00
      0.6460000              1.0000000
F    1   1.00
      1.4000000              1.0000000
****
F     0
S    6   1.00
   7001.7130900              0.0018196169
   1051.3660900              0.0139160796
    239.2856900              0.0684053245
     67.3974453              0.233185760
     21.5199573              0.471267439
      7.40310130             0.356618546
SP   3   1.00
     20.8479528             -0.108506975            0.0716287243
      4.80830834            -0.146451658            0.3459121030
      1.34406986             1.128688580            0.7224699570
SP   1   1.00
      0.358151393            1.0000000              1.0000000
D    1   1.00
      3.5000000              1.0000000
D    1   1.00
      0.8750000              1.0000000
F    1   1.00
      1.8500000              1.0000000
****
Al     0
S    6   1.00
  13983.1000000              0.00194267
   2098.7500000              0.0148599
    477.7050000              0.0728494
    134.3600000              0.2468300
     42.8709000              0.4872580
     14.5189000              0.3234960
SP   6   1.00
    239.6680000             -0.00292619             0.00460285
     57.4419000             -0.0374080              0.0331990
     18.2859000             -0.1144870              0.1362820
      6.5991400              0.1156350              0.3304760
      2.4904900              0.6125950              0.4491460
      0.9445400              0.3937990              0.2657040
SP   3   1.00
      1.2779000             -0.2276060             -0.0175130
      0.3975900              0.00144583             0.2445330
      0.1600950              1.0927900              0.8049340
SP   1   1.00
      0.0556577              1.0000000              1.0000000
D    1   1.00
      0.6500000              1.0000000
D    1   1.00
      0.1625000              1.0000000
F    1   1.00
      0.2500000              1.0000000
****
Si     0
S    6   1.00
  16115.9000000              0.00195948
   2425.5800000              0.01492880
    553.8670000              0.07284780
    156.3400000              0.24613000
     50.0683000              0.48591400
     17.0178000              0.32500200
SP   6   1.00
    292.7180000             -0.00278094             0.00443826
     69.8731000             -0.03571460             0.03266790
     22.3363000             -0.11498500             0.13472100
      8.1503900              0.09356340             0.32867800
      3.1345800              0.60301700             0.44964000
      1.2254300              0.41895900             0.26137200
SP   3   1.00
      1.7273800             -0.24463000            -0.01779510
      0.5729220              0.00431572             0.25353900
      0.2221920              1.09818000             0.80066900
SP   1   1.00
      0.0778369              1.00000000             1.00000000
D    1   1.00
      0.9000000              1.0000000
D    1   1.00
      0.2250000              1.0000000
F    1   1.00
      0.3200000              1.0000000
****
P     0
S    6   1.00
  19413.3000000              0.0018516
   2909.4200000              0.0142062
    661.3640000              0.0699995
    185.7590000              0.2400790
     59.1943000              0.4847620
     20.0310000              0.3352000
SP   6   1.00
    339.4780000             -0.00278217             0.00456462
     81.0101000             -0.0360499              0.03369360
     25.8780000             -0.1166310              0.13975500
      9.4522100              0.0968328              0.33936200
      3.6656600              0.6144180              0.45092100
      1.4674600              0.4037980              0.23858600
SP   3   1.00
      2.1562300             -0.2529230             -0.01776530
      0.7489970              0.0328517              0.27405800
      0.2831450              1.0812500              0.78542100
SP   1   1.00
      0.0998317              1.0000000              1.00000000
D    1   1.00
      1.1000000              1.0000000
D    1   1.00
      0.2750000              1.0000000
F    1   1.00
      0.4500000              1.0000000
****
S     0
S    6   1.00
  21917.1000000              0.0018690
   3301.4900000              0.0142300
    754.1460000              0.0696960
    212.7110000              0.2384870
     67.9896000              0.4833070
     23.0515000              0.3380740
SP   6   1.00
    423.7350000             -0.0023767              0.0040610
    100.7100000             -0.0316930              0.0306810
     32.1599000             -0.1133170              0.1304520
     11.8079000              0.0560900              0.3272050
      4.6311000              0.5922550              0.4528510
      1.8702500              0.4550060              0.2560420
SP   3   1.00
      2.6158400             -0.2503740             -0.0145110
      0.9221670              0.0669570              0.3102630
      0.3412870              1.0545100              0.7544830
SP   1   1.00
      0.1171670              1.0000000              1.0000000
D    1   1.00
      1.3000000              1.0000000
D    1   1.00
      0.3250000              1.0000000
F    1   1.00
      0.5500000              1.0000000
****
Cl     0
S    6   1.00
  25180.1000000              0.0018330
   3780.3500000              0.0140340
    860.4740000              0.0690970
    242.1450000              0.2374520
     77.3349000              0.4830340
     26.2470000              0.3398560
SP   6   1.00
    491.7650000             -0.0022974              0.0039894
    116.9840000             -0.0307140              0.0303180
     37.4153000             -0.1125280              0.1298800
     13.7834000              0.0450160              0.3279510
      5.4521500              0.5893530              0.4535270
      2.2258800              0.4652060              0.2521540
SP   3   1.00
      3.1864900             -0.2518300             -0.0142990
      1.1442700              0.0615890              0.3235720
      0.4203770              1.0601800              0.7435070
SP   1   1.00
      0.1426570              1.0000000              1.0000000
D    1   1.00
      1.5000000              1.0000000
D    1   1.00
      0.3750000              1.0000000
F    1   1.00
      0.7000000              1.0000000
****
}

set {
reference uhf
freeze_core true
e_convergence 10
d_convergence 10
dft_spherical_points 1202
dft_radial_points 99
}

e = energy('b3lyp')

print_out('Grab this energy {0}'.format(e))
--------------------------------------------------------------------------

    Molecular point group: cs

    Geometry (in Bohr), charge = 0, multiplicity = 2:

       Center              X                  Y                   Z               Mass
    ------------   -----------------  -----------------  -----------------  -----------------
         C           -0.323340348727    -0.000208056782     0.000000000000    12.000000000000
         C            0.060584238873    -1.400757124282    -2.426498619700    12.000000000000
         C            0.062132349473     2.801675944618     0.000000000000    12.000000000000
         C            0.060584238873    -1.400757124282     2.426498619700    12.000000000000
         H            2.085312864373    -1.641144698482    -2.845605677600     1.007825032230
         H           -0.767058456427    -0.390010533582    -4.027767372400     1.007825032230
         H           -0.765554630427    -3.292657631182    -2.349090946100     1.007825032230
         H            2.090034437473     3.294244944718     0.000000000000     1.007825032230
         H           -0.764003700627     3.676966395518     1.676384663000     1.007825032230
         H           -0.764003700627     3.676966395518    -1.676384663000     1.007825032230
         H            2.085312864373    -1.641144698482     2.845605677600     1.007825032230
         H           -0.765554630427    -3.292657631182     2.349090946100     1.007825032230
         H           -0.767058456427    -0.390010533582     4.027767372400     1.007825032230

  Charge       = 0
  Multiplicity = 2
  Basis Set: ANONYMOUS2CFD11D6
    Blend: 6-31G_2DFP_
  Basis Set: (ANONYMOUS2CFD11D6 AUX)
    Blend: DEF2-UNIVERSAL-JKFIT

    Orbital Energies [Eh]
    ---------------------

    Alpha Occupied:

       1Ap   -10.180342     1App  -10.167047     2Ap   -10.167027
       3Ap   -10.166971     4Ap    -0.797766     2App   -0.686216
       5Ap    -0.686158     6Ap    -0.530775     7Ap    -0.441125
       3App   -0.434759     8Ap    -0.434584     4App   -0.382823
       9Ap    -0.382373     5App   -0.363611     6App   -0.338152
      10Ap    -0.337846    11Ap    -0.168961

    Alpha Virtual:

      12Ap     0.076073    13Ap     0.134106     7App    0.134205
      14Ap     0.142422     8App    0.142834    15Ap     0.154880
      16Ap     0.178639     9App    0.178914    17Ap     0.203550
      10App    0.214802    18Ap     0.275965    11App    0.276005
      12App    0.399105    19Ap     0.399351    20Ap     0.403344
      13App    0.423995    21Ap     0.424200    22Ap     0.456594
      14App    0.495379    23Ap     0.495399    15App    0.512161
      24Ap     0.513981    16App    0.578692    25Ap     0.578931
      26Ap     0.591358    17App    0.591892    27Ap     0.602601
      28Ap     0.624763    18App    0.631750    29Ap     0.636029
      19App    0.636490    20App    0.663372    30Ap     0.663453
      21App    0.683738    31Ap     0.683965    32Ap     0.734993
      33Ap     0.825348    22App    0.825465    23App    0.853915
      34Ap     0.914707    24App    0.915341    25App    0.944110
      35Ap     0.944614    36Ap     0.961225    26App    0.961381
      37Ap     1.003452    27App    1.127712    38Ap     1.128508
      39Ap     1.142204    28App    1.163115    40Ap     1.163436
      41Ap     1.223325    29App    1.274391    42Ap     1.274577
      43Ap     1.279369    44Ap     1.324290    30App    1.324420
      45Ap     1.355976    31App    1.366049    46Ap     1.366074
      32App    1.392453    47Ap     1.403556    33App    1.404537
      48Ap     1.416772    34App    1.417426    35App    1.427924
      36App    1.491501    49Ap     1.499061    37App    1.542815
      50Ap     1.542855    51Ap     1.573960    38App    1.574945
      52Ap     1.669829    53Ap     1.739305    39App    1.739519
      54Ap     1.768327    40App    1.830967    55Ap     1.831831
      41App    1.971721    56Ap     2.018298    57Ap     2.018966
      42App    2.019133    58Ap     2.052179    43App    2.053096
      59Ap     2.738478    44App    2.738496    60Ap     2.790926
      45App    2.811429    46App    2.889797    61Ap     2.890081
      62Ap     2.894976    63Ap     2.929184    47App    2.929803
      48App    2.958989    49App    2.964211    64Ap     2.964548
      65Ap     3.034003    66Ap     3.070651    50App    3.071920
      51App    3.084351    52App    3.168561    67Ap     3.169008
      68Ap     3.180578    53App    3.285198    69Ap     3.285431
      54App    3.326289    70Ap     3.328041    71Ap     3.375618
      72Ap     3.489105    55App    3.491217    56App    3.514008
      73Ap     3.525336    57App    3.568156    74Ap     3.568481
      58App    3.575288    75Ap     3.665906    59App    3.666848
      76Ap     3.679661    77Ap     3.693462    60App    3.694766
      61App    3.776744    78Ap     3.776847    79Ap     3.789170
      62App    3.912101    80Ap     3.912355    81Ap     4.034450
      82Ap     4.111239    63App    4.111500    83Ap     4.148077
      64App    4.148155    84Ap     4.173246    85Ap     4.202348
      65App    4.202715    86Ap     4.203748    66App    4.210837
      87Ap     4.315759    67App    4.316163    68App    4.358976
      88Ap     4.424370    69App    4.424566    70App    4.443409
      89Ap     4.516168    71App    4.517478    72App    4.578258
      90Ap     4.578301    91Ap     4.617580    92Ap     4.709399
      93Ap     4.774023    73App    4.775175    74App    4.836909
      94Ap     4.962865    95Ap     5.002413    75App    5.003492
      96Ap     5.228065    97Ap     5.246261    76App    5.247358
      77App    5.355462    98Ap     5.355553    78App    5.479345

    Beta Occupied:

       1App  -10.167798     1Ap   -10.167785     2Ap   -10.167741
       3Ap   -10.166520     4Ap    -0.781091     2App   -0.684014
       5Ap    -0.683965     6Ap    -0.511747     3App   -0.431141
       7Ap    -0.430944     8Ap    -0.421823     4App   -0.376914
       9Ap    -0.376451     5App   -0.362595     6App   -0.333264
      10Ap    -0.332981

    Beta Virtual:

      11Ap    -0.025743    12Ap     0.077082    13Ap     0.135003
       7App    0.135087    14Ap     0.144315     8App    0.144682
      15Ap     0.163339    16Ap     0.182306     9App    0.182590
      10App    0.215032    17Ap     0.218932    18Ap     0.282309
      11App    0.282358    12App    0.400278    19Ap     0.400516
      20Ap     0.419791    13App    0.426804    21Ap     0.427013
      22Ap     0.468502    14App    0.497638    23Ap     0.497663
      15App    0.513896    24Ap     0.556326    16App    0.584237
      25Ap     0.584488    26Ap     0.597536    17App    0.598076
      27Ap     0.610019    28Ap     0.628139    18App    0.631916
      29Ap     0.639318    19App    0.639763    20App    0.666927
      30Ap     0.667026    21App    0.686390    31Ap     0.686584
      32Ap     0.757516    33Ap     0.830519    22App    0.830631
      23App    0.855269    34Ap     0.922705    24App    0.923287
      25App    0.945948    35Ap     0.953540    36Ap     0.966546
      26App    0.966672    37Ap     1.008692    27App    1.131785
      38Ap     1.132491    39Ap     1.155576    28App    1.168155
      40Ap     1.168549    41Ap     1.232297    29App    1.280002
      42Ap     1.280163    43Ap     1.285122    44Ap     1.329274
      30App    1.329415    45Ap     1.365379    31App    1.371275
      46Ap     1.371350    32App    1.393511    47Ap     1.407015
      33App    1.408008    48Ap     1.421827    34App    1.422457
      35App    1.428207    36App    1.492550    49Ap     1.509501
      37App    1.547126    50Ap     1.547368    51Ap     1.581742
      38App    1.582903    52Ap     1.674675    53Ap     1.745071
      39App    1.745277    54Ap     1.779106    40App    1.834827
      55Ap     1.835682    41App    1.972581    56Ap     2.025389
      42App    2.025516    57Ap     2.039669    58Ap     2.058884
      43App    2.059823    59Ap     2.746802    44App    2.746844
      45App    2.811841    60Ap     2.816061    46App    2.902461
      61Ap     2.902821    62Ap     2.924654    63Ap     2.931680
      47App    2.932271    48App    2.960056    49App    2.968751
      64Ap     2.969092    65Ap     3.041938    66Ap     3.080518
      50App    3.081874    51App    3.086167    52App    3.184312
      67Ap     3.184765    68Ap     3.188251    53App    3.289960
      69Ap     3.290267    54App    3.330103    70Ap     3.331835
      71Ap     3.383436    72Ap     3.491858    55App    3.493925
      56App    3.512373    73Ap     3.528381    57App    3.574887
      74Ap     3.581607    58App    3.581969    75Ap     3.670675
      59App    3.671576    76Ap     3.692948    77Ap     3.725349
      60App    3.726160    61App    3.781297    78Ap     3.781356
      79Ap     3.817700    62App    3.921912    80Ap     3.922176
      81Ap     4.045338    82Ap     4.118085    63App    4.118287
      83Ap     4.155202    64App    4.155445    84Ap     4.187306
      65App    4.208654    85Ap     4.209146    86Ap     4.210855
      66App    4.215309    87Ap     4.323229    67App    4.323576
      68App    4.362337    88Ap     4.432575    69App    4.432793
      70App    4.446290    89Ap     4.523968    71App    4.525260
      72App    4.588843    90Ap     4.588918    91Ap     4.624772
      92Ap     4.719742    93Ap     4.780948    73App    4.782157
      74App    4.839826    94Ap     4.967660    95Ap     5.006468
      75App    5.007516    96Ap     5.233781    97Ap     5.248046
      76App    5.249140    77App    5.361950    98Ap     5.362026
      78App    5.481667

    Final Occupation by Irrep:
             Ap   App
    DOCC [    10,    6 ]
    SOCC [     1,    0 ]

  @DF-UKS Final Energy:  -157.81306790341242

   => Energetics <=

    Nuclear Repulsion Energy =            125.3945925231893739
    One-Electron Energy =                -458.7488440044544404
    Two-Electron Energy =                 195.8483260850653664
    DFT Exchange-Correlation Energy =     -20.3071425072127205
    Empirical Dispersion Energy =           0.0000000000000000
    VV10 Nonlocal Energy =                  0.0000000000000000
    Total Energy =                       -157.8130679034124171

  UHF NO Occupations:
  HONO-2 :    9 Ap 1.9996009
  HONO-1 :   10 Ap 1.9989805
  HONO-0 :   11 Ap 1.0000000
  LUNO+0 :   12 Ap 0.0010195
  LUNO+1 :   13 Ap 0.0003991
  LUNO+2 :   14 Ap 0.0001977
  LUNO+3 :    7App 0.0001974

Computation Completed

Properties will be evaluated at   0.000000,   0.000000,   0.000000 [a0]

Properties computed using the SCF density matrix

  Nuclear Dipole Moment: [e a0]
     X:     0.8272      Y:     0.0003      Z:     0.0000

  Electronic Dipole Moment: [e a0]
     X:    -0.7493      Y:    -0.0010      Z:     0.0000

  Dipole Moment: [e a0]
     X:     0.0779      Y:    -0.0008      Z:     0.0000     Total:     0.0779

  Dipole Moment: [D]
     X:     0.1980      Y:    -0.0020      Z:     0.0000     Total:     0.1980

*** tstop() called on n079 at Fri Nov  5 15:20:39 2021
Module time:
	user time   =     499.24 seconds =       8.32 minutes
	system time =       4.68 seconds =       0.08 minutes
	total time  =        127 seconds =       2.12 minutes
Total time:
	user time   =     499.24 seconds =       8.32 minutes
	system time =       4.68 seconds =       0.08 minutes
	total time  =        127 seconds =       2.12 minutes
Grab this energy -157.81306790341242
    Psi4 stopped on: Friday, 05 November 2021 03:20PM
    Psi4 wall time for execution: 0:02:06.72

*** Psi4 exiting successfully. Buy a developer a beer!
