                               Psi4 1.4a2.dev629

  ==> Input File <==

--------------------------------------------------------------------------
import os
memory 14 GB

molecule {
 C   -0.3233403360   -0.0002584113   -0.0004938758
 C    0.0602000599   -1.4006575950   -2.4273694871
 C    0.0630714452    2.8017508644   -0.0000407824
 C    0.0600302562   -1.3999488919    2.4260640021
 H    2.0834185937   -1.6444996631   -2.8477008928
 H   -0.7633651016   -0.3911012594   -4.0230631070
 H   -0.7632035776   -3.2892058753   -2.3503274011
 H    2.0865978737    3.2881086115    0.0000285191
 H   -0.7661998761    3.6807318938    1.6766166515
 H   -0.7663791771    3.6797422564   -1.6759617468
 H    2.0906598247   -1.6440455305    2.8469678235
 H   -0.7670572474   -3.2951896237    2.3473414307
 H   -0.7670406143   -0.3854510894    4.0279388662
units bohr
0 2
}

basis {

assign 6-31g_2dfp_

[ 6-31g_2dfp_ ]

spherical

!----------------------------------------------------------------------
! Basis Set Exchange
! Version v0.8.13
! https://www.basissetexchange.org
!----------------------------------------------------------------------
!   Basis set: 6-31G(2df,p)
! Description: 6-31G(2df,p)
!        Role: orbital
!     Version: 0  (Data from the original Basis Set Exchange)
!----------------------------------------------------------------------

****
H     0
S    3   1.00
     18.7311370              0.03349460
      2.8253937              0.23472695
      0.6401217              0.81375733
S    1   1.00
      0.1612778              1.00000000
P    1   1.00
      1.5000000              1.0000000
P    1   1.00
      0.3750000              1.0000000
****
B     0
S    6   1.00
   2068.8823000              0.0018663
    310.6495700              0.0142515
     70.6830330              0.0695516
     19.8610800              0.2325729
      6.2993048              0.4670787
      2.1270270              0.3634314
SP   3   1.00
      4.7279710             -0.1303938              0.0745976
      1.1903377             -0.1307889              0.3078467
      0.3594117              1.1309444              0.7434568
SP   1   1.00
      0.1267512              1.0000000              1.0000000
D    1   1.00
      0.8020000              1.0000000
D    1   1.00
      0.2005000              1.0000000
F    1   1.00
      0.5000000              1.0000000
****
C     0
S    6   1.00
   3047.5249000              0.0018347
    457.3695100              0.0140373
    103.9486900              0.0688426
     29.2101550              0.2321844
      9.2866630              0.4679413
      3.1639270              0.3623120
SP   3   1.00
      7.8682724             -0.1193324              0.0689991
      1.8812885             -0.1608542              0.3164240
      0.5442493              1.1434564              0.7443083
SP   1   1.00
      0.1687144              1.0000000              1.0000000
D    1   1.00
      1.2520000              1.0000000
D    1   1.00
      0.3130000              1.0000000
F    1   1.00
      0.8000000              1.0000000
****
N     0
S    6   1.00
   4173.5110000              0.0018348
    627.4579000              0.0139950
    142.9021000              0.0685870
     40.2343300              0.2322410
     12.8202100              0.4690700
      4.3904370              0.3604550
SP   3   1.00
     11.6263580             -0.1149610              0.0675800
      2.7162800             -0.1691180              0.3239070
      0.7722180              1.1458520              0.7408950
SP   1   1.00
      0.2120313              1.0000000              1.0000000
D    1   1.00
      1.8260000              1.0000000
D    1   1.00
      0.4565000              1.0000000
F    1   1.00
      1.0000000              1.0000000
****
O     0
S    6   1.00
   5484.6717000              0.0018311
    825.2349500              0.0139501
    188.0469600              0.0684451
     52.9645000              0.2327143
     16.8975700              0.4701930
      5.7996353              0.3585209
SP   3   1.00
     15.5396160             -0.1107775              0.0708743
      3.5999336             -0.1480263              0.3397528
      1.0137618              1.1307670              0.7271586
SP   1   1.00
      0.2700058              1.0000000              1.0000000
D    1   1.00
      2.5840000              1.0000000
D    1   1.00
      0.6460000              1.0000000
F    1   1.00
      1.4000000              1.0000000
****
F     0
S    6   1.00
   7001.7130900              0.0018196169
   1051.3660900              0.0139160796
    239.2856900              0.0684053245
     67.3974453              0.233185760
     21.5199573              0.471267439
      7.40310130             0.356618546
SP   3   1.00
     20.8479528             -0.108506975            0.0716287243
      4.80830834            -0.146451658            0.3459121030
      1.34406986             1.128688580            0.7224699570
SP   1   1.00
      0.358151393            1.0000000              1.0000000
D    1   1.00
      3.5000000              1.0000000
D    1   1.00
      0.8750000              1.0000000
F    1   1.00
      1.8500000              1.0000000
****
Al     0
S    6   1.00
  13983.1000000              0.00194267
   2098.7500000              0.0148599
    477.7050000              0.0728494
    134.3600000              0.2468300
     42.8709000              0.4872580
     14.5189000              0.3234960
SP   6   1.00
    239.6680000             -0.00292619             0.00460285
     57.4419000             -0.0374080              0.0331990
     18.2859000             -0.1144870              0.1362820
      6.5991400              0.1156350              0.3304760
      2.4904900              0.6125950              0.4491460
      0.9445400              0.3937990              0.2657040
SP   3   1.00
      1.2779000             -0.2276060             -0.0175130
      0.3975900              0.00144583             0.2445330
      0.1600950              1.0927900              0.8049340
SP   1   1.00
      0.0556577              1.0000000              1.0000000
D    1   1.00
      0.6500000              1.0000000
D    1   1.00
      0.1625000              1.0000000
F    1   1.00
      0.2500000              1.0000000
****
Si     0
S    6   1.00
  16115.9000000              0.00195948
   2425.5800000              0.01492880
    553.8670000              0.07284780
    156.3400000              0.24613000
     50.0683000              0.48591400
     17.0178000              0.32500200
SP   6   1.00
    292.7180000             -0.00278094             0.00443826
     69.8731000             -0.03571460             0.03266790
     22.3363000             -0.11498500             0.13472100
      8.1503900              0.09356340             0.32867800
      3.1345800              0.60301700             0.44964000
      1.2254300              0.41895900             0.26137200
SP   3   1.00
      1.7273800             -0.24463000            -0.01779510
      0.5729220              0.00431572             0.25353900
      0.2221920              1.09818000             0.80066900
SP   1   1.00
      0.0778369              1.00000000             1.00000000
D    1   1.00
      0.9000000              1.0000000
D    1   1.00
      0.2250000              1.0000000
F    1   1.00
      0.3200000              1.0000000
****
P     0
S    6   1.00
  19413.3000000              0.0018516
   2909.4200000              0.0142062
    661.3640000              0.0699995
    185.7590000              0.2400790
     59.1943000              0.4847620
     20.0310000              0.3352000
SP   6   1.00
    339.4780000             -0.00278217             0.00456462
     81.0101000             -0.0360499              0.03369360
     25.8780000             -0.1166310              0.13975500
      9.4522100              0.0968328              0.33936200
      3.6656600              0.6144180              0.45092100
      1.4674600              0.4037980              0.23858600
SP   3   1.00
      2.1562300             -0.2529230             -0.01776530
      0.7489970              0.0328517              0.27405800
      0.2831450              1.0812500              0.78542100
SP   1   1.00
      0.0998317              1.0000000              1.00000000
D    1   1.00
      1.1000000              1.0000000
D    1   1.00
      0.2750000              1.0000000
F    1   1.00
      0.4500000              1.0000000
****
S     0
S    6   1.00
  21917.1000000              0.0018690
   3301.4900000              0.0142300
    754.1460000              0.0696960
    212.7110000              0.2384870
     67.9896000              0.4833070
     23.0515000              0.3380740
SP   6   1.00
    423.7350000             -0.0023767              0.0040610
    100.7100000             -0.0316930              0.0306810
     32.1599000             -0.1133170              0.1304520
     11.8079000              0.0560900              0.3272050
      4.6311000              0.5922550              0.4528510
      1.8702500              0.4550060              0.2560420
SP   3   1.00
      2.6158400             -0.2503740             -0.0145110
      0.9221670              0.0669570              0.3102630
      0.3412870              1.0545100              0.7544830
SP   1   1.00
      0.1171670              1.0000000              1.0000000
D    1   1.00
      1.3000000              1.0000000
D    1   1.00
      0.3250000              1.0000000
F    1   1.00
      0.5500000              1.0000000
****
Cl     0
S    6   1.00
  25180.1000000              0.0018330
   3780.3500000              0.0140340
    860.4740000              0.0690970
    242.1450000              0.2374520
     77.3349000              0.4830340
     26.2470000              0.3398560
SP   6   1.00
    491.7650000             -0.0022974              0.0039894
    116.9840000             -0.0307140              0.0303180
     37.4153000             -0.1125280              0.1298800
     13.7834000              0.0450160              0.3279510
      5.4521500              0.5893530              0.4535270
      2.2258800              0.4652060              0.2521540
SP   3   1.00
      3.1864900             -0.2518300             -0.0142990
      1.1442700              0.0615890              0.3235720
      0.4203770              1.0601800              0.7435070
SP   1   1.00
      0.1426570              1.0000000              1.0000000
D    1   1.00
      1.5000000              1.0000000
D    1   1.00
      0.3750000              1.0000000
F    1   1.00
      0.7000000              1.0000000
****
}

set {
reference uhf
freeze_core true
e_convergence 10
d_convergence 10
dft_spherical_points 1202
dft_radial_points 99
}

e = energy('b3lyp')

print_out('Grab this energy {0}'.format(e))
--------------------------------------------------------------------------

    Molecular point group: c1

    Geometry (in Bohr), charge = 0, multiplicity = 2:

       Center              X                  Y                   Z               Mass
    ------------   -----------------  -----------------  -----------------  -----------------
         C           -0.323340607604    -0.000428625411    -0.000139450968    12.000000000000
         C            0.060199788296    -1.400827809111    -2.427015062268    12.000000000000
         C            0.063071173596     2.801580650289     0.000313642432    12.000000000000
         C            0.060029984596    -1.400119106011     2.426418426932    12.000000000000
         H            2.083418322096    -1.644669877211    -2.847346467968     1.007825032230
         H           -0.763365373204    -0.391271473511    -4.022708682168     1.007825032230
         H           -0.763203849204    -3.289376089411    -2.349972976268     1.007825032230
         H            2.086597602096     3.287938397389     0.000382943932     1.007825032230
         H           -0.766200147704     3.680561679689     1.676971076332     1.007825032230
         H           -0.766379448704     3.679572042289    -1.675607321968     1.007825032230
         H            2.090659553096    -1.644215744611     2.847322248332     1.007825032230
         H           -0.767057519004    -3.295359837811     2.347695855532     1.007825032230
         H           -0.767040885904    -0.385621303511     4.028293291032     1.007825032230

  Charge       = 0
  Multiplicity = 2
  Basis Set: ANONYMOUSEED17729
    Blend: 6-31G_2DFP_
  Basis Set: (ANONYMOUSEED17729 AUX)
    Blend: DEF2-UNIVERSAL-JKFIT

    Orbital Energies [Eh]
    ---------------------

    Alpha Occupied:

       1A    -10.180342     2A    -10.167612     3A    -10.166983
       4A    -10.166450     5A     -0.797767     6A     -0.686511
       7A     -0.685864     8A     -0.530775     9A     -0.441127
      10A     -0.434804    11A     -0.434538    12A     -0.382869
      13A     -0.382329    14A     -0.363613    15A     -0.338088
      16A     -0.337907    17A     -0.168961

    Alpha Virtual:

      18A      0.076070    19A      0.134116    20A      0.134180
      21A      0.142515    22A      0.142752    23A      0.154875
      24A      0.178440    25A      0.179121    26A      0.203547
      27A      0.214805    28A      0.275915    29A      0.276056
      30A      0.399048    31A      0.399405    32A      0.403348
      33A      0.423990    34A      0.424203    35A      0.456592
      36A      0.495314    37A      0.495465    38A      0.512162
      39A      0.513978    40A      0.578665    41A      0.578965
      42A      0.591291    43A      0.591955    44A      0.602592
      45A      0.624765    46A      0.631697    47A      0.635870
      48A      0.636706    49A      0.663168    50A      0.663662
      51A      0.683509    52A      0.684211    53A      0.734995
      54A      0.825005    55A      0.825801    56A      0.853917
      57A      0.915000    58A      0.915053    59A      0.944130
      60A      0.944612    61A      0.961032    62A      0.961559
      63A      1.003454    64A      1.127765    65A      1.128453
      66A      1.142219    67A      1.163142    68A      1.163395
      69A      1.223323    70A      1.274261    71A      1.274717
      72A      1.279356    73A      1.323919    74A      1.324786
      75A      1.355973    76A      1.365651    77A      1.366458
      78A      1.392452    79A      1.403636    80A      1.404460
      81A      1.416680    82A      1.417538    83A      1.427915
      84A      1.491491    85A      1.499086    86A      1.542758
      87A      1.542901    88A      1.574129    89A      1.574775
      90A      1.669801    91A      1.738990    92A      1.739813
      93A      1.768335    94A      1.829815    95A      1.833045
      96A      1.971702    97A      2.017879    98A      2.018755
      99A      2.019741   100A      2.052294   101A      2.053039
     102A      2.738036   103A      2.738934   104A      2.790925
     105A      2.811429   106A      2.889547   107A      2.890313
     108A      2.894983   109A      2.929384   110A      2.929608
     111A      2.959007   112A      2.963847   113A      2.964917
     114A      3.034021   115A      3.071010   116A      3.071544
     117A      3.084387   118A      3.168608   119A      3.168954
     120A      3.180594   121A      3.285239   122A      3.285398
     123A      3.327009   124A      3.327316   125A      3.375612
     126A      3.489278   127A      3.491047   128A      3.514019
     129A      3.525340   130A      3.568258   131A      3.568472
     132A      3.575194   133A      3.665548   134A      3.667153
     135A      3.679643   136A      3.693663   137A      3.694627
     138A      3.776229   139A      3.777401   140A      3.789120
     141A      3.911763   142A      3.912666   143A      4.034439
     144A      4.110582   145A      4.112038   146A      4.146074
     147A      4.150077   148A      4.173316   149A      4.200608
     150A      4.203256   151A      4.204847   152A      4.211170
     153A      4.315125   154A      4.316778   155A      4.358958
     156A      4.424110   157A      4.424707   158A      4.443538
     159A      4.515744   160A      4.517912   161A      4.577805
     162A      4.578787   163A      4.617533   164A      4.709479
     165A      4.774069   166A      4.775119   167A      4.836882
     168A      4.962865   169A      5.002242   170A      5.003690
     171A      5.227849   172A      5.243106   173A      5.250488
     174A      5.352555   175A      5.358648   176A      5.479435

    Beta Occupied:

       1A    -10.168374     2A    -10.167741     3A    -10.167211
       4A    -10.166516     5A     -0.781092     6A     -0.684313
       7A     -0.683667     8A     -0.511747     9A     -0.431189
      10A     -0.430898    11A     -0.421823    12A     -0.376966
      13A     -0.376401    14A     -0.362596    15A     -0.333211
      16A     -0.333031

    Beta Virtual:

      17A     -0.025743    18A      0.077080    19A      0.134975
      20A      0.135101    21A      0.144425    22A      0.144582
      23A      0.163334    24A      0.182120    25A      0.182784
      26A      0.215035    27A      0.218929    28A      0.282263
      29A      0.282403    30A      0.400217    31A      0.400578
      32A      0.419791    33A      0.426797    34A      0.427019
      35A      0.468499    36A      0.497576    37A      0.497724
      38A      0.513897    39A      0.556323    40A      0.584211
      41A      0.584518    42A      0.597494    43A      0.598116
      44A      0.610011    45A      0.628140    46A      0.631888
      47A      0.639167    48A      0.639946    49A      0.666732
      50A      0.667226    51A      0.686174    52A      0.686816
      53A      0.757518    54A      0.830147    55A      0.830995
      56A      0.855271    57A      0.922973    58A      0.923022
      59A      0.945967    60A      0.953540    61A      0.966363
      62A      0.966840    63A      1.008694    64A      1.131767
      65A      1.132508    66A      1.155596    67A      1.168231
      68A      1.168454    69A      1.232296    70A      1.279854
      71A      1.280319    72A      1.285108    73A      1.328864
      74A      1.329819    75A      1.365381    76A      1.370903
      77A      1.371699    78A      1.393512    79A      1.407081
      80A      1.407946    81A      1.421707    82A      1.422611
      83A      1.428185    84A      1.492540    85A      1.509528
      86A      1.547132    87A      1.547342    88A      1.582032
      89A      1.582616    90A      1.674646    91A      1.744766
      92A      1.745566    93A      1.779111    94A      1.833699
      95A      1.836872    96A      1.972566    97A      2.024785
      98A      2.026082    99A      2.039679   100A      2.059025
     101A      2.059741   102A      2.746358   103A      2.747284
     104A      2.811841   105A      2.816061   106A      2.902305
     107A      2.902961   108A      2.924658   109A      2.931911
     110A      2.932044   111A      2.960071   112A      2.968355
     113A      2.969498   114A      3.041955   115A      3.080829
     116A      3.081503   117A      3.086247   118A      3.184337
     119A      3.184698   120A      3.188303   121A      3.290016
     122A      3.290218   123A      3.330804   124A      3.331129
     125A      3.383430   126A      3.492038   127A      3.493747
     128A      3.512383   129A      3.528385   130A      3.574949
     131A      3.581674   132A      3.581839   133A      3.670274
     134A      3.671930   135A      3.692967   136A      3.725266
     137A      3.726251   138A      3.780787   139A      3.781897
     140A      3.817666   141A      3.921590   142A      3.922473
     143A      4.045320   144A      4.117608   145A      4.118621
     146A      4.153506   147A      4.157096   148A      4.187369
     149A      4.207273   150A      4.209333   151A      4.211942
     152A      4.215655   153A      4.322649   154A      4.324127
     155A      4.362326   156A      4.432327   157A      4.432873
     158A      4.446469   159A      4.523550   160A      4.525688
     161A      4.588455   162A      4.589339   163A      4.624724
     164A      4.719823   165A      4.781032   166A      4.782061
     167A      4.839799   168A      4.967661   169A      5.006304
     170A      5.007705   171A      5.233559   172A      5.244897
     173A      5.252276   174A      5.359049   175A      5.365111
     176A      5.481756

    Final Occupation by Irrep:
              A
    DOCC [    16 ]
    SOCC [     1 ]

  @DF-UKS Final Energy:  -157.81305601391028

   => Energetics <=

    Nuclear Repulsion Energy =            125.3946568230584830
    One-Electron Energy =                -458.7489409199662305
    Two-Electron Energy =                 195.8483755054477058
    DFT Exchange-Correlation Energy =     -20.3071474224502495
    Empirical Dispersion Energy =           0.0000000000000000
    VV10 Nonlocal Energy =                  0.0000000000000000
    Total Energy =                       -157.8130560139102840

  UHF NO Occupations:
  HONO-2 :   15  A 1.9996008
  HONO-1 :   16  A 1.9989805
  HONO-0 :   17  A 1.0000000
  LUNO+0 :   18  A 0.0010195
  LUNO+1 :   19  A 0.0003992
  LUNO+2 :   20  A 0.0001977
  LUNO+3 :   21  A 0.0001974

Computation Completed

Properties will be evaluated at   0.000000,   0.000000,   0.000000 [a0]

Properties computed using the SCF density matrix

  Nuclear Dipole Moment: [e a0]
     X:     0.8272      Y:    -0.0012      Z:     0.0025

  Electronic Dipole Moment: [e a0]
     X:    -0.7493      Y:     0.0011      Z:    -0.0049

  Dipole Moment: [e a0]
     X:     0.0779      Y:    -0.0001      Z:    -0.0024     Total:     0.0779

  Dipole Moment: [D]
     X:     0.1980      Y:    -0.0003      Z:    -0.0062     Total:     0.1981

*** tstop() called on n056 at Fri Nov  5 12:34:05 2021
Module time:
	user time   =     538.53 seconds =       8.98 minutes
	system time =      11.95 seconds =       0.20 minutes
	total time  =        138 seconds =       2.30 minutes
Total time:
	user time   =     538.53 seconds =       8.98 minutes
	system time =      11.95 seconds =       0.20 minutes
	total time  =        138 seconds =       2.30 minutes
Grab this energy -157.81305601391028
    Psi4 stopped on: Friday, 05 November 2021 12:34PM
    Psi4 wall time for execution: 0:02:18.43

*** Psi4 exiting successfully. Buy a developer a beer!
