                               Psi4 1.4a2.dev629

  ==> Input File <==

--------------------------------------------------------------------------
import os
memory 14 GB

molecule {
 C   -0.3236401209    0.0002443922   -0.0000000000
 C    0.0618358173   -1.4036809581   -2.4309780580
 C    0.0600468393    2.8073283654    0.0000000000
 C    0.0618358173   -1.4036809581    2.4309780580
 H    2.0888482791   -1.6503120325   -2.8549900554
 H   -0.7639137432   -0.3890627533   -4.0285853346
 H   -0.7657476666   -3.2946365739   -2.3538918500
 H    2.0838403494    3.2886058976    0.0000000000
 H   -0.7674501589    3.6895908333    1.6769948333
 H   -0.7674501589    3.6895908333   -1.6769948333
 H    2.0888482791   -1.6503120325    2.8549900554
 H   -0.7657476666   -3.2946365739    2.3538918500
 H   -0.7639137432   -0.3890627533    4.0285853346
units bohr
0 2
}

basis {

assign 6-31g_2dfp_

[ 6-31g_2dfp_ ]

spherical

!----------------------------------------------------------------------
! Basis Set Exchange
! Version v0.8.13
! https://www.basissetexchange.org
!----------------------------------------------------------------------
!   Basis set: 6-31G(2df,p)
! Description: 6-31G(2df,p)
!        Role: orbital
!     Version: 0  (Data from the original Basis Set Exchange)
!----------------------------------------------------------------------

****
H     0
S    3   1.00
     18.7311370              0.03349460
      2.8253937              0.23472695
      0.6401217              0.81375733
S    1   1.00
      0.1612778              1.00000000
P    1   1.00
      1.5000000              1.0000000
P    1   1.00
      0.3750000              1.0000000
****
B     0
S    6   1.00
   2068.8823000              0.0018663
    310.6495700              0.0142515
     70.6830330              0.0695516
     19.8610800              0.2325729
      6.2993048              0.4670787
      2.1270270              0.3634314
SP   3   1.00
      4.7279710             -0.1303938              0.0745976
      1.1903377             -0.1307889              0.3078467
      0.3594117              1.1309444              0.7434568
SP   1   1.00
      0.1267512              1.0000000              1.0000000
D    1   1.00
      0.8020000              1.0000000
D    1   1.00
      0.2005000              1.0000000
F    1   1.00
      0.5000000              1.0000000
****
C     0
S    6   1.00
   3047.5249000              0.0018347
    457.3695100              0.0140373
    103.9486900              0.0688426
     29.2101550              0.2321844
      9.2866630              0.4679413
      3.1639270              0.3623120
SP   3   1.00
      7.8682724             -0.1193324              0.0689991
      1.8812885             -0.1608542              0.3164240
      0.5442493              1.1434564              0.7443083
SP   1   1.00
      0.1687144              1.0000000              1.0000000
D    1   1.00
      1.2520000              1.0000000
D    1   1.00
      0.3130000              1.0000000
F    1   1.00
      0.8000000              1.0000000
****
N     0
S    6   1.00
   4173.5110000              0.0018348
    627.4579000              0.0139950
    142.9021000              0.0685870
     40.2343300              0.2322410
     12.8202100              0.4690700
      4.3904370              0.3604550
SP   3   1.00
     11.6263580             -0.1149610              0.0675800
      2.7162800             -0.1691180              0.3239070
      0.7722180              1.1458520              0.7408950
SP   1   1.00
      0.2120313              1.0000000              1.0000000
D    1   1.00
      1.8260000              1.0000000
D    1   1.00
      0.4565000              1.0000000
F    1   1.00
      1.0000000              1.0000000
****
O     0
S    6   1.00
   5484.6717000              0.0018311
    825.2349500              0.0139501
    188.0469600              0.0684451
     52.9645000              0.2327143
     16.8975700              0.4701930
      5.7996353              0.3585209
SP   3   1.00
     15.5396160             -0.1107775              0.0708743
      3.5999336             -0.1480263              0.3397528
      1.0137618              1.1307670              0.7271586
SP   1   1.00
      0.2700058              1.0000000              1.0000000
D    1   1.00
      2.5840000              1.0000000
D    1   1.00
      0.6460000              1.0000000
F    1   1.00
      1.4000000              1.0000000
****
F     0
S    6   1.00
   7001.7130900              0.0018196169
   1051.3660900              0.0139160796
    239.2856900              0.0684053245
     67.3974453              0.233185760
     21.5199573              0.471267439
      7.40310130             0.356618546
SP   3   1.00
     20.8479528             -0.108506975            0.0716287243
      4.80830834            -0.146451658            0.3459121030
      1.34406986             1.128688580            0.7224699570
SP   1   1.00
      0.358151393            1.0000000              1.0000000
D    1   1.00
      3.5000000              1.0000000
D    1   1.00
      0.8750000              1.0000000
F    1   1.00
      1.8500000              1.0000000
****
Al     0
S    6   1.00
  13983.1000000              0.00194267
   2098.7500000              0.0148599
    477.7050000              0.0728494
    134.3600000              0.2468300
     42.8709000              0.4872580
     14.5189000              0.3234960
SP   6   1.00
    239.6680000             -0.00292619             0.00460285
     57.4419000             -0.0374080              0.0331990
     18.2859000             -0.1144870              0.1362820
      6.5991400              0.1156350              0.3304760
      2.4904900              0.6125950              0.4491460
      0.9445400              0.3937990              0.2657040
SP   3   1.00
      1.2779000             -0.2276060             -0.0175130
      0.3975900              0.00144583             0.2445330
      0.1600950              1.0927900              0.8049340
SP   1   1.00
      0.0556577              1.0000000              1.0000000
D    1   1.00
      0.6500000              1.0000000
D    1   1.00
      0.1625000              1.0000000
F    1   1.00
      0.2500000              1.0000000
****
Si     0
S    6   1.00
  16115.9000000              0.00195948
   2425.5800000              0.01492880
    553.8670000              0.07284780
    156.3400000              0.24613000
     50.0683000              0.48591400
     17.0178000              0.32500200
SP   6   1.00
    292.7180000             -0.00278094             0.00443826
     69.8731000             -0.03571460             0.03266790
     22.3363000             -0.11498500             0.13472100
      8.1503900              0.09356340             0.32867800
      3.1345800              0.60301700             0.44964000
      1.2254300              0.41895900             0.26137200
SP   3   1.00
      1.7273800             -0.24463000            -0.01779510
      0.5729220              0.00431572             0.25353900
      0.2221920              1.09818000             0.80066900
SP   1   1.00
      0.0778369              1.00000000             1.00000000
D    1   1.00
      0.9000000              1.0000000
D    1   1.00
      0.2250000              1.0000000
F    1   1.00
      0.3200000              1.0000000
****
P     0
S    6   1.00
  19413.3000000              0.0018516
   2909.4200000              0.0142062
    661.3640000              0.0699995
    185.7590000              0.2400790
     59.1943000              0.4847620
     20.0310000              0.3352000
SP   6   1.00
    339.4780000             -0.00278217             0.00456462
     81.0101000             -0.0360499              0.03369360
     25.8780000             -0.1166310              0.13975500
      9.4522100              0.0968328              0.33936200
      3.6656600              0.6144180              0.45092100
      1.4674600              0.4037980              0.23858600
SP   3   1.00
      2.1562300             -0.2529230             -0.01776530
      0.7489970              0.0328517              0.27405800
      0.2831450              1.0812500              0.78542100
SP   1   1.00
      0.0998317              1.0000000              1.00000000
D    1   1.00
      1.1000000              1.0000000
D    1   1.00
      0.2750000              1.0000000
F    1   1.00
      0.4500000              1.0000000
****
S     0
S    6   1.00
  21917.1000000              0.0018690
   3301.4900000              0.0142300
    754.1460000              0.0696960
    212.7110000              0.2384870
     67.9896000              0.4833070
     23.0515000              0.3380740
SP   6   1.00
    423.7350000             -0.0023767              0.0040610
    100.7100000             -0.0316930              0.0306810
     32.1599000             -0.1133170              0.1304520
     11.8079000              0.0560900              0.3272050
      4.6311000              0.5922550              0.4528510
      1.8702500              0.4550060              0.2560420
SP   3   1.00
      2.6158400             -0.2503740             -0.0145110
      0.9221670              0.0669570              0.3102630
      0.3412870              1.0545100              0.7544830
SP   1   1.00
      0.1171670              1.0000000              1.0000000
D    1   1.00
      1.3000000              1.0000000
D    1   1.00
      0.3250000              1.0000000
F    1   1.00
      0.5500000              1.0000000
****
Cl     0
S    6   1.00
  25180.1000000              0.0018330
   3780.3500000              0.0140340
    860.4740000              0.0690970
    242.1450000              0.2374520
     77.3349000              0.4830340
     26.2470000              0.3398560
SP   6   1.00
    491.7650000             -0.0022974              0.0039894
    116.9840000             -0.0307140              0.0303180
     37.4153000             -0.1125280              0.1298800
     13.7834000              0.0450160              0.3279510
      5.4521500              0.5893530              0.4535270
      2.2258800              0.4652060              0.2521540
SP   3   1.00
      3.1864900             -0.2518300             -0.0142990
      1.1442700              0.0615890              0.3235720
      0.4203770              1.0601800              0.7435070
SP   1   1.00
      0.1426570              1.0000000              1.0000000
D    1   1.00
      1.5000000              1.0000000
D    1   1.00
      0.3750000              1.0000000
F    1   1.00
      0.7000000              1.0000000
****
}

set {
reference uhf
freeze_core true
e_convergence 10
d_convergence 10
dft_spherical_points 1202
dft_radial_points 99
}

e = energy('b3lyp')

print_out('Grab this energy {0}'.format(e))
--------------------------------------------------------------------------

    Molecular point group: cs

    Geometry (in Bohr), charge = 0, multiplicity = 2:

       Center              X                  Y                   Z               Mass
    ------------   -----------------  -----------------  -----------------  -----------------
         C           -0.323662913619     0.000204211993     0.000000000000    12.000000000000
         C            0.061813024581    -1.403721138307    -2.430978058000    12.000000000000
         C            0.060024046581     2.807288185193     0.000000000000    12.000000000000
         C            0.061813024581    -1.403721138307     2.430978058000    12.000000000000
         H            2.088825486381    -1.650352212707    -2.854990055400     1.007825032230
         H           -0.763936535919    -0.389102933507    -4.028585334600     1.007825032230
         H           -0.765770459319    -3.294676754107    -2.353891850000     1.007825032230
         H            2.083817556681     3.288565717393     0.000000000000     1.007825032230
         H           -0.767472951619     3.689550653093     1.676994833300     1.007825032230
         H           -0.767472951619     3.689550653093    -1.676994833300     1.007825032230
         H            2.088825486381    -1.650352212707     2.854990055400     1.007825032230
         H           -0.765770459319    -3.294676754107     2.353891850000     1.007825032230
         H           -0.763936535919    -0.389102933507     4.028585334600     1.007825032230

  Charge       = 0
  Multiplicity = 2
  Basis Set: ANONYMOUS4BC60B77
    Blend: 6-31G_2DFP_
  Basis Set: (ANONYMOUS4BC60B77 AUX)
    Blend: DEF2-UNIVERSAL-JKFIT

    Orbital Energies [Eh]
    ---------------------

    Alpha Occupied:

       1Ap   -10.181113     2Ap   -10.167416     1App  -10.167375
       3Ap   -10.167338     4Ap    -0.796721     5Ap    -0.685918
       2App   -0.685858     6Ap    -0.530778     7Ap    -0.440532
       8Ap    -0.434278     3App   -0.434107     9Ap    -0.382748
       4App   -0.382299     5App   -0.363728    10Ap    -0.337964
       6App   -0.337658    11Ap    -0.169286

    Alpha Virtual:

      12Ap     0.076102     7App    0.134067    13Ap     0.134161
       8App    0.142219    14Ap     0.142632    15Ap     0.154819
       9App    0.178468    16Ap     0.178735    17Ap     0.202441
      10App    0.214457    11App    0.275431    18Ap     0.275476
      19Ap     0.399122    12App    0.399374    20Ap     0.403548
      21Ap     0.424276    13App    0.424490    22Ap     0.456032
      23Ap     0.495150    14App    0.495177    15App    0.511828
      24Ap     0.513572    25Ap     0.577973    16App    0.578257
      17App    0.590832    26Ap     0.591327    27Ap     0.602155
      28Ap     0.624356    18App    0.631391    19App    0.635259
      29Ap     0.635674    30Ap     0.662894    20App    0.662971
      31Ap     0.683297    21App    0.683525    32Ap     0.735193
      22App    0.825501    33Ap     0.825620    23App    0.852910
      24App    0.913980    34Ap     0.914618    25App    0.942785
      35Ap     0.945183    26App    0.960271    36Ap     0.960423
      37Ap     1.002333    38Ap     1.126804    27App    1.127631
      39Ap     1.141864    40Ap     1.162336    28App    1.162657
      41Ap     1.222436    42Ap     1.273469    29App    1.273686
      43Ap     1.278850    30App    1.323942    44Ap     1.324094
      45Ap     1.355803    31App    1.364235    46Ap     1.364243
      32App    1.390934    33App    1.403803    47Ap     1.404828
      34App    1.416410    48Ap     1.417085    35App    1.426497
      36App    1.490306    49Ap     1.498490    37App    1.542081
      50Ap     1.542113    38App    1.572813    51Ap     1.573763
      52Ap     1.669901    39App    1.738700    53Ap     1.738852
      54Ap     1.766819    55Ap     1.829778    40App    1.830622
      41App    1.970352    56Ap     2.016011    42App    2.017861
      57Ap     2.018011    43App    2.047719    58Ap     2.048656
      44App    2.737867    59Ap     2.737901    60Ap     2.789764
      45App    2.808706    61Ap     2.888592    46App    2.888951
      62Ap     2.893454    47App    2.929019    63Ap     2.929633
      48App    2.958753    64Ap     2.964488    49App    2.964875
      65Ap     3.034032    50App    3.069703    66Ap     3.070992
      51App    3.082782    67Ap     3.167701    52App    3.168171
      68Ap     3.178726    69Ap     3.284669    53App    3.284908
      70Ap     3.325859    54App    3.327636    71Ap     3.376974
      55App    3.487280    72Ap     3.489434    56App    3.513225
      73Ap     3.522985    57App    3.568327    74Ap     3.568395
      58App    3.573244    59App    3.665999    75Ap     3.666832
      76Ap     3.677744    60App    3.692034    77Ap     3.693343
      78Ap     3.772263    61App    3.772404    79Ap     3.788465
      80Ap     3.910010    62App    3.910273    81Ap     4.032613
      63App    4.108337    82Ap     4.108608    64App    4.147414
      83Ap     4.147422    84Ap     4.172033    85Ap     4.200102
      65App    4.201096    86Ap     4.201537    66App    4.209225
      67App    4.314243    87Ap     4.314609    68App    4.356485
      69App    4.422349    88Ap     4.422480    70App    4.440995
      71App    4.513242    89Ap     4.514457    90Ap     4.574700
      72App    4.574755    91Ap     4.610292    92Ap     4.704633
      73App    4.767557    93Ap     4.768794    74App    4.832955
      94Ap     4.959849    75App    5.000794    95Ap     5.001887
      96Ap     5.227052    76App    5.244855    97Ap     5.245947
      98Ap     5.352866    77App    5.352957    78App    5.473646

    Beta Occupied:

       1Ap   -10.168167     1App  -10.168127     2Ap   -10.168114
       3Ap   -10.167260     4Ap    -0.780069     5Ap    -0.683735
       2App   -0.683686     6Ap    -0.511648     7Ap    -0.430680
       3App   -0.430485     8Ap    -0.421327     9Ap    -0.376876
       4App   -0.376415     5App   -0.362724    10Ap    -0.333071
       6App   -0.332788

    Beta Virtual:

      11Ap    -0.025775    12Ap     0.077100     7App    0.134971
      13Ap     0.135051     8App    0.144083    14Ap     0.144452
      15Ap     0.163234     9App    0.182108    16Ap     0.182385
      10App    0.214680    17Ap     0.218002    11App    0.281843
      18Ap     0.281899    19Ap     0.400263    12App    0.400507
      20Ap     0.420091    21Ap     0.427095    13App    0.427311
      22Ap     0.467585    23Ap     0.497397    14App    0.497424
      15App    0.513547    24Ap     0.555987    25Ap     0.583514
      16App    0.583806    17App    0.597067    26Ap     0.597573
      27Ap     0.609536    28Ap     0.627673    18App    0.631550
      19App    0.638460    29Ap     0.638887    30Ap     0.666489
      20App    0.666584    31Ap     0.685870    21App    0.686066
      32Ap     0.757894    22App    0.830656    33Ap     0.830769
      23App    0.854227    24App    0.921964    34Ap     0.922552
      25App    0.944620    35Ap     0.954199    26App    0.965563
      36Ap     0.965693    37Ap     1.007651    38Ap     1.130878
      27App    1.131614    39Ap     1.155223    40Ap     1.167381
      28App    1.167760    41Ap     1.231267    42Ap     1.279043
      29App    1.279232    43Ap     1.284668    30App    1.328929
      44Ap     1.329091    45Ap     1.365168    46Ap     1.369500
      31App    1.369502    32App    1.391984    33App    1.407298
      47Ap     1.408329    34App    1.421388    48Ap     1.422076
      35App    1.426750    36App    1.491355    49Ap     1.508868
      50Ap     1.546478    37App    1.546653    38App    1.580520
      51Ap     1.581658    52Ap     1.674740    39App    1.744461
      53Ap     1.744610    54Ap     1.777574    55Ap     1.833620
      40App    1.834455    41App    1.971208    42App    2.024275
      56Ap     2.024387    57Ap     2.037314    43App    2.054391
      58Ap     2.055357    44App    2.746285    59Ap     2.746344
      45App    2.809114    60Ap     2.814919    61Ap     2.901497
      46App    2.901883    62Ap     2.923069    47App    2.931349
      63Ap     2.931949    48App    2.959807    64Ap     2.968977
      49App    2.969357    65Ap     3.041879    50App    3.079485
      66Ap     3.080858    51App    3.084581    67Ap     3.183562
      52App    3.184032    68Ap     3.186454    69Ap     3.289255
      53App    3.289569    70Ap     3.329751    54App    3.331503
      71Ap     3.384810    55App    3.490051    72Ap     3.492157
      56App    3.511599    73Ap     3.526082    57App    3.572779
      58App    3.581734    74Ap     3.581932    59App    3.670860
      75Ap     3.671683    76Ap     3.691042    60App    3.724102
      77Ap     3.724913    78Ap     3.776782    61App    3.776861
      79Ap     3.817131    80Ap     3.919813    62App    3.920088
      81Ap     4.043570    63App    4.115451    82Ap     4.115674
      64App    4.154357    83Ap     4.154528    84Ap     4.185978
      85Ap     4.206225    65App    4.207036    86Ap     4.209258
      66App    4.213623    67App    4.321680    87Ap     4.321990
      68App    4.359866    69App    4.430449    88Ap     4.430601
      70App    4.443862    71App    4.520912    89Ap     4.522114
      90Ap     4.585266    72App    4.585352    91Ap     4.617499
      92Ap     4.714895    73App    4.774476    93Ap     4.775776
      74App    4.835873    94Ap     4.964621    75App    5.004809
      95Ap     5.005872    96Ap     5.232729    76App    5.246628
      97Ap     5.247718    98Ap     5.359299    77App    5.359377
      78App    5.475945

    Final Occupation by Irrep:
             Ap   App
    DOCC [    10,    6 ]
    SOCC [     1,    0 ]

  @DF-UKS Final Energy:  -157.81306767377683

   => Energetics <=

    Nuclear Repulsion Energy =            125.2136576352487225
    One-Electron Energy =                -458.3925761892205628
    Two-Electron Energy =                 195.6692020784982446
    DFT Exchange-Correlation Energy =     -20.3033511983032504
    Empirical Dispersion Energy =           0.0000000000000000
    VV10 Nonlocal Energy =                  0.0000000000000000
    Total Energy =                       -157.8130676737768283

  UHF NO Occupations:
  HONO-2 :    9 Ap 1.9996026
  HONO-1 :   10 Ap 1.9989734
  HONO-0 :   11 Ap 1.0000000
  LUNO+0 :   12 Ap 0.0010266
  LUNO+1 :   13 Ap 0.0003974
  LUNO+2 :    7App 0.0001999
  LUNO+3 :   14 Ap 0.0001996

Computation Completed

Properties will be evaluated at   0.000000,   0.000000,   0.000000 [a0]

Properties computed using the SCF density matrix

  Nuclear Dipole Moment: [e a0]
     X:     0.8270      Y:    -0.0003      Z:    -0.0000

  Electronic Dipole Moment: [e a0]
     X:    -0.7483      Y:     0.0011      Z:     0.0000

  Dipole Moment: [e a0]
     X:     0.0788      Y:     0.0008      Z:    -0.0000     Total:     0.0788

  Dipole Moment: [D]
     X:     0.2002      Y:     0.0019      Z:    -0.0000     Total:     0.2002

*** tstop() called on n079 at Fri Nov  5 15:25:08 2021
Module time:
	user time   =     495.51 seconds =       8.26 minutes
	system time =       4.54 seconds =       0.08 minutes
	total time  =        126 seconds =       2.10 minutes
Total time:
	user time   =     495.51 seconds =       8.26 minutes
	system time =       4.54 seconds =       0.08 minutes
	total time  =        126 seconds =       2.10 minutes
Grab this energy -157.81306767377683
    Psi4 stopped on: Friday, 05 November 2021 03:25PM
    Psi4 wall time for execution: 0:02:05.75

*** Psi4 exiting successfully. Buy a developer a beer!
