                               Psi4 1.4a2.dev629

  ==> Input File <==

--------------------------------------------------------------------------
import os
memory 14 GB

molecule {
 C   -0.3233504297   -0.0000033503   -0.0053435706
 C    0.0608288911   -1.3995994411   -2.4252807547
 C    0.0608368218    2.8001164842   -0.0011085876
 C    0.0610849207   -1.4005109327    2.4246423146
 H    2.0870904539   -1.6445180206   -2.8471728585
 H   -0.7656561246   -0.3879999361   -4.0248417820
 H   -0.7649832729   -3.2926125819   -2.3488583763
 H    2.0867435647    3.2885995338    0.0010003567
 H   -0.7646885896    3.6815923670    1.6771254650
 H   -0.7663635330    3.6798737841   -1.6756650972
 H    2.0866769705   -1.6441745157    2.8485785877
 H   -0.7659148160   -3.2916830773    2.3500654873
 H   -0.7649127336   -0.3891046271    4.0268588155
units bohr
0 2
}

basis {

assign 6-31g_2dfp_

[ 6-31g_2dfp_ ]

spherical

!----------------------------------------------------------------------
! Basis Set Exchange
! Version v0.8.13
! https://www.basissetexchange.org
!----------------------------------------------------------------------
!   Basis set: 6-31G(2df,p)
! Description: 6-31G(2df,p)
!        Role: orbital
!     Version: 0  (Data from the original Basis Set Exchange)
!----------------------------------------------------------------------

****
H     0
S    3   1.00
     18.7311370              0.03349460
      2.8253937              0.23472695
      0.6401217              0.81375733
S    1   1.00
      0.1612778              1.00000000
P    1   1.00
      1.5000000              1.0000000
P    1   1.00
      0.3750000              1.0000000
****
B     0
S    6   1.00
   2068.8823000              0.0018663
    310.6495700              0.0142515
     70.6830330              0.0695516
     19.8610800              0.2325729
      6.2993048              0.4670787
      2.1270270              0.3634314
SP   3   1.00
      4.7279710             -0.1303938              0.0745976
      1.1903377             -0.1307889              0.3078467
      0.3594117              1.1309444              0.7434568
SP   1   1.00
      0.1267512              1.0000000              1.0000000
D    1   1.00
      0.8020000              1.0000000
D    1   1.00
      0.2005000              1.0000000
F    1   1.00
      0.5000000              1.0000000
****
C     0
S    6   1.00
   3047.5249000              0.0018347
    457.3695100              0.0140373
    103.9486900              0.0688426
     29.2101550              0.2321844
      9.2866630              0.4679413
      3.1639270              0.3623120
SP   3   1.00
      7.8682724             -0.1193324              0.0689991
      1.8812885             -0.1608542              0.3164240
      0.5442493              1.1434564              0.7443083
SP   1   1.00
      0.1687144              1.0000000              1.0000000
D    1   1.00
      1.2520000              1.0000000
D    1   1.00
      0.3130000              1.0000000
F    1   1.00
      0.8000000              1.0000000
****
N     0
S    6   1.00
   4173.5110000              0.0018348
    627.4579000              0.0139950
    142.9021000              0.0685870
     40.2343300              0.2322410
     12.8202100              0.4690700
      4.3904370              0.3604550
SP   3   1.00
     11.6263580             -0.1149610              0.0675800
      2.7162800             -0.1691180              0.3239070
      0.7722180              1.1458520              0.7408950
SP   1   1.00
      0.2120313              1.0000000              1.0000000
D    1   1.00
      1.8260000              1.0000000
D    1   1.00
      0.4565000              1.0000000
F    1   1.00
      1.0000000              1.0000000
****
O     0
S    6   1.00
   5484.6717000              0.0018311
    825.2349500              0.0139501
    188.0469600              0.0684451
     52.9645000              0.2327143
     16.8975700              0.4701930
      5.7996353              0.3585209
SP   3   1.00
     15.5396160             -0.1107775              0.0708743
      3.5999336             -0.1480263              0.3397528
      1.0137618              1.1307670              0.7271586
SP   1   1.00
      0.2700058              1.0000000              1.0000000
D    1   1.00
      2.5840000              1.0000000
D    1   1.00
      0.6460000              1.0000000
F    1   1.00
      1.4000000              1.0000000
****
F     0
S    6   1.00
   7001.7130900              0.0018196169
   1051.3660900              0.0139160796
    239.2856900              0.0684053245
     67.3974453              0.233185760
     21.5199573              0.471267439
      7.40310130             0.356618546
SP   3   1.00
     20.8479528             -0.108506975            0.0716287243
      4.80830834            -0.146451658            0.3459121030
      1.34406986             1.128688580            0.7224699570
SP   1   1.00
      0.358151393            1.0000000              1.0000000
D    1   1.00
      3.5000000              1.0000000
D    1   1.00
      0.8750000              1.0000000
F    1   1.00
      1.8500000              1.0000000
****
Al     0
S    6   1.00
  13983.1000000              0.00194267
   2098.7500000              0.0148599
    477.7050000              0.0728494
    134.3600000              0.2468300
     42.8709000              0.4872580
     14.5189000              0.3234960
SP   6   1.00
    239.6680000             -0.00292619             0.00460285
     57.4419000             -0.0374080              0.0331990
     18.2859000             -0.1144870              0.1362820
      6.5991400              0.1156350              0.3304760
      2.4904900              0.6125950              0.4491460
      0.9445400              0.3937990              0.2657040
SP   3   1.00
      1.2779000             -0.2276060             -0.0175130
      0.3975900              0.00144583             0.2445330
      0.1600950              1.0927900              0.8049340
SP   1   1.00
      0.0556577              1.0000000              1.0000000
D    1   1.00
      0.6500000              1.0000000
D    1   1.00
      0.1625000              1.0000000
F    1   1.00
      0.2500000              1.0000000
****
Si     0
S    6   1.00
  16115.9000000              0.00195948
   2425.5800000              0.01492880
    553.8670000              0.07284780
    156.3400000              0.24613000
     50.0683000              0.48591400
     17.0178000              0.32500200
SP   6   1.00
    292.7180000             -0.00278094             0.00443826
     69.8731000             -0.03571460             0.03266790
     22.3363000             -0.11498500             0.13472100
      8.1503900              0.09356340             0.32867800
      3.1345800              0.60301700             0.44964000
      1.2254300              0.41895900             0.26137200
SP   3   1.00
      1.7273800             -0.24463000            -0.01779510
      0.5729220              0.00431572             0.25353900
      0.2221920              1.09818000             0.80066900
SP   1   1.00
      0.0778369              1.00000000             1.00000000
D    1   1.00
      0.9000000              1.0000000
D    1   1.00
      0.2250000              1.0000000
F    1   1.00
      0.3200000              1.0000000
****
P     0
S    6   1.00
  19413.3000000              0.0018516
   2909.4200000              0.0142062
    661.3640000              0.0699995
    185.7590000              0.2400790
     59.1943000              0.4847620
     20.0310000              0.3352000
SP   6   1.00
    339.4780000             -0.00278217             0.00456462
     81.0101000             -0.0360499              0.03369360
     25.8780000             -0.1166310              0.13975500
      9.4522100              0.0968328              0.33936200
      3.6656600              0.6144180              0.45092100
      1.4674600              0.4037980              0.23858600
SP   3   1.00
      2.1562300             -0.2529230             -0.01776530
      0.7489970              0.0328517              0.27405800
      0.2831450              1.0812500              0.78542100
SP   1   1.00
      0.0998317              1.0000000              1.00000000
D    1   1.00
      1.1000000              1.0000000
D    1   1.00
      0.2750000              1.0000000
F    1   1.00
      0.4500000              1.0000000
****
S     0
S    6   1.00
  21917.1000000              0.0018690
   3301.4900000              0.0142300
    754.1460000              0.0696960
    212.7110000              0.2384870
     67.9896000              0.4833070
     23.0515000              0.3380740
SP   6   1.00
    423.7350000             -0.0023767              0.0040610
    100.7100000             -0.0316930              0.0306810
     32.1599000             -0.1133170              0.1304520
     11.8079000              0.0560900              0.3272050
      4.6311000              0.5922550              0.4528510
      1.8702500              0.4550060              0.2560420
SP   3   1.00
      2.6158400             -0.2503740             -0.0145110
      0.9221670              0.0669570              0.3102630
      0.3412870              1.0545100              0.7544830
SP   1   1.00
      0.1171670              1.0000000              1.0000000
D    1   1.00
      1.3000000              1.0000000
D    1   1.00
      0.3250000              1.0000000
F    1   1.00
      0.5500000              1.0000000
****
Cl     0
S    6   1.00
  25180.1000000              0.0018330
   3780.3500000              0.0140340
    860.4740000              0.0690970
    242.1450000              0.2374520
     77.3349000              0.4830340
     26.2470000              0.3398560
SP   6   1.00
    491.7650000             -0.0022974              0.0039894
    116.9840000             -0.0307140              0.0303180
     37.4153000             -0.1125280              0.1298800
     13.7834000              0.0450160              0.3279510
      5.4521500              0.5893530              0.4535270
      2.2258800              0.4652060              0.2521540
SP   3   1.00
      3.1864900             -0.2518300             -0.0142990
      1.1442700              0.0615890              0.3235720
      0.4203770              1.0601800              0.7435070
SP   1   1.00
      0.1426570              1.0000000              1.0000000
D    1   1.00
      1.5000000              1.0000000
D    1   1.00
      0.3750000              1.0000000
F    1   1.00
      0.7000000              1.0000000
****
}

set {
reference uhf
freeze_core true
e_convergence 10
d_convergence 10
dft_spherical_points 1202
dft_radial_points 99
}

e = energy('b3lyp')

print_out('Grab this energy {0}'.format(e))
--------------------------------------------------------------------------

    Molecular point group: c1

    Geometry (in Bohr), charge = 0, multiplicity = 2:

       Center              X                  Y                   Z               Mass
    ------------   -----------------  -----------------  -----------------  -----------------
         C           -0.323242606020    -0.000003452552    -0.003977870295    12.000000000000
         C            0.060936714780    -1.399599543352    -2.423915054395    12.000000000000
         C            0.060944645480     2.800116381948     0.000257112705    12.000000000000
         C            0.061192744380    -1.400511034952     2.426008014905    12.000000000000
         H            2.087198277580    -1.644518122852    -2.845807158195     1.007825032230
         H           -0.765548300920    -0.388000038352    -4.023476081695     1.007825032230
         H           -0.764875449220    -3.292612684152    -2.347492675995     1.007825032230
         H            2.086851388380     3.288599431548     0.002366057005     1.007825032230
         H           -0.764580765920     3.681592264748     1.678491165305     1.007825032230
         H           -0.766255709320     3.679873681848    -1.674299396895     1.007825032230
         H            2.086784794180    -1.644174617952     2.849944288005     1.007825032230
         H           -0.765806992320    -3.291683179552     2.351431187605     1.007825032230
         H           -0.764804909920    -0.389104729352     4.028224515805     1.007825032230

  Charge       = 0
  Multiplicity = 2
  Basis Set: ANONYMOUS9861E7A0
    Blend: 6-31G_2DFP_
  Basis Set: (ANONYMOUS9861E7A0 AUX)
    Blend: DEF2-UNIVERSAL-JKFIT

    Orbital Energies [Eh]
    ---------------------

    Alpha Occupied:

       1A    -10.180290     2A    -10.167104     3A    -10.167072
       4A    -10.167026     5A     -0.798026     6A     -0.686385
       7A     -0.686007     8A     -0.530942     9A     -0.441141
      10A     -0.434950    11A     -0.434524    12A     -0.382579
      13A     -0.382346    14A     -0.363407    15A     -0.338677
      16A     -0.337638    17A     -0.168981

    Alpha Virtual:

      18A      0.076064    19A      0.134083    20A      0.134112
      21A      0.142318    22A      0.142669    23A      0.154985
      24A      0.178607    25A      0.178619    26A      0.203833
      27A      0.214679    28A      0.275938    29A      0.276514
      30A      0.399098    31A      0.399348    32A      0.403253
      33A      0.424043    34A      0.424045    35A      0.456774
      36A      0.495331    37A      0.495428    38A      0.512105
      39A      0.513920    40A      0.578580    41A      0.578962
      42A      0.591540    43A      0.591544    44A      0.602531
      45A      0.624632    46A      0.631544    47A      0.636158
      48A      0.636465    49A      0.663461    50A      0.663594
      51A      0.683788    52A      0.683887    53A      0.734862
      54A      0.825320    55A      0.825536    56A      0.854052
      57A      0.914867    58A      0.915093    59A      0.944173
      60A      0.944931    61A      0.961050    62A      0.961402
      63A      1.003284    64A      1.127920    65A      1.128414
      66A      1.142681    67A      1.162272    68A      1.163044
      69A      1.223757    70A      1.274150    71A      1.275089
      72A      1.279514    73A      1.324461    74A      1.324652
      75A      1.356331    76A      1.365930    77A      1.366464
      78A      1.391948    79A      1.403269    80A      1.403386
      81A      1.416774    82A      1.417419    83A      1.427671
      84A      1.492013    85A      1.498496    86A      1.542985
      87A      1.542997    88A      1.574528    89A      1.574568
      90A      1.669039    91A      1.739723    92A      1.740124
      93A      1.768288    94A      1.830706    95A      1.831227
      96A      1.972330    97A      2.018080    98A      2.019218
      99A      2.020372   100A      2.052541   101A      2.053621
     102A      2.738423   103A      2.738900   104A      2.791148
     105A      2.811511   106A      2.889494   107A      2.890620
     108A      2.895344   109A      2.928945   110A      2.929730
     111A      2.958941   112A      2.964194   113A      2.964507
     114A      3.034175   115A      3.070730   116A      3.071748
     117A      3.084754   118A      3.168784   119A      3.168932
     120A      3.181248   121A      3.284679   122A      3.285281
     123A      3.327017   124A      3.327783   125A      3.375506
     126A      3.489707   127A      3.490760   128A      3.514171
     129A      3.525682   130A      3.568398   131A      3.568866
     132A      3.575010   133A      3.665290   134A      3.665890
     135A      3.679091   136A      3.693983   137A      3.694060
     138A      3.776110   139A      3.777582   140A      3.788879
     141A      3.912867   142A      3.913787   143A      4.034996
     144A      4.110763   145A      4.111418   146A      4.147143
     147A      4.149094   148A      4.173941   149A      4.202927
     150A      4.203667   151A      4.204404   152A      4.211233
     153A      4.315286   154A      4.316397   155A      4.358344
     156A      4.423215   157A      4.423339   158A      4.441479
     159A      4.517039   160A      4.517320   161A      4.578629
     162A      4.579056   163A      4.618216   164A      4.710749
     165A      4.774834   166A      4.775961   167A      4.838213
     168A      4.961514   169A      5.001834   170A      5.002373
     171A      5.227516   172A      5.246505   173A      5.246566
     174A      5.355101   175A      5.356228   176A      5.480568

    Beta Occupied:

       1A    -10.167858     2A    -10.167830     3A    -10.167797
       4A    -10.166478     5A     -0.781336     6A     -0.684170
       7A     -0.683816     8A     -0.511959     9A     -0.431304
      10A     -0.430883    11A     -0.421786    12A     -0.376607
      13A     -0.376457    14A     -0.362387    15A     -0.333824
      16A     -0.332766

    Beta Virtual:

      17A     -0.025912    18A      0.077077    19A      0.134993
      20A      0.134998    21A      0.144201    22A      0.144532
      23A      0.163487    24A      0.182281    25A      0.182317
      26A      0.214910    27A      0.219167    28A      0.282301
      29A      0.282807    30A      0.400277    31A      0.400521
      32A      0.419708    33A      0.426846    34A      0.426866
      35A      0.468758    36A      0.497597    37A      0.497698
      38A      0.513850    39A      0.556231    40A      0.584107
      41A      0.584537    42A      0.597701    43A      0.597721
      44A      0.609949    45A      0.628043    46A      0.631704
      47A      0.639448    48A      0.639783    49A      0.667033
      50A      0.667154    51A      0.686433    52A      0.686534
      53A      0.757308    54A      0.830508    55A      0.830716
      56A      0.855418    57A      0.922809    58A      0.923088
      59A      0.946016    60A      0.953872    61A      0.966357
      62A      0.966724    63A      1.008515    64A      1.131976
      65A      1.132420    66A      1.156080    67A      1.167340
      68A      1.168101    69A      1.232671    70A      1.279833
      71A      1.280667    72A      1.285242    73A      1.329485
      74A      1.329651    75A      1.365757    76A      1.371161
      77A      1.371597    78A      1.393016    79A      1.406713
      80A      1.406937    81A      1.421833    82A      1.422461
      83A      1.427931    84A      1.493075    85A      1.508961
      86A      1.547410    87A      1.547432    88A      1.582394
      89A      1.582409    90A      1.673880    91A      1.745477
      92A      1.745887    93A      1.779108    94A      1.834572
      95A      1.835122    96A      1.973197    97A      2.025685
      98A      2.026821    99A      2.039466   100A      2.059230
     101A      2.060289   102A      2.746697   103A      2.747235
     104A      2.811922   105A      2.816250   106A      2.902230
     107A      2.903178   108A      2.925090   109A      2.931401
     110A      2.932297   111A      2.960003   112A      2.968771
     113A      2.969080   114A      3.042152   115A      3.080760
     116A      3.081625   117A      3.086578   118A      3.184387
     119A      3.184549   120A      3.188997   121A      3.289568
     122A      3.290088   123A      3.330815   124A      3.331584
     125A      3.383358   126A      3.492434   127A      3.493505
     128A      3.512538   129A      3.528691   130A      3.574865
     131A      3.581719   132A      3.582096   133A      3.669933
     134A      3.670392   135A      3.692384   136A      3.725607
     137A      3.725912   138A      3.780720   139A      3.782175
     140A      3.817336   141A      3.922650   142A      3.923567
     143A      4.045804   144A      4.117723   145A      4.118284
     146A      4.154322   147A      4.156227   148A      4.188055
     149A      4.209173   150A      4.209969   151A      4.211729
     152A      4.215730   153A      4.322572   154A      4.323806
     155A      4.361728   156A      4.431495   157A      4.431615
     158A      4.444370   159A      4.524847   160A      4.525220
     161A      4.589229   162A      4.589672   163A      4.625452
     164A      4.721099   165A      4.781749   166A      4.782949
     167A      4.841127   168A      4.966328   169A      5.005912
     170A      5.006421   171A      5.233248   172A      5.248305
     173A      5.248355   174A      5.361584   175A      5.362764
     176A      5.482897

    Final Occupation by Irrep:
              A
    DOCC [    16 ]
    SOCC [     1 ]

  @DF-UKS Final Energy:  -157.81308551871197

   => Energetics <=

    Nuclear Repulsion Energy =            125.4226403952281430
    One-Electron Energy =                -458.8040252874176304
    Two-Electron Energy =                 195.8753291298544070
    DFT Exchange-Correlation Energy =     -20.3070297563768953
    Empirical Dispersion Energy =           0.0000000000000000
    VV10 Nonlocal Energy =                  0.0000000000000000
    Total Energy =                       -157.8130855187119721

  UHF NO Occupations:
  HONO-2 :   15  A 1.9995992
  HONO-1 :   16  A 1.9989827
  HONO-0 :   17  A 1.0000000
  LUNO+0 :   18  A 0.0010173
  LUNO+1 :   19  A 0.0004008
  LUNO+2 :   20  A 0.0001978
  LUNO+3 :   21  A 0.0001957

Computation Completed

Properties will be evaluated at   0.000000,   0.000000,   0.000000 [a0]

Properties computed using the SCF density matrix

  Nuclear Dipole Moment: [e a0]
     X:     0.8280      Y:    -0.0000      Z:     0.0096

  Electronic Dipole Moment: [e a0]
     X:    -0.7502      Y:     0.0000      Z:    -0.0108

  Dipole Moment: [e a0]
     X:     0.0778      Y:     0.0000      Z:    -0.0012     Total:     0.0778

  Dipole Moment: [D]
     X:     0.1977      Y:     0.0000      Z:    -0.0031     Total:     0.1977

*** tstop() called on n070 at Fri Nov  5 13:20:06 2021
Module time:
	user time   =     580.56 seconds =       9.68 minutes
	system time =      13.37 seconds =       0.22 minutes
	total time  =        150 seconds =       2.50 minutes
Total time:
	user time   =     580.56 seconds =       9.68 minutes
	system time =      13.37 seconds =       0.22 minutes
	total time  =        150 seconds =       2.50 minutes
Grab this energy -157.81308551871197
    Psi4 stopped on: Friday, 05 November 2021 01:20PM
    Psi4 wall time for execution: 0:02:29.87

*** Psi4 exiting successfully. Buy a developer a beer!
