                               Psi4 1.4a2.dev629

  ==> Input File <==

--------------------------------------------------------------------------
import os
memory 14 GB

molecule {
 C   -0.3233399013   -0.0002490715   -0.0004940881
 C    0.0606687865   -1.4011523715   -2.4271517000
 C    0.0621326789    2.8016349095   -0.0000410548
 C    0.0605006611   -1.4004439083    2.4258455045
 H    2.0816918197   -1.6414175860   -2.8459732321
 H   -0.7652180510   -0.3928716616   -4.0253276344
 H   -0.7636265693   -3.2897070468   -2.3505816453
 H    2.0900347377    3.2942040250    0.0000282000
 H   -0.7639133074    3.6774199233    1.6767121550
 H   -0.7640933505    3.6764308207   -1.6760571023
 H    2.0889351533   -1.6409527442    2.8452366396
 H   -0.7674825820   -3.2956894535    2.3475978458
 H   -0.7688979524   -0.3872301487    4.0302061122
units bohr
0 2
}

basis {

assign 6-31g_2dfp_

[ 6-31g_2dfp_ ]

spherical

!----------------------------------------------------------------------
! Basis Set Exchange
! Version v0.8.13
! https://www.basissetexchange.org
!----------------------------------------------------------------------
!   Basis set: 6-31G(2df,p)
! Description: 6-31G(2df,p)
!        Role: orbital
!     Version: 0  (Data from the original Basis Set Exchange)
!----------------------------------------------------------------------

****
H     0
S    3   1.00
     18.7311370              0.03349460
      2.8253937              0.23472695
      0.6401217              0.81375733
S    1   1.00
      0.1612778              1.00000000
P    1   1.00
      1.5000000              1.0000000
P    1   1.00
      0.3750000              1.0000000
****
B     0
S    6   1.00
   2068.8823000              0.0018663
    310.6495700              0.0142515
     70.6830330              0.0695516
     19.8610800              0.2325729
      6.2993048              0.4670787
      2.1270270              0.3634314
SP   3   1.00
      4.7279710             -0.1303938              0.0745976
      1.1903377             -0.1307889              0.3078467
      0.3594117              1.1309444              0.7434568
SP   1   1.00
      0.1267512              1.0000000              1.0000000
D    1   1.00
      0.8020000              1.0000000
D    1   1.00
      0.2005000              1.0000000
F    1   1.00
      0.5000000              1.0000000
****
C     0
S    6   1.00
   3047.5249000              0.0018347
    457.3695100              0.0140373
    103.9486900              0.0688426
     29.2101550              0.2321844
      9.2866630              0.4679413
      3.1639270              0.3623120
SP   3   1.00
      7.8682724             -0.1193324              0.0689991
      1.8812885             -0.1608542              0.3164240
      0.5442493              1.1434564              0.7443083
SP   1   1.00
      0.1687144              1.0000000              1.0000000
D    1   1.00
      1.2520000              1.0000000
D    1   1.00
      0.3130000              1.0000000
F    1   1.00
      0.8000000              1.0000000
****
N     0
S    6   1.00
   4173.5110000              0.0018348
    627.4579000              0.0139950
    142.9021000              0.0685870
     40.2343300              0.2322410
     12.8202100              0.4690700
      4.3904370              0.3604550
SP   3   1.00
     11.6263580             -0.1149610              0.0675800
      2.7162800             -0.1691180              0.3239070
      0.7722180              1.1458520              0.7408950
SP   1   1.00
      0.2120313              1.0000000              1.0000000
D    1   1.00
      1.8260000              1.0000000
D    1   1.00
      0.4565000              1.0000000
F    1   1.00
      1.0000000              1.0000000
****
O     0
S    6   1.00
   5484.6717000              0.0018311
    825.2349500              0.0139501
    188.0469600              0.0684451
     52.9645000              0.2327143
     16.8975700              0.4701930
      5.7996353              0.3585209
SP   3   1.00
     15.5396160             -0.1107775              0.0708743
      3.5999336             -0.1480263              0.3397528
      1.0137618              1.1307670              0.7271586
SP   1   1.00
      0.2700058              1.0000000              1.0000000
D    1   1.00
      2.5840000              1.0000000
D    1   1.00
      0.6460000              1.0000000
F    1   1.00
      1.4000000              1.0000000
****
F     0
S    6   1.00
   7001.7130900              0.0018196169
   1051.3660900              0.0139160796
    239.2856900              0.0684053245
     67.3974453              0.233185760
     21.5199573              0.471267439
      7.40310130             0.356618546
SP   3   1.00
     20.8479528             -0.108506975            0.0716287243
      4.80830834            -0.146451658            0.3459121030
      1.34406986             1.128688580            0.7224699570
SP   1   1.00
      0.358151393            1.0000000              1.0000000
D    1   1.00
      3.5000000              1.0000000
D    1   1.00
      0.8750000              1.0000000
F    1   1.00
      1.8500000              1.0000000
****
Al     0
S    6   1.00
  13983.1000000              0.00194267
   2098.7500000              0.0148599
    477.7050000              0.0728494
    134.3600000              0.2468300
     42.8709000              0.4872580
     14.5189000              0.3234960
SP   6   1.00
    239.6680000             -0.00292619             0.00460285
     57.4419000             -0.0374080              0.0331990
     18.2859000             -0.1144870              0.1362820
      6.5991400              0.1156350              0.3304760
      2.4904900              0.6125950              0.4491460
      0.9445400              0.3937990              0.2657040
SP   3   1.00
      1.2779000             -0.2276060             -0.0175130
      0.3975900              0.00144583             0.2445330
      0.1600950              1.0927900              0.8049340
SP   1   1.00
      0.0556577              1.0000000              1.0000000
D    1   1.00
      0.6500000              1.0000000
D    1   1.00
      0.1625000              1.0000000
F    1   1.00
      0.2500000              1.0000000
****
Si     0
S    6   1.00
  16115.9000000              0.00195948
   2425.5800000              0.01492880
    553.8670000              0.07284780
    156.3400000              0.24613000
     50.0683000              0.48591400
     17.0178000              0.32500200
SP   6   1.00
    292.7180000             -0.00278094             0.00443826
     69.8731000             -0.03571460             0.03266790
     22.3363000             -0.11498500             0.13472100
      8.1503900              0.09356340             0.32867800
      3.1345800              0.60301700             0.44964000
      1.2254300              0.41895900             0.26137200
SP   3   1.00
      1.7273800             -0.24463000            -0.01779510
      0.5729220              0.00431572             0.25353900
      0.2221920              1.09818000             0.80066900
SP   1   1.00
      0.0778369              1.00000000             1.00000000
D    1   1.00
      0.9000000              1.0000000
D    1   1.00
      0.2250000              1.0000000
F    1   1.00
      0.3200000              1.0000000
****
P     0
S    6   1.00
  19413.3000000              0.0018516
   2909.4200000              0.0142062
    661.3640000              0.0699995
    185.7590000              0.2400790
     59.1943000              0.4847620
     20.0310000              0.3352000
SP   6   1.00
    339.4780000             -0.00278217             0.00456462
     81.0101000             -0.0360499              0.03369360
     25.8780000             -0.1166310              0.13975500
      9.4522100              0.0968328              0.33936200
      3.6656600              0.6144180              0.45092100
      1.4674600              0.4037980              0.23858600
SP   3   1.00
      2.1562300             -0.2529230             -0.01776530
      0.7489970              0.0328517              0.27405800
      0.2831450              1.0812500              0.78542100
SP   1   1.00
      0.0998317              1.0000000              1.00000000
D    1   1.00
      1.1000000              1.0000000
D    1   1.00
      0.2750000              1.0000000
F    1   1.00
      0.4500000              1.0000000
****
S     0
S    6   1.00
  21917.1000000              0.0018690
   3301.4900000              0.0142300
    754.1460000              0.0696960
    212.7110000              0.2384870
     67.9896000              0.4833070
     23.0515000              0.3380740
SP   6   1.00
    423.7350000             -0.0023767              0.0040610
    100.7100000             -0.0316930              0.0306810
     32.1599000             -0.1133170              0.1304520
     11.8079000              0.0560900              0.3272050
      4.6311000              0.5922550              0.4528510
      1.8702500              0.4550060              0.2560420
SP   3   1.00
      2.6158400             -0.2503740             -0.0145110
      0.9221670              0.0669570              0.3102630
      0.3412870              1.0545100              0.7544830
SP   1   1.00
      0.1171670              1.0000000              1.0000000
D    1   1.00
      1.3000000              1.0000000
D    1   1.00
      0.3250000              1.0000000
F    1   1.00
      0.5500000              1.0000000
****
Cl     0
S    6   1.00
  25180.1000000              0.0018330
   3780.3500000              0.0140340
    860.4740000              0.0690970
    242.1450000              0.2374520
     77.3349000              0.4830340
     26.2470000              0.3398560
SP   6   1.00
    491.7650000             -0.0022974              0.0039894
    116.9840000             -0.0307140              0.0303180
     37.4153000             -0.1125280              0.1298800
     13.7834000              0.0450160              0.3279510
      5.4521500              0.5893530              0.4535270
      2.2258800              0.4652060              0.2521540
SP   3   1.00
      3.1864900             -0.2518300             -0.0142990
      1.1442700              0.0615890              0.3235720
      0.4203770              1.0601800              0.7435070
SP   1   1.00
      0.1426570              1.0000000              1.0000000
D    1   1.00
      1.5000000              1.0000000
D    1   1.00
      0.3750000              1.0000000
F    1   1.00
      0.7000000              1.0000000
****
}

set {
reference uhf
freeze_core true
e_convergence 10
d_convergence 10
dft_spherical_points 1202
dft_radial_points 99
}

e = energy('b3lyp')

print_out('Grab this energy {0}'.format(e))
--------------------------------------------------------------------------

    Molecular point group: c1

    Geometry (in Bohr), charge = 0, multiplicity = 2:

       Center              X                  Y                   Z               Mass
    ------------   -----------------  -----------------  -----------------  -----------------
         C           -0.323340326970    -0.000208109532    -0.000139433063    12.000000000000
         C            0.060668360830    -1.401111409532    -2.426797044963    12.000000000000
         C            0.062132253230     2.801675871468     0.000313600237    12.000000000000
         C            0.060500235430    -1.400402946332     2.426200159537    12.000000000000
         H            2.081691394030    -1.641376624032    -2.845618577063     1.007825032230
         H           -0.765218476670    -0.392830699632    -4.024972979363     1.007825032230
         H           -0.763626994970    -3.289666084832    -2.350226990263     1.007825032230
         H            2.090034312030     3.294244986968     0.000382855037     1.007825032230
         H           -0.763913733070     3.677460885268     1.677066810037     1.007825032230
         H           -0.764093776170     3.676471782668    -1.675702447263     1.007825032230
         H            2.088934727630    -1.640911782232     2.845591294637     1.007825032230
         H           -0.767483007670    -3.295648491532     2.347952500837     1.007825032230
         H           -0.768898378070    -0.387189186732     4.030560767237     1.007825032230

  Charge       = 0
  Multiplicity = 2
  Basis Set: ANONYMOUSB1A2B0A0
    Blend: 6-31G_2DFP_
  Basis Set: (ANONYMOUSB1A2B0A0 AUX)
    Blend: DEF2-UNIVERSAL-JKFIT

    Orbital Energies [Eh]
    ---------------------

    Alpha Occupied:

       1A    -10.180343     2A    -10.167612     3A    -10.166982
       4A    -10.166450     5A     -0.797767     6A     -0.686511
       7A     -0.685865     8A     -0.530775     9A     -0.441127
      10A     -0.434794    11A     -0.434550    12A     -0.382913
      13A     -0.382283    14A     -0.363611    15A     -0.338156
      16A     -0.337841    17A     -0.168961

    Alpha Virtual:

      18A      0.076071    19A      0.134097    20A      0.134197
      21A      0.142402    22A      0.142865    23A      0.154876
      24A      0.178425    25A      0.179132    26A      0.203550
      27A      0.214805    28A      0.275936    29A      0.276035
      30A      0.399080    31A      0.399374    32A      0.403345
      33A      0.423957    34A      0.424237    35A      0.456593
      36A      0.495318    37A      0.495460    38A      0.512163
      39A      0.513980    40A      0.578637    41A      0.578980
      42A      0.591234    43A      0.591994    44A      0.602623
      45A      0.624767    46A      0.631658    47A      0.635929
      48A      0.636686    49A      0.663227    50A      0.663604
      51A      0.683529    52A      0.684191    53A      0.734993
      54A      0.825000    55A      0.825803    56A      0.853917
      57A      0.914708    58A      0.915342    59A      0.944113
      60A      0.944611    61A      0.961056    62A      0.961560
      63A      1.003453    64A      1.127592    65A      1.128625
      66A      1.142204    67A      1.163090    68A      1.163460
      69A      1.223325    70A      1.274273    71A      1.274691
      72A      1.279368    73A      1.323986    74A      1.324715
      75A      1.355964    76A      1.365788    77A      1.366332
      78A      1.392451    79A      1.403422    80A      1.404659
      81A      1.416645    82A      1.417552    83A      1.427930
      84A      1.491499    85A      1.499067    86A      1.542783
      87A      1.542896    88A      1.573890    89A      1.575024
      90A      1.669803    91A      1.739259    92A      1.739535
      93A      1.768339    94A      1.829792    95A      1.833077
      96A      1.971694    97A      2.018090    98A      2.018959
      99A      2.019334   100A      2.052203   101A      2.053133
     102A      2.738042   103A      2.738934   104A      2.790927
     105A      2.811431   106A      2.889624   107A      2.890202
     108A      2.895018   109A      2.929163   110A      2.929824
     111A      2.958998   112A      2.963842   113A      2.964937
     114A      3.034015   115A      3.070595   116A      3.071969
     117A      3.084380   118A      3.168524   119A      3.169043
     120A      3.180588   121A      3.285182   122A      3.285455
     123A      3.326295   124A      3.328039   125A      3.375610
     126A      3.488816   127A      3.491502   128A      3.514009
     129A      3.525349   130A      3.568111   131A      3.568480
     132A      3.575339   133A      3.665455   134A      3.667209
     135A      3.679660   136A      3.693302   137A      3.694971
     138A      3.776233   139A      3.777383   140A      3.789175
     141A      3.911761   142A      3.912681   143A      4.034432
     144A      4.110581   145A      4.112026   146A      4.146075
     147A      4.150054   148A      4.173321   149A      4.200451
     150A      4.203571   151A      4.204715   152A      4.211159
     153A      4.315225   154A      4.316689   155A      4.358947
     156A      4.424133   157A      4.424706   158A      4.443532
     159A      4.516120   160A      4.517498   161A      4.577866
     162A      4.578729   163A      4.617581   164A      4.709432
     165A      4.774018   166A      4.775191   167A      4.836883
     168A      4.962868   169A      5.002184   170A      5.003766
     171A      5.227860   172A      5.243075   173A      5.250526
     174A      5.352573   175A      5.358637   176A      5.479430

    Beta Occupied:

       1A    -10.168372     2A    -10.167745     3A    -10.167209
       4A    -10.166517     5A     -0.781093     6A     -0.684313
       7A     -0.683668     8A     -0.511746     9A     -0.431181
      10A     -0.430906    11A     -0.421825    12A     -0.377008
      13A     -0.376357    14A     -0.362595    15A     -0.333266
      16A     -0.332977

    Beta Virtual:

      17A     -0.025743    18A      0.077080    19A      0.134965
      20A      0.135110    21A      0.144312    22A      0.144696
      23A      0.163335    24A      0.182104    25A      0.182797
      26A      0.215035    27A      0.218932    28A      0.282280
      29A      0.282387    30A      0.400251    31A      0.400542
      32A      0.419791    33A      0.426765    34A      0.427051
      35A      0.468501    36A      0.497580    37A      0.497721
      38A      0.513898    39A      0.556324    40A      0.584178
      41A      0.584541    42A      0.597426    43A      0.598169
      44A      0.610035    45A      0.628144    46A      0.631868
      47A      0.639181    48A      0.639952    49A      0.666776
      50A      0.667182    51A      0.686202    52A      0.686788
      53A      0.757516    54A      0.830143    55A      0.830997
      56A      0.855271    57A      0.922706    58A      0.923287
      59A      0.945952    60A      0.953536    61A      0.966394
      62A      0.966834    63A      1.008693    64A      1.131644
      65A      1.132630    66A      1.155573    67A      1.168127
      68A      1.168577    69A      1.232297    70A      1.279876
      71A      1.280285    72A      1.285120    73A      1.328927
      74A      1.329752    75A      1.365360    76A      1.371043
      77A      1.371585    78A      1.393511    79A      1.406869
      80A      1.408141    81A      1.421664    82A      1.422618
      83A      1.428214    84A      1.492548    85A      1.509507
      86A      1.547094    87A      1.547407    88A      1.581685
      89A      1.582968    90A      1.674648    91A      1.745038
      92A      1.745285    93A      1.779114    94A      1.833678
      95A      1.836903    96A      1.972559    97A      2.025386
      98A      2.025497    99A      2.039666   100A      2.058899
     101A      2.059875   102A      2.746363   103A      2.747284
     104A      2.811843   105A      2.816062   106A      2.902367
     107A      2.902892   108A      2.924660   109A      2.931675
     110A      2.932282   111A      2.960068   112A      2.968342
     113A      2.969520   114A      3.041949   115A      3.080413
     116A      3.081942   117A      3.086228   118A      3.184236
     119A      3.184815   120A      3.188284   121A      3.289935
     122A      3.290299   123A      3.330110   124A      3.331832
     125A      3.383429   126A      3.491584   127A      3.494195
     128A      3.512375   129A      3.528393   130A      3.574838
     131A      3.581644   132A      3.581984   133A      3.670177
     134A      3.671999   135A      3.692971   136A      3.725130
     137A      3.726382   138A      3.780798   139A      3.781881
     140A      3.817704   141A      3.921588   142A      3.922488
     143A      4.045315   144A      4.117605   145A      4.118613
     146A      4.153503   147A      4.157078   148A      4.187370
     149A      4.207079   150A      4.209612   151A      4.211884
     152A      4.215643   153A      4.322792   154A      4.324000
     155A      4.362311   156A      4.432342   157A      4.432880
     158A      4.446465   159A      4.523939   160A      4.525262
     161A      4.588509   162A      4.589286   163A      4.624773
     164A      4.719775   165A      4.780936   166A      4.782180
     167A      4.839800   168A      4.967664   169A      5.006247
     170A      5.007782   171A      5.233568   172A      5.244869
     173A      5.252312   174A      5.359065   175A      5.365102
     176A      5.481751

    Final Occupation by Irrep:
              A
    DOCC [    16 ]
    SOCC [     1 ]

  @DF-UKS Final Energy:  -157.81305184832360

   => Energetics <=

    Nuclear Repulsion Energy =            125.3946659740060738
    One-Electron Energy =                -458.7489452018145926
    Two-Electron Energy =                 195.8483757085548689
    DFT Exchange-Correlation Energy =     -20.3071483290699106
    Empirical Dispersion Energy =           0.0000000000000000
    VV10 Nonlocal Energy =                  0.0000000000000000
    Total Energy =                       -157.8130518483235960

  UHF NO Occupations:
  HONO-2 :   15  A 1.9996008
  HONO-1 :   16  A 1.9989805
  HONO-0 :   17  A 1.0000000
  LUNO+0 :   18  A 0.0010195
  LUNO+1 :   19  A 0.0003992
  LUNO+2 :   20  A 0.0001977
  LUNO+3 :   21  A 0.0001974

Computation Completed

Properties will be evaluated at   0.000000,   0.000000,   0.000000 [a0]

Properties computed using the SCF density matrix

  Nuclear Dipole Moment: [e a0]
     X:     0.8272      Y:     0.0003      Z:     0.0025

  Electronic Dipole Moment: [e a0]
     X:    -0.7493      Y:    -0.0010      Z:    -0.0049

  Dipole Moment: [e a0]
     X:     0.0779      Y:    -0.0008      Z:    -0.0024     Total:     0.0780

  Dipole Moment: [D]
     X:     0.1980      Y:    -0.0019      Z:    -0.0062     Total:     0.1981

*** tstop() called on n036 at Fri Nov  5 15:03:45 2021
Module time:
	user time   =     632.86 seconds =      10.55 minutes
	system time =      12.17 seconds =       0.20 minutes
	total time  =        162 seconds =       2.70 minutes
Total time:
	user time   =     632.86 seconds =      10.55 minutes
	system time =      12.17 seconds =       0.20 minutes
	total time  =        162 seconds =       2.70 minutes
Grab this energy -157.8130518483236
    Psi4 stopped on: Friday, 05 November 2021 03:03PM
    Psi4 wall time for execution: 0:02:42.16

*** Psi4 exiting successfully. Buy a developer a beer!
