                               Psi4 1.4a2.dev629

  ==> Input File <==

--------------------------------------------------------------------------
import os
memory 14 GB

molecule {
 C   -0.3233398847   -0.0000004774   -0.0024305809
 C    0.0612743006   -1.3993621931   -2.4263022781
 C    0.0610210723    2.8017611804   -0.0025437067
 C    0.0610055074   -1.4023902735    2.4264594516
 H    2.0863393791   -1.6388286412   -2.8459081367
 H   -0.7637463414   -0.3906971118   -4.0268441186
 H   -0.7657436671   -3.2923416390   -2.3461366960
 H    2.0867917359    3.2881120599   -0.0075900750
 H   -0.7674735869    3.6755217065    1.6796823885
 H   -0.7638090468    3.6849601216   -1.6733107909
 H    2.0875271665   -1.6493671769    2.8489804142
 H   -0.7653933682   -3.2916521841    2.3518350164
 H   -0.7670611434   -0.3857396850    4.0241091121
units bohr
0 2
}

basis {

assign 6-31g_2dfp_

[ 6-31g_2dfp_ ]

spherical

!----------------------------------------------------------------------
! Basis Set Exchange
! Version v0.8.13
! https://www.basissetexchange.org
!----------------------------------------------------------------------
!   Basis set: 6-31G(2df,p)
! Description: 6-31G(2df,p)
!        Role: orbital
!     Version: 0  (Data from the original Basis Set Exchange)
!----------------------------------------------------------------------

****
H     0
S    3   1.00
     18.7311370              0.03349460
      2.8253937              0.23472695
      0.6401217              0.81375733
S    1   1.00
      0.1612778              1.00000000
P    1   1.00
      1.5000000              1.0000000
P    1   1.00
      0.3750000              1.0000000
****
B     0
S    6   1.00
   2068.8823000              0.0018663
    310.6495700              0.0142515
     70.6830330              0.0695516
     19.8610800              0.2325729
      6.2993048              0.4670787
      2.1270270              0.3634314
SP   3   1.00
      4.7279710             -0.1303938              0.0745976
      1.1903377             -0.1307889              0.3078467
      0.3594117              1.1309444              0.7434568
SP   1   1.00
      0.1267512              1.0000000              1.0000000
D    1   1.00
      0.8020000              1.0000000
D    1   1.00
      0.2005000              1.0000000
F    1   1.00
      0.5000000              1.0000000
****
C     0
S    6   1.00
   3047.5249000              0.0018347
    457.3695100              0.0140373
    103.9486900              0.0688426
     29.2101550              0.2321844
      9.2866630              0.4679413
      3.1639270              0.3623120
SP   3   1.00
      7.8682724             -0.1193324              0.0689991
      1.8812885             -0.1608542              0.3164240
      0.5442493              1.1434564              0.7443083
SP   1   1.00
      0.1687144              1.0000000              1.0000000
D    1   1.00
      1.2520000              1.0000000
D    1   1.00
      0.3130000              1.0000000
F    1   1.00
      0.8000000              1.0000000
****
N     0
S    6   1.00
   4173.5110000              0.0018348
    627.4579000              0.0139950
    142.9021000              0.0685870
     40.2343300              0.2322410
     12.8202100              0.4690700
      4.3904370              0.3604550
SP   3   1.00
     11.6263580             -0.1149610              0.0675800
      2.7162800             -0.1691180              0.3239070
      0.7722180              1.1458520              0.7408950
SP   1   1.00
      0.2120313              1.0000000              1.0000000
D    1   1.00
      1.8260000              1.0000000
D    1   1.00
      0.4565000              1.0000000
F    1   1.00
      1.0000000              1.0000000
****
O     0
S    6   1.00
   5484.6717000              0.0018311
    825.2349500              0.0139501
    188.0469600              0.0684451
     52.9645000              0.2327143
     16.8975700              0.4701930
      5.7996353              0.3585209
SP   3   1.00
     15.5396160             -0.1107775              0.0708743
      3.5999336             -0.1480263              0.3397528
      1.0137618              1.1307670              0.7271586
SP   1   1.00
      0.2700058              1.0000000              1.0000000
D    1   1.00
      2.5840000              1.0000000
D    1   1.00
      0.6460000              1.0000000
F    1   1.00
      1.4000000              1.0000000
****
F     0
S    6   1.00
   7001.7130900              0.0018196169
   1051.3660900              0.0139160796
    239.2856900              0.0684053245
     67.3974453              0.233185760
     21.5199573              0.471267439
      7.40310130             0.356618546
SP   3   1.00
     20.8479528             -0.108506975            0.0716287243
      4.80830834            -0.146451658            0.3459121030
      1.34406986             1.128688580            0.7224699570
SP   1   1.00
      0.358151393            1.0000000              1.0000000
D    1   1.00
      3.5000000              1.0000000
D    1   1.00
      0.8750000              1.0000000
F    1   1.00
      1.8500000              1.0000000
****
Al     0
S    6   1.00
  13983.1000000              0.00194267
   2098.7500000              0.0148599
    477.7050000              0.0728494
    134.3600000              0.2468300
     42.8709000              0.4872580
     14.5189000              0.3234960
SP   6   1.00
    239.6680000             -0.00292619             0.00460285
     57.4419000             -0.0374080              0.0331990
     18.2859000             -0.1144870              0.1362820
      6.5991400              0.1156350              0.3304760
      2.4904900              0.6125950              0.4491460
      0.9445400              0.3937990              0.2657040
SP   3   1.00
      1.2779000             -0.2276060             -0.0175130
      0.3975900              0.00144583             0.2445330
      0.1600950              1.0927900              0.8049340
SP   1   1.00
      0.0556577              1.0000000              1.0000000
D    1   1.00
      0.6500000              1.0000000
D    1   1.00
      0.1625000              1.0000000
F    1   1.00
      0.2500000              1.0000000
****
Si     0
S    6   1.00
  16115.9000000              0.00195948
   2425.5800000              0.01492880
    553.8670000              0.07284780
    156.3400000              0.24613000
     50.0683000              0.48591400
     17.0178000              0.32500200
SP   6   1.00
    292.7180000             -0.00278094             0.00443826
     69.8731000             -0.03571460             0.03266790
     22.3363000             -0.11498500             0.13472100
      8.1503900              0.09356340             0.32867800
      3.1345800              0.60301700             0.44964000
      1.2254300              0.41895900             0.26137200
SP   3   1.00
      1.7273800             -0.24463000            -0.01779510
      0.5729220              0.00431572             0.25353900
      0.2221920              1.09818000             0.80066900
SP   1   1.00
      0.0778369              1.00000000             1.00000000
D    1   1.00
      0.9000000              1.0000000
D    1   1.00
      0.2250000              1.0000000
F    1   1.00
      0.3200000              1.0000000
****
P     0
S    6   1.00
  19413.3000000              0.0018516
   2909.4200000              0.0142062
    661.3640000              0.0699995
    185.7590000              0.2400790
     59.1943000              0.4847620
     20.0310000              0.3352000
SP   6   1.00
    339.4780000             -0.00278217             0.00456462
     81.0101000             -0.0360499              0.03369360
     25.8780000             -0.1166310              0.13975500
      9.4522100              0.0968328              0.33936200
      3.6656600              0.6144180              0.45092100
      1.4674600              0.4037980              0.23858600
SP   3   1.00
      2.1562300             -0.2529230             -0.01776530
      0.7489970              0.0328517              0.27405800
      0.2831450              1.0812500              0.78542100
SP   1   1.00
      0.0998317              1.0000000              1.00000000
D    1   1.00
      1.1000000              1.0000000
D    1   1.00
      0.2750000              1.0000000
F    1   1.00
      0.4500000              1.0000000
****
S     0
S    6   1.00
  21917.1000000              0.0018690
   3301.4900000              0.0142300
    754.1460000              0.0696960
    212.7110000              0.2384870
     67.9896000              0.4833070
     23.0515000              0.3380740
SP   6   1.00
    423.7350000             -0.0023767              0.0040610
    100.7100000             -0.0316930              0.0306810
     32.1599000             -0.1133170              0.1304520
     11.8079000              0.0560900              0.3272050
      4.6311000              0.5922550              0.4528510
      1.8702500              0.4550060              0.2560420
SP   3   1.00
      2.6158400             -0.2503740             -0.0145110
      0.9221670              0.0669570              0.3102630
      0.3412870              1.0545100              0.7544830
SP   1   1.00
      0.1171670              1.0000000              1.0000000
D    1   1.00
      1.3000000              1.0000000
D    1   1.00
      0.3250000              1.0000000
F    1   1.00
      0.5500000              1.0000000
****
Cl     0
S    6   1.00
  25180.1000000              0.0018330
   3780.3500000              0.0140340
    860.4740000              0.0690970
    242.1450000              0.2374520
     77.3349000              0.4830340
     26.2470000              0.3398560
SP   6   1.00
    491.7650000             -0.0022974              0.0039894
    116.9840000             -0.0307140              0.0303180
     37.4153000             -0.1125280              0.1298800
     13.7834000              0.0450160              0.3279510
      5.4521500              0.5893530              0.4535270
      2.2258800              0.4652060              0.2521540
SP   3   1.00
      3.1864900             -0.2518300             -0.0142990
      1.1442700              0.0615890              0.3235720
      0.4203770              1.0601800              0.7435070
SP   1   1.00
      0.1426570              1.0000000              1.0000000
D    1   1.00
      1.5000000              1.0000000
D    1   1.00
      0.3750000              1.0000000
F    1   1.00
      0.7000000              1.0000000
****
}

set {
reference uhf
freeze_core true
e_convergence 10
d_convergence 10
dft_spherical_points 1202
dft_radial_points 99
}

e = energy('b3lyp')

print_out('Grab this energy {0}'.format(e))
--------------------------------------------------------------------------

    Molecular point group: c1

    Geometry (in Bohr), charge = 0, multiplicity = 2:

       Center              X                  Y                   Z               Mass
    ------------   -----------------  -----------------  -----------------  -----------------
         C           -0.323340073541    -0.000001634428    -0.001502770027    12.000000000000
         C            0.061274111759    -1.399363350128    -2.425374467227    12.000000000000
         C            0.061020883459     2.801760023372    -0.001615895827    12.000000000000
         C            0.061005318559    -1.402391430528     2.427387262473    12.000000000000
         H            2.086339190259    -1.638829798228    -2.844980325827     1.007825032230
         H           -0.763746530241    -0.390698268828    -4.025916307727     1.007825032230
         H           -0.765743855941    -3.292342796028    -2.345208885127     1.007825032230
         H            2.086791547059     3.288110902872    -0.006662264127     1.007825032230
         H           -0.767473775741     3.675520549472     1.680610199373     1.007825032230
         H           -0.763809235641     3.684958964572    -1.672382980027     1.007825032230
         H            2.087526977659    -1.649368333928     2.849908225073     1.007825032230
         H           -0.765393557041    -3.291653341128     2.352762827273     1.007825032230
         H           -0.767061332241    -0.385740842028     4.025036922973     1.007825032230

  Charge       = 0
  Multiplicity = 2
  Basis Set: ANONYMOUS7BDD3C76
    Blend: 6-31G_2DFP_
  Basis Set: (ANONYMOUS7BDD3C76 AUX)
    Blend: DEF2-UNIVERSAL-JKFIT

    Orbital Energies [Eh]
    ---------------------

    Alpha Occupied:

       1A    -10.180342     2A    -10.167168     3A    -10.167015
       4A    -10.166861     5A     -0.797767     6A     -0.686249
       7A     -0.686125     8A     -0.530779     9A     -0.441125
      10A     -0.434929    11A     -0.434414    12A     -0.382656
      13A     -0.382540    14A     -0.363616    15A     -0.338091
      16A     -0.337898    17A     -0.168961

    Alpha Virtual:

      18A      0.076070    19A      0.134070    20A      0.134234
      21A      0.142483    22A      0.142771    23A      0.154884
      24A      0.178725    25A      0.178832    26A      0.203549
      27A      0.214800    28A      0.275608    29A      0.276364
      30A      0.399010    31A      0.399429    32A      0.403362
      33A      0.423881    34A      0.424316    35A      0.456593
      36A      0.495281    37A      0.495501    38A      0.512159
      39A      0.513980    40A      0.578472    41A      0.579164
      42A      0.591192    43A      0.592065    44A      0.602582
      45A      0.624742    46A      0.631766    47A      0.635942
      48A      0.636583    49A      0.663234    50A      0.663589
      51A      0.683687    52A      0.684028    53A      0.734994
      54A      0.825370    55A      0.825442    56A      0.853915
      57A      0.914939    58A      0.915094    59A      0.944122
      60A      0.944595    61A      0.960535    62A      0.962080
      63A      1.003460    64A      1.127605    65A      1.128599
      66A      1.142226    67A      1.163115    68A      1.163445
      69A      1.223324    70A      1.274090    71A      1.274889
      72A      1.279350    73A      1.324150    74A      1.324563
      75A      1.355989    76A      1.365587    77A      1.366515
      78A      1.392463    79A      1.403692    80A      1.404407
      81A      1.416807    82A      1.417415    83A      1.427891
      84A      1.491500    85A      1.499071    86A      1.542551
      87A      1.543139    88A      1.574250    89A      1.574644
      90A      1.669829    91A      1.738335    92A      1.740495
      93A      1.768321    94A      1.831113    95A      1.831679
      96A      1.971740    97A      2.018103    98A      2.018658
      99A      2.019630   100A      2.051310   101A      2.053981
     102A      2.738384   103A      2.738576   104A      2.790934
     105A      2.811424   106A      2.889517   107A      2.890345
     108A      2.894983   109A      2.929450   110A      2.929539
     111A      2.958954   112A      2.964305   113A      2.964493
     114A      3.034009   115A      3.070565   116A      3.071918
     117A      3.084461   118A      3.168166   119A      3.169402
     120A      3.180598   121A      3.285195   122A      3.285425
     123A      3.326444   124A      3.327864   125A      3.375636
     126A      3.490029   127A      3.490268   128A      3.514010
     129A      3.525298   130A      3.568215   131A      3.568486
     132A      3.575233   133A      3.666083   134A      3.666719
     135A      3.679673   136A      3.693910   137A      3.694306
     138A      3.775655   139A      3.777913   140A      3.789174
     141A      3.911923   142A      3.912550   143A      4.034445
     144A      4.109572   145A      4.113144   146A      4.147361
     147A      4.148568   148A      4.173507   149A      4.202324
     150A      4.202674   151A      4.203836   152A      4.210941
     153A      4.315817   154A      4.316079   155A      4.359004
     156A      4.424156   157A      4.424731   158A      4.443466
     159A      4.515378   160A      4.518299   161A      4.577897
     162A      4.578565   163A      4.617588   164A      4.709428
     165A      4.774505   166A      4.774692   167A      4.836961
     168A      4.962859   169A      5.002240   170A      5.003686
     171A      5.227648   172A      5.246392   173A      5.247568
     174A      5.353526   175A      5.357488   176A      5.479389

    Beta Occupied:

       1A    -10.167926     2A    -10.167775     3A    -10.167623
       4A    -10.166519     5A     -0.781092     6A     -0.684042
       7A     -0.683937     8A     -0.511750     9A     -0.431291
      10A     -0.430795    11A     -0.421821    12A     -0.376732
      13A     -0.376634    14A     -0.362600    15A     -0.333215
      16A     -0.333022

    Beta Virtual:

      17A     -0.025742    18A      0.077079    19A      0.134927
      20A      0.135158    21A      0.144328    22A      0.144668
      23A      0.163342    24A      0.182379    25A      0.182521
      26A      0.215030    27A      0.218931    28A      0.281967
      29A      0.282701    30A      0.400181    31A      0.400611
      32A      0.419791    33A      0.426691    34A      0.427129
      35A      0.468501    36A      0.497539    37A      0.497764
      38A      0.513894    39A      0.556325    40A      0.584022
      41A      0.584713    42A      0.597361    43A      0.598253
      44A      0.610008    45A      0.628114    46A      0.631924
      47A      0.639229    48A      0.639868    49A      0.666813
      50A      0.667136    51A      0.686367    52A      0.686620
      53A      0.757517    54A      0.830571    55A      0.830577
      56A      0.855268    57A      0.922895    58A      0.923080
      59A      0.945959    60A      0.953509    61A      0.965886
      62A      0.967355    63A      1.008700    64A      1.131565
      65A      1.132699    66A      1.155604    67A      1.168273
      68A      1.168431    69A      1.232296    70A      1.279670
      71A      1.280502    72A      1.285103    73A      1.329124
      74A      1.329567    75A      1.365405    76A      1.370923
      77A      1.371665    78A      1.393521    79A      1.407114
      80A      1.407917    81A      1.421902    82A      1.422420
      83A      1.428160    84A      1.492550    85A      1.509514
      86A      1.546930    87A      1.547578    88A      1.582119
      89A      1.582516    90A      1.674675    91A      1.744078
      92A      1.746282    93A      1.779093    94A      1.834962
      95A      1.835542    96A      1.972600    97A      2.024949
      98A      2.025952    99A      2.039665   100A      2.057986
     101A      2.060737   102A      2.746749   103A      2.746887
     104A      2.811836   105A      2.816066   106A      2.902235
     107A      2.903032   108A      2.924663   109A      2.931959
     110A      2.931989   111A      2.960033   112A      2.968868
     113A      2.969004   114A      3.041944   115A      3.080417
     116A      3.081741   117A      3.086421   118A      3.183911
     119A      3.185143   120A      3.188295   121A      3.290008
     122A      3.290211   123A      3.330231   124A      3.331685
     125A      3.383455   126A      3.492754   127A      3.493003
     128A      3.512378   129A      3.528352   130A      3.574893
     131A      3.581610   132A      3.581959   133A      3.670737
     134A      3.671570   135A      3.692953   136A      3.725669
     137A      3.725814   138A      3.780260   139A      3.782365
     140A      3.817717   141A      3.921656   142A      3.922449
     143A      4.045333   144A      4.116290   145A      4.120060
     146A      4.154800   147A      4.155598   148A      4.187505
     149A      4.208310   150A      4.209731   151A      4.210640
     152A      4.215419   153A      4.323190   154A      4.323581
     155A      4.362373   156A      4.432334   157A      4.432964
     158A      4.446366   159A      4.523171   160A      4.526085
     161A      4.588466   162A      4.589194   163A      4.624785
     164A      4.719773   165A      4.781473   166A      4.781632
     167A      4.839879   168A      4.967653   169A      5.006272
     170A      5.007732   171A      5.233268   172A      5.248215
     173A      5.249411   174A      5.359995   175A      5.363977
     176A      5.481711

    Final Occupation by Irrep:
              A
    DOCC [    16 ]
    SOCC [     1 ]

  @DF-UKS Final Energy:  -157.81306051443011

   => Energetics <=

    Nuclear Repulsion Energy =            125.3946546451207951
    One-Electron Energy =                -458.7489500452223865
    Two-Electron Energy =                 195.8483794790375896
    DFT Exchange-Correlation Energy =     -20.3071445933661074
    Empirical Dispersion Energy =           0.0000000000000000
    VV10 Nonlocal Energy =                  0.0000000000000000
    Total Energy =                       -157.8130605144301057

  UHF NO Occupations:
  HONO-2 :   15  A 1.9996009
  HONO-1 :   16  A 1.9989804
  HONO-0 :   17  A 1.0000000
  LUNO+0 :   18  A 0.0010196
  LUNO+1 :   19  A 0.0003991
  LUNO+2 :   20  A 0.0001979
  LUNO+3 :   21  A 0.0001972

Computation Completed

Properties will be evaluated at   0.000000,   0.000000,   0.000000 [a0]

Properties computed using the SCF density matrix

  Nuclear Dipole Moment: [e a0]
     X:     0.8272      Y:    -0.0000      Z:     0.0065

  Electronic Dipole Moment: [e a0]
     X:    -0.7493      Y:     0.0000      Z:    -0.0083

  Dipole Moment: [e a0]
     X:     0.0779      Y:     0.0000      Z:    -0.0018     Total:     0.0779

  Dipole Moment: [D]
     X:     0.1980      Y:     0.0000      Z:    -0.0045     Total:     0.1981

*** tstop() called on n032 at Fri Nov  5 14:36:35 2021
Module time:
	user time   =     634.81 seconds =      10.58 minutes
	system time =      12.13 seconds =       0.20 minutes
	total time  =        163 seconds =       2.72 minutes
Total time:
	user time   =     634.81 seconds =      10.58 minutes
	system time =      12.13 seconds =       0.20 minutes
	total time  =        163 seconds =       2.72 minutes
Grab this energy -157.8130605144301
    Psi4 stopped on: Friday, 05 November 2021 02:36PM
    Psi4 wall time for execution: 0:02:42.64

*** Psi4 exiting successfully. Buy a developer a beer!
