                               Psi4 1.4a2.dev629

  ==> Input File <==

--------------------------------------------------------------------------
import os
memory 14 GB

molecule {
 C   -0.3233184960   -0.0000020754   -0.0000000190
 C    0.0612325436   -1.4005167597   -2.4273497764
 C    0.0611127465    2.8024182059    0.0007970204
 C    0.0612326173   -1.4018972292    2.4265527427
 H    2.0837831823   -1.6429099572   -2.8485428260
 H   -0.7632076245   -0.3918818747   -4.0282532293
 H   -0.7647122777   -3.2863935334   -2.3468808244
 H    2.0836446281    3.2884636337    0.0015794629
 H   -0.7634487852    3.6844844667    1.6747162392
 H   -0.7647900330    3.6756260736   -1.6726988216
 H    2.0837833705   -1.6456460403    2.8469642114
 H   -0.7633705353   -3.2925696399    2.3535431544
 H   -0.7645492134   -0.3891995837    4.0195726657
units bohr
0 2
}

basis {

assign 6-31g_2dfp_

[ 6-31g_2dfp_ ]

spherical

!----------------------------------------------------------------------
! Basis Set Exchange
! Version v0.8.13
! https://www.basissetexchange.org
!----------------------------------------------------------------------
!   Basis set: 6-31G(2df,p)
! Description: 6-31G(2df,p)
!        Role: orbital
!     Version: 0  (Data from the original Basis Set Exchange)
!----------------------------------------------------------------------

****
H     0
S    3   1.00
     18.7311370              0.03349460
      2.8253937              0.23472695
      0.6401217              0.81375733
S    1   1.00
      0.1612778              1.00000000
P    1   1.00
      1.5000000              1.0000000
P    1   1.00
      0.3750000              1.0000000
****
B     0
S    6   1.00
   2068.8823000              0.0018663
    310.6495700              0.0142515
     70.6830330              0.0695516
     19.8610800              0.2325729
      6.2993048              0.4670787
      2.1270270              0.3634314
SP   3   1.00
      4.7279710             -0.1303938              0.0745976
      1.1903377             -0.1307889              0.3078467
      0.3594117              1.1309444              0.7434568
SP   1   1.00
      0.1267512              1.0000000              1.0000000
D    1   1.00
      0.8020000              1.0000000
D    1   1.00
      0.2005000              1.0000000
F    1   1.00
      0.5000000              1.0000000
****
C     0
S    6   1.00
   3047.5249000              0.0018347
    457.3695100              0.0140373
    103.9486900              0.0688426
     29.2101550              0.2321844
      9.2866630              0.4679413
      3.1639270              0.3623120
SP   3   1.00
      7.8682724             -0.1193324              0.0689991
      1.8812885             -0.1608542              0.3164240
      0.5442493              1.1434564              0.7443083
SP   1   1.00
      0.1687144              1.0000000              1.0000000
D    1   1.00
      1.2520000              1.0000000
D    1   1.00
      0.3130000              1.0000000
F    1   1.00
      0.8000000              1.0000000
****
N     0
S    6   1.00
   4173.5110000              0.0018348
    627.4579000              0.0139950
    142.9021000              0.0685870
     40.2343300              0.2322410
     12.8202100              0.4690700
      4.3904370              0.3604550
SP   3   1.00
     11.6263580             -0.1149610              0.0675800
      2.7162800             -0.1691180              0.3239070
      0.7722180              1.1458520              0.7408950
SP   1   1.00
      0.2120313              1.0000000              1.0000000
D    1   1.00
      1.8260000              1.0000000
D    1   1.00
      0.4565000              1.0000000
F    1   1.00
      1.0000000              1.0000000
****
O     0
S    6   1.00
   5484.6717000              0.0018311
    825.2349500              0.0139501
    188.0469600              0.0684451
     52.9645000              0.2327143
     16.8975700              0.4701930
      5.7996353              0.3585209
SP   3   1.00
     15.5396160             -0.1107775              0.0708743
      3.5999336             -0.1480263              0.3397528
      1.0137618              1.1307670              0.7271586
SP   1   1.00
      0.2700058              1.0000000              1.0000000
D    1   1.00
      2.5840000              1.0000000
D    1   1.00
      0.6460000              1.0000000
F    1   1.00
      1.4000000              1.0000000
****
F     0
S    6   1.00
   7001.7130900              0.0018196169
   1051.3660900              0.0139160796
    239.2856900              0.0684053245
     67.3974453              0.233185760
     21.5199573              0.471267439
      7.40310130             0.356618546
SP   3   1.00
     20.8479528             -0.108506975            0.0716287243
      4.80830834            -0.146451658            0.3459121030
      1.34406986             1.128688580            0.7224699570
SP   1   1.00
      0.358151393            1.0000000              1.0000000
D    1   1.00
      3.5000000              1.0000000
D    1   1.00
      0.8750000              1.0000000
F    1   1.00
      1.8500000              1.0000000
****
Al     0
S    6   1.00
  13983.1000000              0.00194267
   2098.7500000              0.0148599
    477.7050000              0.0728494
    134.3600000              0.2468300
     42.8709000              0.4872580
     14.5189000              0.3234960
SP   6   1.00
    239.6680000             -0.00292619             0.00460285
     57.4419000             -0.0374080              0.0331990
     18.2859000             -0.1144870              0.1362820
      6.5991400              0.1156350              0.3304760
      2.4904900              0.6125950              0.4491460
      0.9445400              0.3937990              0.2657040
SP   3   1.00
      1.2779000             -0.2276060             -0.0175130
      0.3975900              0.00144583             0.2445330
      0.1600950              1.0927900              0.8049340
SP   1   1.00
      0.0556577              1.0000000              1.0000000
D    1   1.00
      0.6500000              1.0000000
D    1   1.00
      0.1625000              1.0000000
F    1   1.00
      0.2500000              1.0000000
****
Si     0
S    6   1.00
  16115.9000000              0.00195948
   2425.5800000              0.01492880
    553.8670000              0.07284780
    156.3400000              0.24613000
     50.0683000              0.48591400
     17.0178000              0.32500200
SP   6   1.00
    292.7180000             -0.00278094             0.00443826
     69.8731000             -0.03571460             0.03266790
     22.3363000             -0.11498500             0.13472100
      8.1503900              0.09356340             0.32867800
      3.1345800              0.60301700             0.44964000
      1.2254300              0.41895900             0.26137200
SP   3   1.00
      1.7273800             -0.24463000            -0.01779510
      0.5729220              0.00431572             0.25353900
      0.2221920              1.09818000             0.80066900
SP   1   1.00
      0.0778369              1.00000000             1.00000000
D    1   1.00
      0.9000000              1.0000000
D    1   1.00
      0.2250000              1.0000000
F    1   1.00
      0.3200000              1.0000000
****
P     0
S    6   1.00
  19413.3000000              0.0018516
   2909.4200000              0.0142062
    661.3640000              0.0699995
    185.7590000              0.2400790
     59.1943000              0.4847620
     20.0310000              0.3352000
SP   6   1.00
    339.4780000             -0.00278217             0.00456462
     81.0101000             -0.0360499              0.03369360
     25.8780000             -0.1166310              0.13975500
      9.4522100              0.0968328              0.33936200
      3.6656600              0.6144180              0.45092100
      1.4674600              0.4037980              0.23858600
SP   3   1.00
      2.1562300             -0.2529230             -0.01776530
      0.7489970              0.0328517              0.27405800
      0.2831450              1.0812500              0.78542100
SP   1   1.00
      0.0998317              1.0000000              1.00000000
D    1   1.00
      1.1000000              1.0000000
D    1   1.00
      0.2750000              1.0000000
F    1   1.00
      0.4500000              1.0000000
****
S     0
S    6   1.00
  21917.1000000              0.0018690
   3301.4900000              0.0142300
    754.1460000              0.0696960
    212.7110000              0.2384870
     67.9896000              0.4833070
     23.0515000              0.3380740
SP   6   1.00
    423.7350000             -0.0023767              0.0040610
    100.7100000             -0.0316930              0.0306810
     32.1599000             -0.1133170              0.1304520
     11.8079000              0.0560900              0.3272050
      4.6311000              0.5922550              0.4528510
      1.8702500              0.4550060              0.2560420
SP   3   1.00
      2.6158400             -0.2503740             -0.0145110
      0.9221670              0.0669570              0.3102630
      0.3412870              1.0545100              0.7544830
SP   1   1.00
      0.1171670              1.0000000              1.0000000
D    1   1.00
      1.3000000              1.0000000
D    1   1.00
      0.3250000              1.0000000
F    1   1.00
      0.5500000              1.0000000
****
Cl     0
S    6   1.00
  25180.1000000              0.0018330
   3780.3500000              0.0140340
    860.4740000              0.0690970
    242.1450000              0.2374520
     77.3349000              0.4830340
     26.2470000              0.3398560
SP   6   1.00
    491.7650000             -0.0022974              0.0039894
    116.9840000             -0.0307140              0.0303180
     37.4153000             -0.1125280              0.1298800
     13.7834000              0.0450160              0.3279510
      5.4521500              0.5893530              0.4535270
      2.2258800              0.4652060              0.2521540
SP   3   1.00
      3.1864900             -0.2518300             -0.0142990
      1.1442700              0.0615890              0.3235720
      0.4203770              1.0601800              0.7435070
SP   1   1.00
      0.1426570              1.0000000              1.0000000
D    1   1.00
      1.5000000              1.0000000
D    1   1.00
      0.3750000              1.0000000
F    1   1.00
      0.7000000              1.0000000
****
}

set {
reference uhf
freeze_core true
e_convergence 10
d_convergence 10
dft_spherical_points 1202
dft_radial_points 99
}

e = energy('b3lyp')

print_out('Grab this energy {0}'.format(e))
--------------------------------------------------------------------------

    Molecular point group: c1

    Geometry (in Bohr), charge = 0, multiplicity = 2:

       Center              X                  Y                   Z               Mass
    ------------   -----------------  -----------------  -----------------  -----------------
         C           -0.323376161871    -0.000002058526    -0.000000012779    12.000000000000
         C            0.061174877729    -1.400516742826    -2.427349770179    12.000000000000
         C            0.061055080629     2.802418222774     0.000797026621    12.000000000000
         C            0.061174951429    -1.401897212326     2.426552748921    12.000000000000
         H            2.083725516429    -1.642909940326    -2.848542819779     1.007825032230
         H           -0.763265290371    -0.391881857826    -4.028253223079     1.007825032230
         H           -0.764769943571    -3.286393516526    -2.346880818179     1.007825032230
         H            2.083586962229     3.288463650574     0.001579469121     1.007825032230
         H           -0.763506451071     3.684484483574     1.674716245421     1.007825032230
         H           -0.764847698871     3.675626090474    -1.672698815379     1.007825032230
         H            2.083725704629    -1.645646023426     2.846964217621     1.007825032230
         H           -0.763428201171    -3.292569623026     2.353543160621     1.007825032230
         H           -0.764606879271    -0.389199566826     4.019572671921     1.007825032230

  Charge       = 0
  Multiplicity = 2
  Basis Set: ANONYMOUS871C4C21
    Blend: 6-31G_2DFP_
  Basis Set: (ANONYMOUS871C4C21 AUX)
    Blend: DEF2-UNIVERSAL-JKFIT

    Orbital Energies [Eh]
    ---------------------

    Alpha Occupied:

       1A    -10.180275     2A    -10.166494     3A    -10.166494
       4A    -10.166449     5A     -0.797727     6A     -0.686548
       7A     -0.686547     8A     -0.531086     9A     -0.441225
      10A     -0.434812    11A     -0.434811    12A     -0.382858
      13A     -0.382856    14A     -0.363926    15A     -0.338004
      16A     -0.338004    17A     -0.168900

    Alpha Virtual:

      18A      0.076404    19A      0.134519    20A      0.134520
      21A      0.143039    22A      0.143039    23A      0.155178
      24A      0.179286    25A      0.179286    26A      0.203420
      27A      0.215273    28A      0.276007    29A      0.276009
      30A      0.399172    31A      0.399176    32A      0.403550
      33A      0.424372    34A      0.424372    35A      0.456725
      36A      0.495614    37A      0.495615    38A      0.512431
      39A      0.514112    40A      0.579149    41A      0.579157
      42A      0.592235    43A      0.592236    44A      0.603223
      45A      0.625665    46A      0.632560    47A      0.636809
      48A      0.636812    49A      0.663748    50A      0.663748
      51A      0.684406    52A      0.684407    53A      0.735303
      54A      0.826224    55A      0.826226    56A      0.854431
      57A      0.915736    58A      0.915742    59A      0.944666
      60A      0.945475    61A      0.961939    62A      0.961956
      63A      1.003568    64A      1.128521    65A      1.128533
      66A      1.143088    67A      1.163519    68A      1.163531
      69A      1.223767    70A      1.275032    71A      1.275035
      72A      1.278893    73A      1.325062    74A      1.325064
      75A      1.356834    76A      1.366545    77A      1.366549
      78A      1.393045    79A      1.405054    80A      1.405056
      81A      1.418055    82A      1.418061    83A      1.428666
      84A      1.492390    85A      1.500435    86A      1.543318
      87A      1.543319    88A      1.574641    89A      1.574643
      90A      1.671991    91A      1.740849    92A      1.740861
      93A      1.769850    94A      1.833892    95A      1.833892
      96A      1.973356    97A      2.019388    98A      2.020246
      99A      2.020250   100A      2.053720   101A      2.053721
     102A      2.739464   103A      2.739465   104A      2.791134
     105A      2.811943   106A      2.890512   107A      2.890518
     108A      2.895014   109A      2.929883   110A      2.929891
     111A      2.959624   112A      2.965033   113A      2.965046
     114A      3.034927   115A      3.072233   116A      3.072247
     117A      3.085276   118A      3.168124   119A      3.168132
     120A      3.180883   121A      3.285267   122A      3.285268
     123A      3.326671   124A      3.326677   125A      3.374913
     126A      3.489146   127A      3.489166   128A      3.513638
     129A      3.524810   130A      3.568562   131A      3.568582
     132A      3.573481   133A      3.667081   134A      3.667089
     135A      3.681458   136A      3.694955   137A      3.694970
     138A      3.777351   139A      3.777377   140A      3.789675
     141A      3.913175   142A      3.913182   143A      4.036794
     144A      4.113836   145A      4.113840   146A      4.151443
     147A      4.151451   148A      4.176217   149A      4.204065
     150A      4.204518   151A      4.204521   152A      4.214564
     153A      4.318206   154A      4.318226   155A      4.361378
     156A      4.427032   157A      4.427034   158A      4.445451
     159A      4.519267   160A      4.519269   161A      4.579743
     162A      4.579755   163A      4.618216   164A      4.711465
     165A      4.776360   166A      4.776368   167A      4.839234
     168A      4.963703   169A      5.004057   170A      5.004069
     171A      5.233332   172A      5.252112   173A      5.252113
     174A      5.360096   175A      5.360109   176A      5.482594

    Beta Occupied:

       1A    -10.167244     2A    -10.167243     3A    -10.167229
       4A    -10.166432     5A     -0.781080     6A     -0.684349
       7A     -0.684348     8A     -0.512000     9A     -0.431191
      10A     -0.431191    11A     -0.421959    12A     -0.376951
      13A     -0.376950    14A     -0.362913    15A     -0.333118
      16A     -0.333118

    Beta Virtual:

      17A     -0.025510    18A      0.077409    19A      0.135417
      20A      0.135418    21A      0.144882    22A      0.144882
      23A      0.163575    24A      0.182947    25A      0.182947
      26A      0.215428    27A      0.218894    28A      0.282364
      29A      0.282366    30A      0.400336    31A      0.400340
      32A      0.420012    33A      0.427184    34A      0.427185
      35A      0.468614    36A      0.497874    37A      0.497875
      38A      0.514161    39A      0.556516    40A      0.584715
      41A      0.584723    42A      0.598436    43A      0.598437
      44A      0.610633    45A      0.628967    46A      0.632771
      47A      0.640073    48A      0.640077    49A      0.667316
      50A      0.667317    51A      0.687006    52A      0.687007
      53A      0.757851    54A      0.831390    55A      0.831393
      56A      0.855760    57A      0.923692    58A      0.923699
      59A      0.946564    60A      0.954366    61A      0.967238
      62A      0.967254    63A      1.008818    64A      1.132534
      65A      1.132546    66A      1.156458    67A      1.168623
      68A      1.168636    69A      1.232723    70A      1.280616
      71A      1.280619    72A      1.284633    73A      1.330078
      74A      1.330080    75A      1.366273    76A      1.371786
      77A      1.371790    78A      1.394099    79A      1.408520
      80A      1.408523    81A      1.423102    82A      1.423108
      83A      1.428924    84A      1.493445    85A      1.510878
      86A      1.547596    87A      1.547597    88A      1.582620
      89A      1.582621    90A      1.676913    91A      1.746617
      92A      1.746628    93A      1.780573    94A      1.837717
      95A      1.837717    96A      1.974213    97A      2.026632
      98A      2.026636    99A      2.040739   100A      2.060432
     101A      2.060433   102A      2.747812   103A      2.747813
     104A      2.812348   105A      2.816304   106A      2.903244
     107A      2.903250   108A      2.924759   109A      2.932311
     110A      2.932320   111A      2.960696   112A      2.969619
     113A      2.969633   114A      3.042782   115A      3.082205
     116A      3.082217   117A      3.087097   118A      3.183833
     119A      3.183837   120A      3.188613   121A      3.290011
     122A      3.290011   123A      3.330485   124A      3.330490
     125A      3.382753   126A      3.491922   127A      3.491943
     128A      3.512032   129A      3.527846   130A      3.573339
     131A      3.581914   132A      3.581936   133A      3.672114
     134A      3.672125   135A      3.694813   136A      3.726421
     137A      3.726437   138A      3.781862   139A      3.781888
     140A      3.818249   141A      3.922978   142A      3.922985
     143A      4.047806   144A      4.120729   145A      4.120731
     146A      4.158618   147A      4.158626   148A      4.190131
     149A      4.210450   150A      4.210454   151A      4.211959
     152A      4.219014   153A      4.325564   154A      4.325584
     155A      4.364732   156A      4.435220   157A      4.435223
     158A      4.448313   159A      4.527047   160A      4.527048
     161A      4.590312   162A      4.590324   163A      4.625399
     164A      4.721803   165A      4.783311   166A      4.783318
     167A      4.842159   168A      4.968470   169A      5.008076
     170A      5.008089   171A      5.239023   172A      5.253891
     173A      5.253891   174A      5.366549   175A      5.366562
     176A      5.484903

    Final Occupation by Irrep:
              A
    DOCC [    16 ]
    SOCC [     1 ]

  @DF-UKS Final Energy:  -157.81301728497232

   => Energetics <=

    Nuclear Repulsion Energy =            125.4320419966486213
    One-Electron Energy =                -458.8198028078080597
    Two-Electron Energy =                 195.8859163299847808
    DFT Exchange-Correlation Energy =     -20.3111728037977031
    Empirical Dispersion Energy =           0.0000000000000000
    VV10 Nonlocal Energy =                  0.0000000000000000
    Total Energy =                       -157.8130172849723181

  UHF NO Occupations:
  HONO-2 :   15  A 1.9996034
  HONO-1 :   16  A 1.9989797
  HONO-0 :   17  A 1.0000000
  LUNO+0 :   18  A 0.0010203
  LUNO+1 :   19  A 0.0003966
  LUNO+2 :   20  A 0.0001979
  LUNO+3 :   21  A 0.0001979

Computation Completed

Properties will be evaluated at   0.000000,   0.000000,   0.000000 [a0]

Properties computed using the SCF density matrix

  Nuclear Dipole Moment: [e a0]
     X:     0.8268      Y:    -0.0000      Z:     0.0000

  Electronic Dipole Moment: [e a0]
     X:    -0.7482      Y:     0.0000      Z:    -0.0000

  Dipole Moment: [e a0]
     X:     0.0785      Y:    -0.0000      Z:    -0.0000     Total:     0.0785

  Dipole Moment: [D]
     X:     0.1997      Y:    -0.0000      Z:    -0.0000     Total:     0.1997

*** tstop() called on n082 at Fri Nov  5 14:56:45 2021
Module time:
	user time   =     466.31 seconds =       7.77 minutes
	system time =       4.25 seconds =       0.07 minutes
	total time  =        118 seconds =       1.97 minutes
Total time:
	user time   =     466.31 seconds =       7.77 minutes
	system time =       4.25 seconds =       0.07 minutes
	total time  =        118 seconds =       1.97 minutes
Grab this energy -157.81301728497232
    Psi4 stopped on: Friday, 05 November 2021 02:56PM
    Psi4 wall time for execution: 0:01:58.38

*** Psi4 exiting successfully. Buy a developer a beer!
