                               Psi4 1.4a2.dev629

  ==> Input File <==

--------------------------------------------------------------------------
import os
memory 14 GB

molecule {
 C   -0.3233415178   -0.0000033737   -0.0002248261
 C    0.0609937234   -1.4003780933   -2.4244010818
 C    0.0610192841    2.8017581085   -0.0012810468
 C    0.0612837993   -1.4013789955    2.4283610921
 H    2.0868634130   -1.6458452098   -2.8471215107
 H   -0.7659962443   -0.3873255215   -4.0215495677
 H   -0.7647484145   -3.2952921075   -2.3528689435
 H    2.0867979209    3.2881019444   -0.0013973326
 H   -0.7662563273    3.6758078276    1.6755788478
 H   -0.7650340008    3.6846996984   -1.6774126784
 H    2.0870042376   -1.6423520938    2.8477703995
 H   -0.7663794061   -3.2886945650    2.3451295238
 H   -0.7648143440   -0.3891219325    4.0294171245
units bohr
0 2
}

basis {

assign 6-31g_2dfp_

[ 6-31g_2dfp_ ]

spherical

!----------------------------------------------------------------------
! Basis Set Exchange
! Version v0.8.13
! https://www.basissetexchange.org
!----------------------------------------------------------------------
!   Basis set: 6-31G(2df,p)
! Description: 6-31G(2df,p)
!        Role: orbital
!     Version: 0  (Data from the original Basis Set Exchange)
!----------------------------------------------------------------------

****
H     0
S    3   1.00
     18.7311370              0.03349460
      2.8253937              0.23472695
      0.6401217              0.81375733
S    1   1.00
      0.1612778              1.00000000
P    1   1.00
      1.5000000              1.0000000
P    1   1.00
      0.3750000              1.0000000
****
B     0
S    6   1.00
   2068.8823000              0.0018663
    310.6495700              0.0142515
     70.6830330              0.0695516
     19.8610800              0.2325729
      6.2993048              0.4670787
      2.1270270              0.3634314
SP   3   1.00
      4.7279710             -0.1303938              0.0745976
      1.1903377             -0.1307889              0.3078467
      0.3594117              1.1309444              0.7434568
SP   1   1.00
      0.1267512              1.0000000              1.0000000
D    1   1.00
      0.8020000              1.0000000
D    1   1.00
      0.2005000              1.0000000
F    1   1.00
      0.5000000              1.0000000
****
C     0
S    6   1.00
   3047.5249000              0.0018347
    457.3695100              0.0140373
    103.9486900              0.0688426
     29.2101550              0.2321844
      9.2866630              0.4679413
      3.1639270              0.3623120
SP   3   1.00
      7.8682724             -0.1193324              0.0689991
      1.8812885             -0.1608542              0.3164240
      0.5442493              1.1434564              0.7443083
SP   1   1.00
      0.1687144              1.0000000              1.0000000
D    1   1.00
      1.2520000              1.0000000
D    1   1.00
      0.3130000              1.0000000
F    1   1.00
      0.8000000              1.0000000
****
N     0
S    6   1.00
   4173.5110000              0.0018348
    627.4579000              0.0139950
    142.9021000              0.0685870
     40.2343300              0.2322410
     12.8202100              0.4690700
      4.3904370              0.3604550
SP   3   1.00
     11.6263580             -0.1149610              0.0675800
      2.7162800             -0.1691180              0.3239070
      0.7722180              1.1458520              0.7408950
SP   1   1.00
      0.2120313              1.0000000              1.0000000
D    1   1.00
      1.8260000              1.0000000
D    1   1.00
      0.4565000              1.0000000
F    1   1.00
      1.0000000              1.0000000
****
O     0
S    6   1.00
   5484.6717000              0.0018311
    825.2349500              0.0139501
    188.0469600              0.0684451
     52.9645000              0.2327143
     16.8975700              0.4701930
      5.7996353              0.3585209
SP   3   1.00
     15.5396160             -0.1107775              0.0708743
      3.5999336             -0.1480263              0.3397528
      1.0137618              1.1307670              0.7271586
SP   1   1.00
      0.2700058              1.0000000              1.0000000
D    1   1.00
      2.5840000              1.0000000
D    1   1.00
      0.6460000              1.0000000
F    1   1.00
      1.4000000              1.0000000
****
F     0
S    6   1.00
   7001.7130900              0.0018196169
   1051.3660900              0.0139160796
    239.2856900              0.0684053245
     67.3974453              0.233185760
     21.5199573              0.471267439
      7.40310130             0.356618546
SP   3   1.00
     20.8479528             -0.108506975            0.0716287243
      4.80830834            -0.146451658            0.3459121030
      1.34406986             1.128688580            0.7224699570
SP   1   1.00
      0.358151393            1.0000000              1.0000000
D    1   1.00
      3.5000000              1.0000000
D    1   1.00
      0.8750000              1.0000000
F    1   1.00
      1.8500000              1.0000000
****
Al     0
S    6   1.00
  13983.1000000              0.00194267
   2098.7500000              0.0148599
    477.7050000              0.0728494
    134.3600000              0.2468300
     42.8709000              0.4872580
     14.5189000              0.3234960
SP   6   1.00
    239.6680000             -0.00292619             0.00460285
     57.4419000             -0.0374080              0.0331990
     18.2859000             -0.1144870              0.1362820
      6.5991400              0.1156350              0.3304760
      2.4904900              0.6125950              0.4491460
      0.9445400              0.3937990              0.2657040
SP   3   1.00
      1.2779000             -0.2276060             -0.0175130
      0.3975900              0.00144583             0.2445330
      0.1600950              1.0927900              0.8049340
SP   1   1.00
      0.0556577              1.0000000              1.0000000
D    1   1.00
      0.6500000              1.0000000
D    1   1.00
      0.1625000              1.0000000
F    1   1.00
      0.2500000              1.0000000
****
Si     0
S    6   1.00
  16115.9000000              0.00195948
   2425.5800000              0.01492880
    553.8670000              0.07284780
    156.3400000              0.24613000
     50.0683000              0.48591400
     17.0178000              0.32500200
SP   6   1.00
    292.7180000             -0.00278094             0.00443826
     69.8731000             -0.03571460             0.03266790
     22.3363000             -0.11498500             0.13472100
      8.1503900              0.09356340             0.32867800
      3.1345800              0.60301700             0.44964000
      1.2254300              0.41895900             0.26137200
SP   3   1.00
      1.7273800             -0.24463000            -0.01779510
      0.5729220              0.00431572             0.25353900
      0.2221920              1.09818000             0.80066900
SP   1   1.00
      0.0778369              1.00000000             1.00000000
D    1   1.00
      0.9000000              1.0000000
D    1   1.00
      0.2250000              1.0000000
F    1   1.00
      0.3200000              1.0000000
****
P     0
S    6   1.00
  19413.3000000              0.0018516
   2909.4200000              0.0142062
    661.3640000              0.0699995
    185.7590000              0.2400790
     59.1943000              0.4847620
     20.0310000              0.3352000
SP   6   1.00
    339.4780000             -0.00278217             0.00456462
     81.0101000             -0.0360499              0.03369360
     25.8780000             -0.1166310              0.13975500
      9.4522100              0.0968328              0.33936200
      3.6656600              0.6144180              0.45092100
      1.4674600              0.4037980              0.23858600
SP   3   1.00
      2.1562300             -0.2529230             -0.01776530
      0.7489970              0.0328517              0.27405800
      0.2831450              1.0812500              0.78542100
SP   1   1.00
      0.0998317              1.0000000              1.00000000
D    1   1.00
      1.1000000              1.0000000
D    1   1.00
      0.2750000              1.0000000
F    1   1.00
      0.4500000              1.0000000
****
S     0
S    6   1.00
  21917.1000000              0.0018690
   3301.4900000              0.0142300
    754.1460000              0.0696960
    212.7110000              0.2384870
     67.9896000              0.4833070
     23.0515000              0.3380740
SP   6   1.00
    423.7350000             -0.0023767              0.0040610
    100.7100000             -0.0316930              0.0306810
     32.1599000             -0.1133170              0.1304520
     11.8079000              0.0560900              0.3272050
      4.6311000              0.5922550              0.4528510
      1.8702500              0.4550060              0.2560420
SP   3   1.00
      2.6158400             -0.2503740             -0.0145110
      0.9221670              0.0669570              0.3102630
      0.3412870              1.0545100              0.7544830
SP   1   1.00
      0.1171670              1.0000000              1.0000000
D    1   1.00
      1.3000000              1.0000000
D    1   1.00
      0.3250000              1.0000000
F    1   1.00
      0.5500000              1.0000000
****
Cl     0
S    6   1.00
  25180.1000000              0.0018330
   3780.3500000              0.0140340
    860.4740000              0.0690970
    242.1450000              0.2374520
     77.3349000              0.4830340
     26.2470000              0.3398560
SP   6   1.00
    491.7650000             -0.0022974              0.0039894
    116.9840000             -0.0307140              0.0303180
     37.4153000             -0.1125280              0.1298800
     13.7834000              0.0450160              0.3279510
      5.4521500              0.5893530              0.4535270
      2.2258800              0.4652060              0.2521540
SP   3   1.00
      3.1864900             -0.2518300             -0.0142990
      1.1442700              0.0615890              0.3235720
      0.4203770              1.0601800              0.7435070
SP   1   1.00
      0.1426570              1.0000000              1.0000000
D    1   1.00
      1.5000000              1.0000000
D    1   1.00
      0.3750000              1.0000000
F    1   1.00
      0.7000000              1.0000000
****
}

set {
reference uhf
freeze_core true
e_convergence 10
d_convergence 10
dft_spherical_points 1202
dft_radial_points 99
}

e = energy('b3lyp')

print_out('Grab this energy {0}'.format(e))
--------------------------------------------------------------------------

    Molecular point group: c1

    Geometry (in Bohr), charge = 0, multiplicity = 2:

       Center              X                  Y                   Z               Mass
    ------------   -----------------  -----------------  -----------------  -----------------
         C           -0.323340607512    -0.000002490939    -0.000697510641    12.000000000000
         C            0.060994633688    -1.400377210539    -2.424873766341    12.000000000000
         C            0.061020194388     2.801758991261    -0.001753731341    12.000000000000
         C            0.061284709588    -1.401378112739     2.427888407559    12.000000000000
         H            2.086864323288    -1.645844327039    -2.847594195241     1.007825032230
         H           -0.765995334012    -0.387324638739    -4.022022252241     1.007825032230
         H           -0.764747504212    -3.295291224739    -2.353341628041     1.007825032230
         H            2.086798831188     3.288102827161    -0.001870017141     1.007825032230
         H           -0.766255417012     3.675808710361     1.675106163259     1.007825032230
         H           -0.765033090512     3.684700581161    -1.677885362941     1.007825032230
         H            2.087005147888    -1.642351211039     2.847297714959     1.007825032230
         H           -0.766378495812    -3.288693682239     2.344656839259     1.007825032230
         H           -0.764813433712    -0.389121049739     4.028944439959     1.007825032230

  Charge       = 0
  Multiplicity = 2
  Basis Set: ANONYMOUS8FD6FE5C
    Blend: 6-31G_2DFP_
  Basis Set: (ANONYMOUS8FD6FE5C AUX)
    Blend: DEF2-UNIVERSAL-JKFIT

    Orbital Energies [Eh]
    ---------------------

    Alpha Occupied:

       1A    -10.180342     2A    -10.167058     3A    -10.167019
       4A    -10.166968     5A     -0.797767     6A     -0.686210
       7A     -0.686164     8A     -0.530776     9A     -0.441124
      10A     -0.434755    11A     -0.434591    12A     -0.382688
      13A     -0.382508    14A     -0.363611    15A     -0.338206
      16A     -0.337790    17A     -0.168961

    Alpha Virtual:

      18A      0.076073    19A      0.134135    20A      0.134171
      21A      0.142565    22A      0.142693    23A      0.154880
      24A      0.178697    25A      0.178861    26A      0.203527
      27A      0.214819    28A      0.275760    29A      0.276210
      30A      0.399218    31A      0.399238    32A      0.403345
      33A      0.424054    34A      0.424142    35A      0.456593
      36A      0.495368    37A      0.495412    38A      0.512160
      39A      0.513981    40A      0.578777    41A      0.578852
      42A      0.591575    43A      0.591697    44A      0.602572
      45A      0.624687    46A      0.631850    47A      0.636084
      48A      0.636414    49A      0.663350    50A      0.663472
      51A      0.683832    52A      0.683874    53A      0.734993
      54A      0.825353    55A      0.825462    56A      0.853916
      57A      0.915010    58A      0.915041    59A      0.944020
      60A      0.944703    61A      0.961259    62A      0.961326
      63A      1.003466    64A      1.128029    65A      1.128179
      66A      1.142223    67A      1.162983    68A      1.163557
      69A      1.223325    70A      1.274188    71A      1.274792
      72A      1.279368    73A      1.324291    74A      1.324421
      75A      1.355975    76A      1.365899    77A      1.366203
      78A      1.392459    79A      1.403846    80A      1.404202
      81A      1.416973    82A      1.417285    83A      1.427928
      84A      1.491491    85A      1.499083    86A      1.542759
      87A      1.542900    88A      1.574252    89A      1.574638
      90A      1.669828    91A      1.739289    92A      1.739562
      93A      1.768317    94A      1.830894    95A      1.831904
      96A      1.971730    97A      2.018214    98A      2.018577
      99A      2.019607   100A      2.051964   101A      2.053325
     102A      2.738364   103A      2.738606   104A      2.790920
     105A      2.811429   106A      2.889876   107A      2.890030
     108A      2.894945   109A      2.929436   110A      2.929558
     111A      2.958996   112A      2.964297   113A      2.964456
     114A      3.034014   115A      3.071149   116A      3.071420
     117A      3.084347   118A      3.168583   119A      3.168962
     120A      3.180605   121A      3.285290   122A      3.285315
     123A      3.326988   124A      3.327362   125A      3.375612
     126A      3.489816   127A      3.490476   128A      3.513929
     129A      3.525420   130A      3.568306   131A      3.568473
     132A      3.575146   133A      3.665692   134A      3.667057
     135A      3.679664   136A      3.693991   137A      3.694232
     138A      3.776637   139A      3.777000   140A      3.789118
     141A      3.911492   142A      3.912991   143A      4.034459
     144A      4.111213   145A      4.111527   146A      4.147825
     147A      4.148421   148A      4.173233   149A      4.202328
     150A      4.202888   151A      4.203572   152A      4.210871
     153A      4.315226   154A      4.316671   155A      4.358963
     156A      4.423480   157A      4.425343   158A      4.443536
     159A      4.516189   160A      4.517498   161A      4.578245
     162A      4.578290   163A      4.617550   164A      4.709430
     165A      4.774258   166A      4.774890   167A      4.836934
     168A      4.962854   169A      5.002262   170A      5.003687
     171A      5.228039   172A      5.246618   173A      5.247016
     174A      5.355439   175A      5.355569   176A      5.479347

    Beta Occupied:

       1A    -10.167816     2A    -10.167776     3A    -10.167732
       4A    -10.166520     5A     -0.781092     6A     -0.684019
       7A     -0.683961     8A     -0.511747     9A     -0.431127
      10A     -0.430960    11A     -0.421823    12A     -0.376793
      13A     -0.376573    14A     -0.362595    15A     -0.333330
      16A     -0.332912

    Beta Virtual:

      17A     -0.025743    18A      0.077082    19A      0.135039
      20A      0.135047    21A      0.144452    22A      0.144547
      23A      0.163339    24A      0.182380    25A      0.182520
      26A      0.214983    27A      0.218975    28A      0.282117
      29A      0.282549    30A      0.400391    31A      0.400405
      32A      0.419791    33A      0.426864    34A      0.426954
      35A      0.468501    36A      0.497622    37A      0.497679
      38A      0.513896    39A      0.556325    40A      0.584322
      41A      0.584407    42A      0.597755    43A      0.597876
      44A      0.609996    45A      0.628006    46A      0.632063
      47A      0.639373    48A      0.639695    49A      0.666908
      50A      0.667042    51A      0.686480    52A      0.686496
      53A      0.757516    54A      0.830517    55A      0.830636
      56A      0.855269    57A      0.922979    58A      0.923015
      59A      0.945938    60A      0.953552    61A      0.966568
      62A      0.966629    63A      1.008705    64A      1.132062
      65A      1.132203    66A      1.155594    67A      1.168041
      68A      1.168651    69A      1.232297    70A      1.279780
      71A      1.280391    72A      1.285121    73A      1.329294
      74A      1.329397    75A      1.365389    76A      1.371169
      77A      1.371418    78A      1.393520    79A      1.407368
      80A      1.407621    81A      1.422035    82A      1.422310
      83A      1.428203    84A      1.492541    85A      1.509526
      86A      1.547158    87A      1.547316    88A      1.582118
      89A      1.582516    90A      1.674675    91A      1.745046
      92A      1.745327    93A      1.779098    94A      1.834759
      95A      1.835749    96A      1.972591    97A      2.024909
      98A      2.025997    99A      2.039665   100A      2.058680
     101A      2.060043   102A      2.746722   103A      2.746919
     104A      2.811831   105A      2.816065   106A      2.902589
     107A      2.902699   108A      2.924641   109A      2.931933
     110A      2.932023   111A      2.960062   112A      2.968828
     113A      2.969015   114A      3.041948   115A      3.081064
     116A      3.081323   117A      3.086167   118A      3.184296
     119A      3.184704   120A      3.188333   121A      3.290081
     122A      3.290118   123A      3.330802   124A      3.331160
     125A      3.383429   126A      3.492525   127A      3.493229
     128A      3.512319   129A      3.528442   130A      3.575003
     131A      3.581625   132A      3.581828   133A      3.670412
     134A      3.671837   135A      3.692957   136A      3.725614
     137A      3.725876   138A      3.781120   139A      3.781569
     140A      3.817665   141A      3.921360   142A      3.922757
     143A      4.045346   144A      4.117926   145A      4.118444
     146A      4.155130   147A      4.155534   148A      4.187290
     149A      4.208560   150A      4.209344   151A      4.210720
     152A      4.215354   153A      4.322637   154A      4.324139
     155A      4.362328   156A      4.431714   157A      4.433512
     158A      4.446449   159A      4.523984   160A      4.525282
     161A      4.588831   162A      4.588907   163A      4.624742
     164A      4.719772   165A      4.781230   166A      4.781824
     167A      4.839855   168A      4.967649   169A      5.006316
     170A      5.007711   171A      5.233755   172A      5.248410
     173A      5.248793   174A      5.361899   175A      5.362070
     176A      5.481669

    Final Occupation by Irrep:
              A
    DOCC [    16 ]
    SOCC [     1 ]

  @DF-UKS Final Energy:  -157.81306586563196

   => Energetics <=

    Nuclear Repulsion Energy =            125.3946074723324244
    One-Electron Energy =                -458.7488686668538094
    Two-Electron Energy =                 195.8483381695020284
    DFT Exchange-Correlation Energy =     -20.3071428406126095
    Empirical Dispersion Energy =           0.0000000000000000
    VV10 Nonlocal Energy =                  0.0000000000000000
    Total Energy =                       -157.8130658656319554

  UHF NO Occupations:
  HONO-2 :   15  A 1.9996009
  HONO-1 :   16  A 1.9989804
  HONO-0 :   17  A 1.0000000
  LUNO+0 :   18  A 0.0010196
  LUNO+1 :   19  A 0.0003991
  LUNO+2 :   20  A 0.0001979
  LUNO+3 :   21  A 0.0001972

Computation Completed

Properties will be evaluated at   0.000000,   0.000000,   0.000000 [a0]

Properties computed using the SCF density matrix

  Nuclear Dipole Moment: [e a0]
     X:     0.8272      Y:    -0.0000      Z:    -0.0033

  Electronic Dipole Moment: [e a0]
     X:    -0.7493      Y:     0.0000      Z:     0.0034

  Dipole Moment: [e a0]
     X:     0.0779      Y:     0.0000      Z:     0.0001     Total:     0.0779

  Dipole Moment: [D]
     X:     0.1980      Y:     0.0000      Z:     0.0002     Total:     0.1980

*** tstop() called on n073 at Fri Nov  5 13:14:43 2021
Module time:
	user time   =     724.71 seconds =      12.08 minutes
	system time =      17.90 seconds =       0.30 minutes
	total time  =        186 seconds =       3.10 minutes
Total time:
	user time   =     724.71 seconds =      12.08 minutes
	system time =      17.90 seconds =       0.30 minutes
	total time  =        186 seconds =       3.10 minutes
Grab this energy -157.81306586563196
    Psi4 stopped on: Friday, 05 November 2021 01:14PM
    Psi4 wall time for execution: 0:03:06.50

*** Psi4 exiting successfully. Buy a developer a beer!
