                               Psi4 1.4a2.dev629

  ==> Input File <==

--------------------------------------------------------------------------
import os
memory 14 GB

molecule {
 C   -0.3243653684   -0.0000020864    0.0000000000
 C    0.0600796486   -1.4009546758   -2.4265141061
 C    0.0599597827    2.8019134769   -0.0000000000
 C    0.0600796486   -1.4009546758    2.4265141061
 H    2.0902494138   -1.6443072607   -2.8478029679
 H   -0.7663607954   -0.3901294629   -4.0240874678
 H   -0.7665232846   -3.2898376977   -2.3499432613
 H    2.0901106794    3.2885213892   -0.0000000000
 H   -0.7666014676    3.6800005505    1.6741501975
 H   -0.7666014676    3.6800005505   -1.6741501975
 H    2.0902494138   -1.6443072607    2.8478029679
 H   -0.7665232846   -3.2898376977    2.3499432613
 H   -0.7663607954   -0.3901294629    4.0240874678
units bohr
0 2
}

basis {

assign 6-31g_2dfp_

[ 6-31g_2dfp_ ]

spherical

!----------------------------------------------------------------------
! Basis Set Exchange
! Version v0.8.13
! https://www.basissetexchange.org
!----------------------------------------------------------------------
!   Basis set: 6-31G(2df,p)
! Description: 6-31G(2df,p)
!        Role: orbital
!     Version: 0  (Data from the original Basis Set Exchange)
!----------------------------------------------------------------------

****
H     0
S    3   1.00
     18.7311370              0.03349460
      2.8253937              0.23472695
      0.6401217              0.81375733
S    1   1.00
      0.1612778              1.00000000
P    1   1.00
      1.5000000              1.0000000
P    1   1.00
      0.3750000              1.0000000
****
B     0
S    6   1.00
   2068.8823000              0.0018663
    310.6495700              0.0142515
     70.6830330              0.0695516
     19.8610800              0.2325729
      6.2993048              0.4670787
      2.1270270              0.3634314
SP   3   1.00
      4.7279710             -0.1303938              0.0745976
      1.1903377             -0.1307889              0.3078467
      0.3594117              1.1309444              0.7434568
SP   1   1.00
      0.1267512              1.0000000              1.0000000
D    1   1.00
      0.8020000              1.0000000
D    1   1.00
      0.2005000              1.0000000
F    1   1.00
      0.5000000              1.0000000
****
C     0
S    6   1.00
   3047.5249000              0.0018347
    457.3695100              0.0140373
    103.9486900              0.0688426
     29.2101550              0.2321844
      9.2866630              0.4679413
      3.1639270              0.3623120
SP   3   1.00
      7.8682724             -0.1193324              0.0689991
      1.8812885             -0.1608542              0.3164240
      0.5442493              1.1434564              0.7443083
SP   1   1.00
      0.1687144              1.0000000              1.0000000
D    1   1.00
      1.2520000              1.0000000
D    1   1.00
      0.3130000              1.0000000
F    1   1.00
      0.8000000              1.0000000
****
N     0
S    6   1.00
   4173.5110000              0.0018348
    627.4579000              0.0139950
    142.9021000              0.0685870
     40.2343300              0.2322410
     12.8202100              0.4690700
      4.3904370              0.3604550
SP   3   1.00
     11.6263580             -0.1149610              0.0675800
      2.7162800             -0.1691180              0.3239070
      0.7722180              1.1458520              0.7408950
SP   1   1.00
      0.2120313              1.0000000              1.0000000
D    1   1.00
      1.8260000              1.0000000
D    1   1.00
      0.4565000              1.0000000
F    1   1.00
      1.0000000              1.0000000
****
O     0
S    6   1.00
   5484.6717000              0.0018311
    825.2349500              0.0139501
    188.0469600              0.0684451
     52.9645000              0.2327143
     16.8975700              0.4701930
      5.7996353              0.3585209
SP   3   1.00
     15.5396160             -0.1107775              0.0708743
      3.5999336             -0.1480263              0.3397528
      1.0137618              1.1307670              0.7271586
SP   1   1.00
      0.2700058              1.0000000              1.0000000
D    1   1.00
      2.5840000              1.0000000
D    1   1.00
      0.6460000              1.0000000
F    1   1.00
      1.4000000              1.0000000
****
F     0
S    6   1.00
   7001.7130900              0.0018196169
   1051.3660900              0.0139160796
    239.2856900              0.0684053245
     67.3974453              0.233185760
     21.5199573              0.471267439
      7.40310130             0.356618546
SP   3   1.00
     20.8479528             -0.108506975            0.0716287243
      4.80830834            -0.146451658            0.3459121030
      1.34406986             1.128688580            0.7224699570
SP   1   1.00
      0.358151393            1.0000000              1.0000000
D    1   1.00
      3.5000000              1.0000000
D    1   1.00
      0.8750000              1.0000000
F    1   1.00
      1.8500000              1.0000000
****
Al     0
S    6   1.00
  13983.1000000              0.00194267
   2098.7500000              0.0148599
    477.7050000              0.0728494
    134.3600000              0.2468300
     42.8709000              0.4872580
     14.5189000              0.3234960
SP   6   1.00
    239.6680000             -0.00292619             0.00460285
     57.4419000             -0.0374080              0.0331990
     18.2859000             -0.1144870              0.1362820
      6.5991400              0.1156350              0.3304760
      2.4904900              0.6125950              0.4491460
      0.9445400              0.3937990              0.2657040
SP   3   1.00
      1.2779000             -0.2276060             -0.0175130
      0.3975900              0.00144583             0.2445330
      0.1600950              1.0927900              0.8049340
SP   1   1.00
      0.0556577              1.0000000              1.0000000
D    1   1.00
      0.6500000              1.0000000
D    1   1.00
      0.1625000              1.0000000
F    1   1.00
      0.2500000              1.0000000
****
Si     0
S    6   1.00
  16115.9000000              0.00195948
   2425.5800000              0.01492880
    553.8670000              0.07284780
    156.3400000              0.24613000
     50.0683000              0.48591400
     17.0178000              0.32500200
SP   6   1.00
    292.7180000             -0.00278094             0.00443826
     69.8731000             -0.03571460             0.03266790
     22.3363000             -0.11498500             0.13472100
      8.1503900              0.09356340             0.32867800
      3.1345800              0.60301700             0.44964000
      1.2254300              0.41895900             0.26137200
SP   3   1.00
      1.7273800             -0.24463000            -0.01779510
      0.5729220              0.00431572             0.25353900
      0.2221920              1.09818000             0.80066900
SP   1   1.00
      0.0778369              1.00000000             1.00000000
D    1   1.00
      0.9000000              1.0000000
D    1   1.00
      0.2250000              1.0000000
F    1   1.00
      0.3200000              1.0000000
****
P     0
S    6   1.00
  19413.3000000              0.0018516
   2909.4200000              0.0142062
    661.3640000              0.0699995
    185.7590000              0.2400790
     59.1943000              0.4847620
     20.0310000              0.3352000
SP   6   1.00
    339.4780000             -0.00278217             0.00456462
     81.0101000             -0.0360499              0.03369360
     25.8780000             -0.1166310              0.13975500
      9.4522100              0.0968328              0.33936200
      3.6656600              0.6144180              0.45092100
      1.4674600              0.4037980              0.23858600
SP   3   1.00
      2.1562300             -0.2529230             -0.01776530
      0.7489970              0.0328517              0.27405800
      0.2831450              1.0812500              0.78542100
SP   1   1.00
      0.0998317              1.0000000              1.00000000
D    1   1.00
      1.1000000              1.0000000
D    1   1.00
      0.2750000              1.0000000
F    1   1.00
      0.4500000              1.0000000
****
S     0
S    6   1.00
  21917.1000000              0.0018690
   3301.4900000              0.0142300
    754.1460000              0.0696960
    212.7110000              0.2384870
     67.9896000              0.4833070
     23.0515000              0.3380740
SP   6   1.00
    423.7350000             -0.0023767              0.0040610
    100.7100000             -0.0316930              0.0306810
     32.1599000             -0.1133170              0.1304520
     11.8079000              0.0560900              0.3272050
      4.6311000              0.5922550              0.4528510
      1.8702500              0.4550060              0.2560420
SP   3   1.00
      2.6158400             -0.2503740             -0.0145110
      0.9221670              0.0669570              0.3102630
      0.3412870              1.0545100              0.7544830
SP   1   1.00
      0.1171670              1.0000000              1.0000000
D    1   1.00
      1.3000000              1.0000000
D    1   1.00
      0.3250000              1.0000000
F    1   1.00
      0.5500000              1.0000000
****
Cl     0
S    6   1.00
  25180.1000000              0.0018330
   3780.3500000              0.0140340
    860.4740000              0.0690970
    242.1450000              0.2374520
     77.3349000              0.4830340
     26.2470000              0.3398560
SP   6   1.00
    491.7650000             -0.0022974              0.0039894
    116.9840000             -0.0307140              0.0303180
     37.4153000             -0.1125280              0.1298800
     13.7834000              0.0450160              0.3279510
      5.4521500              0.5893530              0.4535270
      2.2258800              0.4652060              0.2521540
SP   3   1.00
      3.1864900             -0.2518300             -0.0142990
      1.1442700              0.0615890              0.3235720
      0.4203770              1.0601800              0.7435070
SP   1   1.00
      0.1426570              1.0000000              1.0000000
D    1   1.00
      1.5000000              1.0000000
D    1   1.00
      0.3750000              1.0000000
F    1   1.00
      0.7000000              1.0000000
****
}

set {
reference uhf
freeze_core true
e_convergence 10
d_convergence 10
dft_spherical_points 1202
dft_radial_points 99
}

e = energy('b3lyp')

print_out('Grab this energy {0}'.format(e))
--------------------------------------------------------------------------

    Molecular point group: cs

    Geometry (in Bohr), charge = 0, multiplicity = 2:

       Center              X                  Y                   Z               Mass
    ------------   -----------------  -----------------  -----------------  -----------------
         C           -0.323555204019    -0.000002049747     0.000000000000    12.000000000000
         C            0.060889812981    -1.400954639147    -2.426514106100    12.000000000000
         C            0.060769947081     2.801913513553     0.000000000000    12.000000000000
         C            0.060889812981    -1.400954639147     2.426514106100    12.000000000000
         H            2.091059578181    -1.644307224047    -2.847802967900     1.007825032230
         H           -0.765550631019    -0.390129426247    -4.024087467800     1.007825032230
         H           -0.765713120219    -3.289837661047    -2.349943261300     1.007825032230
         H            2.090920843781     3.288521425853     0.000000000000     1.007825032230
         H           -0.765791303219     3.680000587153     1.674150197500     1.007825032230
         H           -0.765791303219     3.680000587153    -1.674150197500     1.007825032230
         H            2.091059578181    -1.644307224047     2.847802967900     1.007825032230
         H           -0.765713120219    -3.289837661047     2.349943261300     1.007825032230
         H           -0.765550631019    -0.390129426247     4.024087467800     1.007825032230

  Charge       = 0
  Multiplicity = 2
  Basis Set: ANONYMOUS71B491E1
    Blend: 6-31G_2DFP_
  Basis Set: (ANONYMOUS71B491E1 AUX)
    Blend: DEF2-UNIVERSAL-JKFIT

    Orbital Energies [Eh]
    ---------------------

    Alpha Occupied:

       1Ap   -10.180401     2Ap   -10.167033     1App  -10.167033
       3Ap   -10.166988     4Ap    -0.797729     5Ap    -0.686182
       2App   -0.686182     6Ap    -0.530769     7Ap    -0.441025
       3App   -0.434716     8Ap    -0.434716     9Ap    -0.382462
       4App   -0.382460     5App   -0.363790     6App   -0.338053
      10Ap    -0.338053    11Ap    -0.168999

    Alpha Virtual:

      12Ap     0.076157    13Ap     0.134147     7App    0.134148
      14Ap     0.142703     8App    0.142703    15Ap     0.154712
      16Ap     0.178604     9App    0.178605    17Ap     0.203505
      10App    0.215076    11App    0.275960    18Ap     0.275962
      19Ap     0.399107    12App    0.399111    20Ap     0.403255
      13App    0.424285    21Ap     0.424286    22Ap     0.456518
      23Ap     0.495569    14App    0.495570    15App    0.512042
      24Ap     0.513826    25Ap     0.578640    16App    0.578649
      17App    0.591369    26Ap     0.591370    27Ap     0.601818
      28Ap     0.625275    18App    0.632164    19App    0.636616
      29Ap     0.636620    30Ap     0.662926    20App    0.662926
      31Ap     0.684102    21App    0.684103    32Ap     0.735056
      22App    0.825372    33Ap     0.825375    23App    0.853637
      24App    0.914800    34Ap     0.914806    25App    0.944414
      35Ap     0.944754    26App    0.961187    36Ap     0.961204
      37Ap     1.003266    38Ap     1.128355    27App    1.128368
      39Ap     1.141501    40Ap     1.163529    28App    1.163541
      41Ap     1.223738    42Ap     1.274251    29App    1.274254
      43Ap     1.279190    30App    1.324140    44Ap     1.324143
      45Ap     1.356512    31App    1.365972    46Ap     1.365976
      32App    1.392403    47Ap     1.403023    33App    1.403025
      34App    1.418087    48Ap     1.418094    35App    1.427695
      36App    1.491483    49Ap     1.498152    37App    1.542462
      50Ap     1.542464    51Ap     1.574809    38App    1.574811
      52Ap     1.671087    53Ap     1.738571    39App    1.738582
      54Ap     1.766457    40App    1.832792    55Ap     1.832793
      41App    1.972743    56Ap     2.018216    57Ap     2.019020
      42App    2.019022    58Ap     2.051402    43App    2.051403
      44App    2.738804    59Ap     2.738805    60Ap     2.790532
      45App    2.811882    61Ap     2.889579    46App    2.889585
      62Ap     2.894597    63Ap     2.929698    47App    2.929707
      48App    2.958864    64Ap     2.963950    49App    2.963964
      65Ap     3.033319    50App    3.071247    66Ap     3.071261
      51App    3.085757    67Ap     3.168654    52App    3.168661
      68Ap     3.180538    53App    3.285220    69Ap     3.285220
      70Ap     3.327788    54App    3.327794    71Ap     3.375785
      55App    3.489929    72Ap     3.489949    56App    3.512803
      73Ap     3.526534    57App    3.567976    74Ap     3.567996
      58App    3.574316    75Ap     3.666010    59App    3.666018
      76Ap     3.680256    60App    3.694309    77Ap     3.694325
      78Ap     3.777209    61App    3.777235    79Ap     3.788331
      80Ap     3.912783    62App    3.912789    81Ap     4.034878
      82Ap     4.111320    63App    4.111324    83Ap     4.147505
      64App    4.147513    84Ap     4.171465    85Ap     4.202685
      65App    4.203912    86Ap     4.203915    66App    4.209651
      87Ap     4.315523    67App    4.315542    68App    4.360215
      88Ap     4.423729    69App    4.423731    70App    4.443680
      71App    4.516184    89Ap     4.516185    72App    4.578964
      90Ap     4.578976    91Ap     4.617392    92Ap     4.708935
      93Ap     4.774718    73App    4.774726    74App    4.838255
      94Ap     4.963172    75App    5.001636    95Ap     5.001648
      96Ap     5.225326    76App    5.249808    97Ap     5.249809
      98Ap     5.353545    77App    5.353559    78App    5.481308

    Beta Occupied:

       1Ap   -10.167788     1App  -10.167787     2Ap   -10.167763
       3Ap   -10.166584     4Ap    -0.781061     5Ap    -0.683997
       2App   -0.683997     6Ap    -0.511789     3App   -0.431111
       7Ap    -0.431111     8Ap    -0.421664     9Ap    -0.376522
       4App   -0.376520     5App   -0.362783     6App   -0.333173
      10Ap    -0.333172

    Beta Virtual:

      11Ap    -0.025872    12Ap     0.077183    13Ap     0.135109
       7App    0.135110    14Ap     0.144546     8App    0.144547
      15Ap     0.163191    16Ap     0.182247     9App    0.182247
      10App    0.215298    17Ap     0.218886    11App    0.282312
      18Ap     0.282314    19Ap     0.400278    12App    0.400282
      20Ap     0.419799    13App    0.427096    21Ap     0.427097
      22Ap     0.468326    23Ap     0.497839    14App    0.497839
      15App    0.513785    24Ap     0.556133    25Ap     0.584218
      16App    0.584226    17App    0.597540    26Ap     0.597541
      27Ap     0.609364    28Ap     0.628526    18App    0.632318
      19App    0.639864    29Ap     0.639868    30Ap     0.666520
      20App    0.666521    31Ap     0.686725    21App    0.686726
      32Ap     0.757576    22App    0.830562    33Ap     0.830565
      23App    0.854999    24App    0.922789    34Ap     0.922796
      25App    0.946242    35Ap     0.953732    26App    0.966459
      36Ap     0.966475    37Ap     1.008466    38Ap     1.132420
      27App    1.132431    39Ap     1.154961    40Ap     1.168577
      28App    1.168590    41Ap     1.232695    42Ap     1.279825
      29App    1.279829    43Ap     1.284887    30App    1.329177
      44Ap     1.329179    45Ap     1.365910    31App    1.371287
      46Ap     1.371291    32App    1.393476    47Ap     1.406430
      33App    1.406433    34App    1.423104    48Ap     1.423111
      35App    1.427969    36App    1.492505    49Ap     1.508603
      50Ap     1.546901    37App    1.546902    38App    1.582665
      51Ap     1.582666    52Ap     1.675985    53Ap     1.744327
      39App    1.744338    54Ap     1.777226    40App    1.836649
      55Ap     1.836650    41App    1.973588    56Ap     2.025277
      42App    2.025280    57Ap     2.039584    58Ap     2.058242
      43App    2.058244    44App    2.747148    59Ap     2.747149
      45App    2.812296    60Ap     2.815630    61Ap     2.902241
      46App    2.902247    62Ap     2.924108    63Ap     2.932179
      47App    2.932188    48App    2.959923    64Ap     2.968459
      49App    2.968473    65Ap     3.041470    50App    3.081146
      66Ap     3.081158    51App    3.087572    67Ap     3.184425
      52App    3.184429    68Ap     3.188196    69Ap     3.290050
      53App    3.290050    70Ap     3.331557    54App    3.331563
      71Ap     3.383578    55App    3.492620    72Ap     3.492640
      56App    3.511165    73Ap     3.529565    57App    3.574171
      58App    3.581487    74Ap     3.581509    75Ap     3.670664
      59App    3.670676    76Ap     3.693526    60App    3.725937
      77Ap     3.725953    78Ap     3.781671    61App    3.781697
      79Ap     3.816903    80Ap     3.922655    62App    3.922662
      81Ap     4.045828    82Ap     4.118140    63App    4.118142
      83Ap     4.154704    64App    4.154713    84Ap     4.185551
      65App    4.209971    85Ap     4.209974    86Ap     4.210593
      66App    4.214244    87Ap     4.322899    67App    4.322919
      68App    4.363531    88Ap     4.431943    69App    4.431945
      70App    4.446510    71App    4.524009    89Ap     4.524010
      72App    4.589524    90Ap     4.589536    91Ap     4.624492
      92Ap     4.719397    93Ap     4.781622    73App    4.781630
      74App    4.841160    94Ap     4.967980    75App    5.005701
      95Ap     5.005713    96Ap     5.231007    76App    5.251579
      97Ap     5.251579    98Ap     5.359998    77App    5.360011
      78App    5.483617

    Final Occupation by Irrep:
             Ap   App
    DOCC [    10,    6 ]
    SOCC [     1,    0 ]

  @DF-UKS Final Energy:  -157.81306103733175

   => Energetics <=

    Nuclear Repulsion Energy =            125.3892619016531000
    One-Electron Energy =                -458.7381357687613672
    Two-Electron Energy =                 195.8428486151568109
    DFT Exchange-Correlation Energy =     -20.3070357853802612
    Empirical Dispersion Energy =           0.0000000000000000
    VV10 Nonlocal Energy =                  0.0000000000000000
    Total Energy =                       -157.8130610373317495

  UHF NO Occupations:
  HONO-2 :    9 Ap 1.9995985
  HONO-1 :   10 Ap 1.9989796
  HONO-0 :   11 Ap 1.0000000
  LUNO+0 :   12 Ap 0.0010204
  LUNO+1 :   13 Ap 0.0004015
  LUNO+2 :    7App 0.0001975
  LUNO+3 :   14 Ap 0.0001975

Computation Completed

Properties will be evaluated at   0.000000,   0.000000,   0.000000 [a0]

Properties computed using the SCF density matrix

  Nuclear Dipole Moment: [e a0]
     X:     0.8329      Y:    -0.0000      Z:    -0.0000

  Electronic Dipole Moment: [e a0]
     X:    -0.7582      Y:     0.0000      Z:     0.0000

  Dipole Moment: [e a0]
     X:     0.0747      Y:    -0.0000      Z:    -0.0000     Total:     0.0747

  Dipole Moment: [D]
     X:     0.1899      Y:    -0.0000      Z:    -0.0000     Total:     0.1899

*** tstop() called on n082 at Fri Nov  5 14:47:56 2021
Module time:
	user time   =     627.74 seconds =      10.46 minutes
	system time =       5.82 seconds =       0.10 minutes
	total time  =        159 seconds =       2.65 minutes
Total time:
	user time   =     627.74 seconds =      10.46 minutes
	system time =       5.82 seconds =       0.10 minutes
	total time  =        159 seconds =       2.65 minutes
Grab this energy -157.81306103733175
    Psi4 stopped on: Friday, 05 November 2021 02:47PM
    Psi4 wall time for execution: 0:02:39.18

*** Psi4 exiting successfully. Buy a developer a beer!
