                               Psi4 1.4a2.dev629

  ==> Input File <==

--------------------------------------------------------------------------
import os
memory 14 GB

molecule {
 C   -0.3233383826   -0.0010230445   -0.0010204582
 C    0.0621624223   -1.4000377639   -2.4262432050
 C    0.0602718334    2.8021525286    0.0018043234
 C    0.0608649445   -1.3988160315    2.4277357078
 H    2.0868262785   -1.6443841048   -2.8474261195
 H   -0.7657506126   -0.3884923443   -4.0254846490
 H   -0.7658059470   -3.2920151633   -2.3490638969
 H    2.0868791685    3.2880042859   -0.0006997837
 H   -0.7655808087    3.6802637057    1.6763158759
 H   -0.7652849961    3.6800820118   -1.6768753273
 H    2.0869642805   -1.6449053377    2.8469293861
 H   -0.7652878121   -3.2922859145    2.3486422252
 H   -0.7655282453   -0.3885671410    4.0253859210
units bohr
0 2
}

basis {

assign 6-31g_2dfp_

[ 6-31g_2dfp_ ]

spherical

!----------------------------------------------------------------------
! Basis Set Exchange
! Version v0.8.13
! https://www.basissetexchange.org
!----------------------------------------------------------------------
!   Basis set: 6-31G(2df,p)
! Description: 6-31G(2df,p)
!        Role: orbital
!     Version: 0  (Data from the original Basis Set Exchange)
!----------------------------------------------------------------------

****
H     0
S    3   1.00
     18.7311370              0.03349460
      2.8253937              0.23472695
      0.6401217              0.81375733
S    1   1.00
      0.1612778              1.00000000
P    1   1.00
      1.5000000              1.0000000
P    1   1.00
      0.3750000              1.0000000
****
B     0
S    6   1.00
   2068.8823000              0.0018663
    310.6495700              0.0142515
     70.6830330              0.0695516
     19.8610800              0.2325729
      6.2993048              0.4670787
      2.1270270              0.3634314
SP   3   1.00
      4.7279710             -0.1303938              0.0745976
      1.1903377             -0.1307889              0.3078467
      0.3594117              1.1309444              0.7434568
SP   1   1.00
      0.1267512              1.0000000              1.0000000
D    1   1.00
      0.8020000              1.0000000
D    1   1.00
      0.2005000              1.0000000
F    1   1.00
      0.5000000              1.0000000
****
C     0
S    6   1.00
   3047.5249000              0.0018347
    457.3695100              0.0140373
    103.9486900              0.0688426
     29.2101550              0.2321844
      9.2866630              0.4679413
      3.1639270              0.3623120
SP   3   1.00
      7.8682724             -0.1193324              0.0689991
      1.8812885             -0.1608542              0.3164240
      0.5442493              1.1434564              0.7443083
SP   1   1.00
      0.1687144              1.0000000              1.0000000
D    1   1.00
      1.2520000              1.0000000
D    1   1.00
      0.3130000              1.0000000
F    1   1.00
      0.8000000              1.0000000
****
N     0
S    6   1.00
   4173.5110000              0.0018348
    627.4579000              0.0139950
    142.9021000              0.0685870
     40.2343300              0.2322410
     12.8202100              0.4690700
      4.3904370              0.3604550
SP   3   1.00
     11.6263580             -0.1149610              0.0675800
      2.7162800             -0.1691180              0.3239070
      0.7722180              1.1458520              0.7408950
SP   1   1.00
      0.2120313              1.0000000              1.0000000
D    1   1.00
      1.8260000              1.0000000
D    1   1.00
      0.4565000              1.0000000
F    1   1.00
      1.0000000              1.0000000
****
O     0
S    6   1.00
   5484.6717000              0.0018311
    825.2349500              0.0139501
    188.0469600              0.0684451
     52.9645000              0.2327143
     16.8975700              0.4701930
      5.7996353              0.3585209
SP   3   1.00
     15.5396160             -0.1107775              0.0708743
      3.5999336             -0.1480263              0.3397528
      1.0137618              1.1307670              0.7271586
SP   1   1.00
      0.2700058              1.0000000              1.0000000
D    1   1.00
      2.5840000              1.0000000
D    1   1.00
      0.6460000              1.0000000
F    1   1.00
      1.4000000              1.0000000
****
F     0
S    6   1.00
   7001.7130900              0.0018196169
   1051.3660900              0.0139160796
    239.2856900              0.0684053245
     67.3974453              0.233185760
     21.5199573              0.471267439
      7.40310130             0.356618546
SP   3   1.00
     20.8479528             -0.108506975            0.0716287243
      4.80830834            -0.146451658            0.3459121030
      1.34406986             1.128688580            0.7224699570
SP   1   1.00
      0.358151393            1.0000000              1.0000000
D    1   1.00
      3.5000000              1.0000000
D    1   1.00
      0.8750000              1.0000000
F    1   1.00
      1.8500000              1.0000000
****
Al     0
S    6   1.00
  13983.1000000              0.00194267
   2098.7500000              0.0148599
    477.7050000              0.0728494
    134.3600000              0.2468300
     42.8709000              0.4872580
     14.5189000              0.3234960
SP   6   1.00
    239.6680000             -0.00292619             0.00460285
     57.4419000             -0.0374080              0.0331990
     18.2859000             -0.1144870              0.1362820
      6.5991400              0.1156350              0.3304760
      2.4904900              0.6125950              0.4491460
      0.9445400              0.3937990              0.2657040
SP   3   1.00
      1.2779000             -0.2276060             -0.0175130
      0.3975900              0.00144583             0.2445330
      0.1600950              1.0927900              0.8049340
SP   1   1.00
      0.0556577              1.0000000              1.0000000
D    1   1.00
      0.6500000              1.0000000
D    1   1.00
      0.1625000              1.0000000
F    1   1.00
      0.2500000              1.0000000
****
Si     0
S    6   1.00
  16115.9000000              0.00195948
   2425.5800000              0.01492880
    553.8670000              0.07284780
    156.3400000              0.24613000
     50.0683000              0.48591400
     17.0178000              0.32500200
SP   6   1.00
    292.7180000             -0.00278094             0.00443826
     69.8731000             -0.03571460             0.03266790
     22.3363000             -0.11498500             0.13472100
      8.1503900              0.09356340             0.32867800
      3.1345800              0.60301700             0.44964000
      1.2254300              0.41895900             0.26137200
SP   3   1.00
      1.7273800             -0.24463000            -0.01779510
      0.5729220              0.00431572             0.25353900
      0.2221920              1.09818000             0.80066900
SP   1   1.00
      0.0778369              1.00000000             1.00000000
D    1   1.00
      0.9000000              1.0000000
D    1   1.00
      0.2250000              1.0000000
F    1   1.00
      0.3200000              1.0000000
****
P     0
S    6   1.00
  19413.3000000              0.0018516
   2909.4200000              0.0142062
    661.3640000              0.0699995
    185.7590000              0.2400790
     59.1943000              0.4847620
     20.0310000              0.3352000
SP   6   1.00
    339.4780000             -0.00278217             0.00456462
     81.0101000             -0.0360499              0.03369360
     25.8780000             -0.1166310              0.13975500
      9.4522100              0.0968328              0.33936200
      3.6656600              0.6144180              0.45092100
      1.4674600              0.4037980              0.23858600
SP   3   1.00
      2.1562300             -0.2529230             -0.01776530
      0.7489970              0.0328517              0.27405800
      0.2831450              1.0812500              0.78542100
SP   1   1.00
      0.0998317              1.0000000              1.00000000
D    1   1.00
      1.1000000              1.0000000
D    1   1.00
      0.2750000              1.0000000
F    1   1.00
      0.4500000              1.0000000
****
S     0
S    6   1.00
  21917.1000000              0.0018690
   3301.4900000              0.0142300
    754.1460000              0.0696960
    212.7110000              0.2384870
     67.9896000              0.4833070
     23.0515000              0.3380740
SP   6   1.00
    423.7350000             -0.0023767              0.0040610
    100.7100000             -0.0316930              0.0306810
     32.1599000             -0.1133170              0.1304520
     11.8079000              0.0560900              0.3272050
      4.6311000              0.5922550              0.4528510
      1.8702500              0.4550060              0.2560420
SP   3   1.00
      2.6158400             -0.2503740             -0.0145110
      0.9221670              0.0669570              0.3102630
      0.3412870              1.0545100              0.7544830
SP   1   1.00
      0.1171670              1.0000000              1.0000000
D    1   1.00
      1.3000000              1.0000000
D    1   1.00
      0.3250000              1.0000000
F    1   1.00
      0.5500000              1.0000000
****
Cl     0
S    6   1.00
  25180.1000000              0.0018330
   3780.3500000              0.0140340
    860.4740000              0.0690970
    242.1450000              0.2374520
     77.3349000              0.4830340
     26.2470000              0.3398560
SP   6   1.00
    491.7650000             -0.0022974              0.0039894
    116.9840000             -0.0307140              0.0303180
     37.4153000             -0.1125280              0.1298800
     13.7834000              0.0450160              0.3279510
      5.4521500              0.5893530              0.4535270
      2.2258800              0.4652060              0.2521540
SP   3   1.00
      3.1864900             -0.2518300             -0.0142990
      1.1442700              0.0615890              0.3235720
      0.4203770              1.0601800              0.7435070
SP   1   1.00
      0.1426570              1.0000000              1.0000000
D    1   1.00
      1.5000000              1.0000000
D    1   1.00
      0.3750000              1.0000000
F    1   1.00
      0.7000000              1.0000000
****
}

set {
reference uhf
freeze_core true
e_convergence 10
d_convergence 10
dft_spherical_points 1202
dft_radial_points 99
}

e = energy('b3lyp')

print_out('Grab this energy {0}'.format(e))
--------------------------------------------------------------------------

    Molecular point group: c1

    Geometry (in Bohr), charge = 0, multiplicity = 2:

       Center              X                  Y                   Z               Mass
    ------------   -----------------  -----------------  -----------------  -----------------
         C           -0.323338537157    -0.001460929175    -0.001458903069    12.000000000000
         C            0.062162267743    -1.400475648575    -2.426681649869    12.000000000000
         C            0.060271678843     2.801714643925     0.001365878531    12.000000000000
         C            0.060864789943    -1.399253916175     2.427297262931    12.000000000000
         H            2.086826123943    -1.644821989475    -2.847864564369     1.007825032230
         H           -0.765750767157    -0.388930228975    -4.025923093869     1.007825032230
         H           -0.765806101557    -3.292453047975    -2.349502341769     1.007825032230
         H            2.086879013943     3.287566401225    -0.001138228569     1.007825032230
         H           -0.765580963257     3.679825821025     1.675877431031     1.007825032230
         H           -0.765285150657     3.679644127125    -1.677313772169     1.007825032230
         H            2.086964125943    -1.645343222375     2.846490941231     1.007825032230
         H           -0.765287966657    -3.292723799175     2.348203780331     1.007825032230
         H           -0.765528399857    -0.389005025675     4.024947476131     1.007825032230

  Charge       = 0
  Multiplicity = 2
  Basis Set: ANONYMOUS7A123E9C
    Blend: 6-31G_2DFP_
  Basis Set: (ANONYMOUS7A123E9C AUX)
    Blend: DEF2-UNIVERSAL-JKFIT

    Orbital Energies [Eh]
    ---------------------

    Alpha Occupied:

       1A    -10.180342     2A    -10.167062     3A    -10.167012
       4A    -10.166971     5A     -0.797766     6A     -0.686299
       7A     -0.686074     8A     -0.530776     9A     -0.441127
      10A     -0.434683    11A     -0.434657    12A     -0.382652
      13A     -0.382548    14A     -0.363608    15A     -0.338415
      16A     -0.337584    17A     -0.168961

    Alpha Virtual:

      18A      0.076072    19A      0.134102    20A      0.134209
      21A      0.142538    22A      0.142718    23A      0.154879
      24A      0.178707    25A      0.178848    26A      0.203546
      27A      0.214803    28A      0.275808    29A      0.276163
      30A      0.399074    31A      0.399384    32A      0.403341
      33A      0.424092    34A      0.424105    35A      0.456593
      36A      0.495340    37A      0.495439    38A      0.512160
      39A      0.513979    40A      0.578755    41A      0.578880
      42A      0.591608    43A      0.591658    44A      0.602571
      45A      0.624758    46A      0.631763    47A      0.636253
      48A      0.636258    49A      0.663285    50A      0.663538
      51A      0.683839    52A      0.683869    53A      0.734994
      54A      0.825401    55A      0.825413    56A      0.853916
      57A      0.914875    58A      0.915178    59A      0.944126
      60A      0.944612    61A      0.961209    62A      0.961375
      63A      1.003453    64A      1.128092    65A      1.128132
      66A      1.142202    67A      1.163254    68A      1.163294
      69A      1.223324    70A      1.274233    71A      1.274742
      72A      1.279357    73A      1.324277    74A      1.324440
      75A      1.355992    76A      1.365719    77A      1.366388
      78A      1.392417    79A      1.403729    80A      1.404399
      81A      1.416746    82A      1.417481    83A      1.427923
      84A      1.491493    85A      1.499082    86A      1.542587
      87A      1.543071    88A      1.574001    89A      1.574901
      90A      1.669807    91A      1.739259    92A      1.739557
      93A      1.768354    94A      1.831305    95A      1.831497
      96A      1.971719    97A      2.017923    98A      2.018794
      99A      2.019678   100A      2.051792   101A      2.053488
     102A      2.738418   103A      2.738553   104A      2.790923
     105A      2.811428   106A      2.889003   107A      2.890904
     108A      2.894936   109A      2.929257   110A      2.929738
     111A      2.958991   112A      2.963970   113A      2.964794
     114A      3.034010   115A      3.071104   116A      3.071467
     117A      3.084350   118A      3.168580   119A      3.168941
     120A      3.180625   121A      3.285005   122A      3.285622
     123A      3.327093   124A      3.327223   125A      3.375623
     126A      3.490106   127A      3.490205   128A      3.514018
     129A      3.525328   130A      3.568239   131A      3.568534
     132A      3.575151   133A      3.666087   134A      3.666625
     135A      3.679720   136A      3.694112   137A      3.694141
     138A      3.776797   139A      3.776816   140A      3.789115
     141A      3.911716   142A      3.912721   143A      4.034464
     144A      4.111065   145A      4.111685   146A      4.147859
     147A      4.148390   148A      4.173254   149A      4.202547
     150A      4.203045   151A      4.203202   152A      4.210846
     153A      4.314833   154A      4.317084   155A      4.358964
     156A      4.423646   157A      4.425186   158A      4.443494
     159A      4.516573   160A      4.517104   161A      4.577876
     162A      4.578673   163A      4.617524   164A      4.709465
     165A      4.774381   166A      4.774804   167A      4.836918
     168A      4.962860   169A      5.002546   170A      5.003345
     171A      5.228024   172A      5.246477   173A      5.247174
     174A      5.355468   175A      5.355541   176A      5.479354

    Beta Occupied:

       1A    -10.167819     2A    -10.167766     3A    -10.167739
       4A    -10.166519     5A     -0.781091     6A     -0.684098
       7A     -0.683881     8A     -0.511747     9A     -0.431064
      10A     -0.431022    11A     -0.421820    12A     -0.376747
      13A     -0.376624    14A     -0.362590    15A     -0.333537
      16A     -0.332707

    Beta Virtual:

      17A     -0.025742    18A      0.077081    19A      0.134975
      20A      0.135116    21A      0.144434    22A      0.144563
      23A      0.163338    24A      0.182396    25A      0.182502
      26A      0.215033    27A      0.218929    28A      0.282176
      29A      0.282491    30A      0.400243    31A      0.400553
      32A      0.419786    33A      0.426904    34A      0.426917
      35A      0.468501    36A      0.497604    37A      0.497696
      38A      0.513895    39A      0.556325    40A      0.584305
      41A      0.584430    42A      0.597774    43A      0.597852
      44A      0.609994    45A      0.628135    46A      0.631925
      47A      0.639533    48A      0.639544    49A      0.666843
      50A      0.667108    51A      0.686472    52A      0.686507
      53A      0.757518    54A      0.830574    55A      0.830577
      56A      0.855269    57A      0.922846    58A      0.923149
      59A      0.945962    60A      0.953541    61A      0.966528
      62A      0.966667    63A      1.008693    64A      1.132135
      65A      1.132145    66A      1.155565    67A      1.168325
      68A      1.168385    69A      1.232296    70A      1.279792
      71A      1.280373    72A      1.285115    73A      1.329252
      74A      1.329444    75A      1.365409    76A      1.370926
      77A      1.371667    78A      1.393478    79A      1.407176
      80A      1.407880    81A      1.421821    82A      1.422500
      83A      1.428198    84A      1.492542    85A      1.509526
      86A      1.546976    87A      1.547498    88A      1.581883
      89A      1.582762    90A      1.674655    91A      1.745023
      92A      1.745319    93A      1.779129    94A      1.835163
      95A      1.835349    96A      1.972580    97A      2.024861
      98A      2.026030    99A      2.039680   100A      2.058479
     101A      2.060232   102A      2.746763   103A      2.746880
     104A      2.811840   105A      2.816059   106A      2.901709
     107A      2.903572   108A      2.924640   109A      2.931691
     110A      2.932273   111A      2.960056   112A      2.968530
     113A      2.969319   114A      3.041944   115A      3.081002
     116A      3.081390   117A      3.086165   118A      3.184248
     119A      3.184719   120A      3.188363   121A      3.289846
     122A      3.290377   123A      3.330879   124A      3.331046
     125A      3.383441   126A      3.492813   127A      3.492956
     128A      3.512383   129A      3.528374   130A      3.574985
     131A      3.581646   132A      3.581832   133A      3.670706
     134A      3.671529   135A      3.692996   136A      3.725499
     137A      3.726007   138A      3.781246   139A      3.781422
     140A      3.817659   141A      3.921502   142A      3.922569
     143A      4.045351   144A      4.117879   145A      4.118501
     146A      4.155118   147A      4.155549   148A      4.187314
     149A      4.208955   150A      4.209027   151A      4.210656
     152A      4.215317   153A      4.322228   154A      4.324571
     155A      4.362326   156A      4.431863   157A      4.433374
     158A      4.446402   159A      4.524384   160A      4.524874
     161A      4.588508   162A      4.589243   163A      4.624717
     164A      4.719810   165A      4.781362   166A      4.781730
     167A      4.839834   168A      4.967655   169A      5.006584
     170A      5.007386   171A      5.233737   172A      5.248273
     173A      5.248949   174A      5.361921   175A      5.362049
     176A      5.481675

    Final Occupation by Irrep:
              A
    DOCC [    16 ]
    SOCC [     1 ]

  @DF-UKS Final Energy:  -157.81306909393840

   => Energetics <=

    Nuclear Repulsion Energy =            125.3946193951279326
    One-Electron Energy =                -458.7489026769673046
    Two-Electron Energy =                 195.8483567976927020
    DFT Exchange-Correlation Energy =     -20.3071426097917538
    Empirical Dispersion Energy =           0.0000000000000000
    VV10 Nonlocal Energy =                  0.0000000000000000
    Total Energy =                       -157.8130690939383953

  UHF NO Occupations:
  HONO-2 :   15  A 1.9996009
  HONO-1 :   16  A 1.9989805
  HONO-0 :   17  A 1.0000000
  LUNO+0 :   18  A 0.0010195
  LUNO+1 :   19  A 0.0003991
  LUNO+2 :   20  A 0.0001981
  LUNO+3 :   21  A 0.0001970

Computation Completed

Properties will be evaluated at   0.000000,   0.000000,   0.000000 [a0]

Properties computed using the SCF density matrix

  Nuclear Dipole Moment: [e a0]
     X:     0.8272      Y:    -0.0031      Z:    -0.0031

  Electronic Dipole Moment: [e a0]
     X:    -0.7493      Y:     0.0030      Z:     0.0030

  Dipole Moment: [e a0]
     X:     0.0779      Y:    -0.0000      Z:    -0.0001     Total:     0.0779

  Dipole Moment: [D]
     X:     0.1980      Y:    -0.0001      Z:    -0.0001     Total:     0.1980

*** tstop() called on n091 at Fri Nov  5 11:44:38 2021
Module time:
	user time   =     496.39 seconds =       8.27 minutes
	system time =       4.43 seconds =       0.07 minutes
	total time  =        126 seconds =       2.10 minutes
Total time:
	user time   =     496.39 seconds =       8.27 minutes
	system time =       4.43 seconds =       0.07 minutes
	total time  =        126 seconds =       2.10 minutes
Grab this energy -157.8130690939384
    Psi4 stopped on: Friday, 05 November 2021 11:44AM
    Psi4 wall time for execution: 0:02:05.94

*** Psi4 exiting successfully. Buy a developer a beer!
