                               Psi4 1.4a2.dev629

  ==> Input File <==

--------------------------------------------------------------------------
import os
memory 14 GB

molecule {
 C   -0.3233404416   -0.0002533341   -0.0000000000
 C    0.0610072470   -1.4012705229   -2.4261388863
 C    0.0612857376    2.8017859539   -0.0000000000
 C    0.0610072470   -1.4012705229    2.4261388863
 H    2.0906192969   -1.6470310948   -2.8489890559
 H   -0.7657430757   -0.3877356440   -4.0229149619
 H   -0.7654990297   -3.2895333953   -2.3494703676
 H    2.0794249258    3.2825113847    0.0000000000
 H   -0.7653734877    3.6835364978    1.6797403768
 H   -0.7653734877    3.6835364978   -1.6797403768
 H    2.0906192969   -1.6470310948    2.8489890559
 H   -0.7654990297   -3.2895333953    2.3494703676
 H   -0.7657430757   -0.3877356440    4.0229149619
units bohr
0 2
}

basis {

assign 6-31g_2dfp_

[ 6-31g_2dfp_ ]

spherical

!----------------------------------------------------------------------
! Basis Set Exchange
! Version v0.8.13
! https://www.basissetexchange.org
!----------------------------------------------------------------------
!   Basis set: 6-31G(2df,p)
! Description: 6-31G(2df,p)
!        Role: orbital
!     Version: 0  (Data from the original Basis Set Exchange)
!----------------------------------------------------------------------

****
H     0
S    3   1.00
     18.7311370              0.03349460
      2.8253937              0.23472695
      0.6401217              0.81375733
S    1   1.00
      0.1612778              1.00000000
P    1   1.00
      1.5000000              1.0000000
P    1   1.00
      0.3750000              1.0000000
****
B     0
S    6   1.00
   2068.8823000              0.0018663
    310.6495700              0.0142515
     70.6830330              0.0695516
     19.8610800              0.2325729
      6.2993048              0.4670787
      2.1270270              0.3634314
SP   3   1.00
      4.7279710             -0.1303938              0.0745976
      1.1903377             -0.1307889              0.3078467
      0.3594117              1.1309444              0.7434568
SP   1   1.00
      0.1267512              1.0000000              1.0000000
D    1   1.00
      0.8020000              1.0000000
D    1   1.00
      0.2005000              1.0000000
F    1   1.00
      0.5000000              1.0000000
****
C     0
S    6   1.00
   3047.5249000              0.0018347
    457.3695100              0.0140373
    103.9486900              0.0688426
     29.2101550              0.2321844
      9.2866630              0.4679413
      3.1639270              0.3623120
SP   3   1.00
      7.8682724             -0.1193324              0.0689991
      1.8812885             -0.1608542              0.3164240
      0.5442493              1.1434564              0.7443083
SP   1   1.00
      0.1687144              1.0000000              1.0000000
D    1   1.00
      1.2520000              1.0000000
D    1   1.00
      0.3130000              1.0000000
F    1   1.00
      0.8000000              1.0000000
****
N     0
S    6   1.00
   4173.5110000              0.0018348
    627.4579000              0.0139950
    142.9021000              0.0685870
     40.2343300              0.2322410
     12.8202100              0.4690700
      4.3904370              0.3604550
SP   3   1.00
     11.6263580             -0.1149610              0.0675800
      2.7162800             -0.1691180              0.3239070
      0.7722180              1.1458520              0.7408950
SP   1   1.00
      0.2120313              1.0000000              1.0000000
D    1   1.00
      1.8260000              1.0000000
D    1   1.00
      0.4565000              1.0000000
F    1   1.00
      1.0000000              1.0000000
****
O     0
S    6   1.00
   5484.6717000              0.0018311
    825.2349500              0.0139501
    188.0469600              0.0684451
     52.9645000              0.2327143
     16.8975700              0.4701930
      5.7996353              0.3585209
SP   3   1.00
     15.5396160             -0.1107775              0.0708743
      3.5999336             -0.1480263              0.3397528
      1.0137618              1.1307670              0.7271586
SP   1   1.00
      0.2700058              1.0000000              1.0000000
D    1   1.00
      2.5840000              1.0000000
D    1   1.00
      0.6460000              1.0000000
F    1   1.00
      1.4000000              1.0000000
****
F     0
S    6   1.00
   7001.7130900              0.0018196169
   1051.3660900              0.0139160796
    239.2856900              0.0684053245
     67.3974453              0.233185760
     21.5199573              0.471267439
      7.40310130             0.356618546
SP   3   1.00
     20.8479528             -0.108506975            0.0716287243
      4.80830834            -0.146451658            0.3459121030
      1.34406986             1.128688580            0.7224699570
SP   1   1.00
      0.358151393            1.0000000              1.0000000
D    1   1.00
      3.5000000              1.0000000
D    1   1.00
      0.8750000              1.0000000
F    1   1.00
      1.8500000              1.0000000
****
Al     0
S    6   1.00
  13983.1000000              0.00194267
   2098.7500000              0.0148599
    477.7050000              0.0728494
    134.3600000              0.2468300
     42.8709000              0.4872580
     14.5189000              0.3234960
SP   6   1.00
    239.6680000             -0.00292619             0.00460285
     57.4419000             -0.0374080              0.0331990
     18.2859000             -0.1144870              0.1362820
      6.5991400              0.1156350              0.3304760
      2.4904900              0.6125950              0.4491460
      0.9445400              0.3937990              0.2657040
SP   3   1.00
      1.2779000             -0.2276060             -0.0175130
      0.3975900              0.00144583             0.2445330
      0.1600950              1.0927900              0.8049340
SP   1   1.00
      0.0556577              1.0000000              1.0000000
D    1   1.00
      0.6500000              1.0000000
D    1   1.00
      0.1625000              1.0000000
F    1   1.00
      0.2500000              1.0000000
****
Si     0
S    6   1.00
  16115.9000000              0.00195948
   2425.5800000              0.01492880
    553.8670000              0.07284780
    156.3400000              0.24613000
     50.0683000              0.48591400
     17.0178000              0.32500200
SP   6   1.00
    292.7180000             -0.00278094             0.00443826
     69.8731000             -0.03571460             0.03266790
     22.3363000             -0.11498500             0.13472100
      8.1503900              0.09356340             0.32867800
      3.1345800              0.60301700             0.44964000
      1.2254300              0.41895900             0.26137200
SP   3   1.00
      1.7273800             -0.24463000            -0.01779510
      0.5729220              0.00431572             0.25353900
      0.2221920              1.09818000             0.80066900
SP   1   1.00
      0.0778369              1.00000000             1.00000000
D    1   1.00
      0.9000000              1.0000000
D    1   1.00
      0.2250000              1.0000000
F    1   1.00
      0.3200000              1.0000000
****
P     0
S    6   1.00
  19413.3000000              0.0018516
   2909.4200000              0.0142062
    661.3640000              0.0699995
    185.7590000              0.2400790
     59.1943000              0.4847620
     20.0310000              0.3352000
SP   6   1.00
    339.4780000             -0.00278217             0.00456462
     81.0101000             -0.0360499              0.03369360
     25.8780000             -0.1166310              0.13975500
      9.4522100              0.0968328              0.33936200
      3.6656600              0.6144180              0.45092100
      1.4674600              0.4037980              0.23858600
SP   3   1.00
      2.1562300             -0.2529230             -0.01776530
      0.7489970              0.0328517              0.27405800
      0.2831450              1.0812500              0.78542100
SP   1   1.00
      0.0998317              1.0000000              1.00000000
D    1   1.00
      1.1000000              1.0000000
D    1   1.00
      0.2750000              1.0000000
F    1   1.00
      0.4500000              1.0000000
****
S     0
S    6   1.00
  21917.1000000              0.0018690
   3301.4900000              0.0142300
    754.1460000              0.0696960
    212.7110000              0.2384870
     67.9896000              0.4833070
     23.0515000              0.3380740
SP   6   1.00
    423.7350000             -0.0023767              0.0040610
    100.7100000             -0.0316930              0.0306810
     32.1599000             -0.1133170              0.1304520
     11.8079000              0.0560900              0.3272050
      4.6311000              0.5922550              0.4528510
      1.8702500              0.4550060              0.2560420
SP   3   1.00
      2.6158400             -0.2503740             -0.0145110
      0.9221670              0.0669570              0.3102630
      0.3412870              1.0545100              0.7544830
SP   1   1.00
      0.1171670              1.0000000              1.0000000
D    1   1.00
      1.3000000              1.0000000
D    1   1.00
      0.3250000              1.0000000
F    1   1.00
      0.5500000              1.0000000
****
Cl     0
S    6   1.00
  25180.1000000              0.0018330
   3780.3500000              0.0140340
    860.4740000              0.0690970
    242.1450000              0.2374520
     77.3349000              0.4830340
     26.2470000              0.3398560
SP   6   1.00
    491.7650000             -0.0022974              0.0039894
    116.9840000             -0.0307140              0.0303180
     37.4153000             -0.1125280              0.1298800
     13.7834000              0.0450160              0.3279510
      5.4521500              0.5893530              0.4535270
      2.2258800              0.4652060              0.2521540
SP   3   1.00
      3.1864900             -0.2518300             -0.0142990
      1.1442700              0.0615890              0.3235720
      0.4203770              1.0601800              0.7435070
SP   1   1.00
      0.1426570              1.0000000              1.0000000
D    1   1.00
      1.5000000              1.0000000
D    1   1.00
      0.3750000              1.0000000
F    1   1.00
      0.7000000              1.0000000
****
}

set {
reference uhf
freeze_core true
e_convergence 10
d_convergence 10
dft_spherical_points 1202
dft_radial_points 99
}

e = energy('b3lyp')

print_out('Grab this energy {0}'.format(e))
--------------------------------------------------------------------------

    Molecular point group: cs

    Geometry (in Bohr), charge = 0, multiplicity = 2:

       Center              X                  Y                   Z               Mass
    ------------   -----------------  -----------------  -----------------  -----------------
         C           -0.323340398235    -0.000058674622     0.000000000000    12.000000000000
         C            0.061007290365    -1.401075863422    -2.426138886300    12.000000000000
         C            0.061285780965     2.801980613378     0.000000000000    12.000000000000
         C            0.061007290365    -1.401075863422     2.426138886300    12.000000000000
         H            2.090619340265    -1.646836435322    -2.848989055900     1.007825032230
         H           -0.765743032335    -0.387540984522    -4.022914961900     1.007825032230
         H           -0.765498986335    -3.289338735822    -2.349470367600     1.007825032230
         H            2.079424969165     3.282706044178     0.000000000000     1.007825032230
         H           -0.765373444335     3.683731157278     1.679740376800     1.007825032230
         H           -0.765373444335     3.683731157278    -1.679740376800     1.007825032230
         H            2.090619340265    -1.646836435322     2.848989055900     1.007825032230
         H           -0.765498986335    -3.289338735822     2.349470367600     1.007825032230
         H           -0.765743032335    -0.387540984522     4.022914961900     1.007825032230

  Charge       = 0
  Multiplicity = 2
  Basis Set: ANONYMOUS21CB078A
    Blend: 6-31G_2DFP_
  Basis Set: (ANONYMOUS21CB078A AUX)
    Blend: DEF2-UNIVERSAL-JKFIT

    Orbital Energies [Eh]
    ---------------------

    Alpha Occupied:

       1Ap   -10.180343     2Ap   -10.167034     1App  -10.167026
       3Ap   -10.166984     4Ap    -0.797768     5Ap    -0.686221
       2App   -0.686158     6Ap    -0.530778     7Ap    -0.441129
       8Ap    -0.434775     3App   -0.434566     9Ap    -0.382845
       4App   -0.382350     5App   -0.363610    10Ap    -0.338121
       6App   -0.337879    11Ap    -0.168962

    Alpha Virtual:

      12Ap     0.076071     7App    0.133938    13Ap     0.134362
       8App    0.142357    14Ap     0.142890    15Ap     0.154884
       9App    0.178561    16Ap     0.179003    17Ap     0.203547
      10App    0.214803    18Ap     0.275931    11App    0.276039
      19Ap     0.399065    12App    0.399389    20Ap     0.403343
      21Ap     0.424080    13App    0.424116    22Ap     0.456592
      23Ap     0.495234    14App    0.495545    15App    0.512161
      24Ap     0.513979    16App    0.578766    25Ap     0.578842
      17App    0.591238    26Ap     0.591969    27Ap     0.602658
      28Ap     0.624765    18App    0.631676    19App    0.636022
      29Ap     0.636569    20App    0.663085    30Ap     0.663763
      31Ap     0.683571    21App    0.684140    32Ap     0.734995
      22App    0.825360    33Ap     0.825448    23App    0.853923
      24App    0.914489    34Ap     0.915556    25App    0.944097
      35Ap     0.944603    26App    0.961111    36Ap     0.961521
      37Ap     1.003453    38Ap     1.127747    27App    1.128475
      39Ap     1.142212    40Ap     1.163228    28App    1.163311
      41Ap     1.223325    29App    1.274440    42Ap     1.274540
      43Ap     1.279349    30App    1.324225    44Ap     1.324471
      45Ap     1.355947    31App    1.366016    46Ap     1.366076
      32App    1.392467    33App    1.403086    47Ap     1.404999
      48Ap     1.416932    34App    1.417286    35App    1.427937
      36App    1.491490    49Ap     1.499046    37App    1.542368
      50Ap     1.543356    38App    1.574129    51Ap     1.574777
      52Ap     1.669813    39App    1.739181    53Ap     1.739550
      54Ap     1.768409    55Ap     1.830184    40App    1.832627
      41App    1.971689    56Ap     2.018160    42App    2.018552
      57Ap     2.019694    43App    2.051252    58Ap     2.054102
      44App    2.738065    59Ap     2.738914    60Ap     2.790926
      45App    2.811431    61Ap     2.889664    46App    2.890130
      62Ap     2.895056    47App    2.929182    63Ap     2.929809
      48App    2.958997    49App    2.964250    64Ap     2.964520
      65Ap     3.034014    50App    3.070614    66Ap     3.071962
      51App    3.084351    67Ap     3.168332    52App    3.169247
      68Ap     3.180594    69Ap     3.284869    53App    3.285756
      70Ap     3.326066    54App    3.328256    71Ap     3.375629
      55App    3.489251    72Ap     3.491081    56App    3.514014
      73Ap     3.525339    74Ap     3.568200    57App    3.568514
      58App    3.575221    59App    3.665247    75Ap     3.667516
      76Ap     3.679642    60App    3.693609    77Ap     3.694608
      78Ap     3.776691    61App    3.776899    79Ap     3.789223
      80Ap     3.912011    62App    3.912463    81Ap     4.034418
      63App    4.110772    82Ap     4.111880    83Ap     4.147536
      64App    4.148616    84Ap     4.173244    85Ap     4.200994
      86Ap     4.203725    65App    4.204078    66App    4.210925
      67App    4.314952    87Ap     4.317008    68App    4.358985
      88Ap     4.424217    69App    4.424755    70App    4.443401
      71App    4.515545    89Ap     4.518114    90Ap     4.578123
      72App    4.578421    91Ap     4.617635    92Ap     4.709369
      73App    4.773561    93Ap     4.775719    74App    4.836901
      94Ap     4.962870    75App    5.001648    95Ap     5.004231
      96Ap     5.228061    76App    5.244185    97Ap     5.249433
      77App    5.354364    98Ap     5.356787    78App    5.479385

    Beta Occupied:

       1Ap   -10.167783     1App  -10.167782     2Ap   -10.167758
       3Ap   -10.166521     4Ap    -0.781093     5Ap    -0.684014
       2App   -0.683971     6Ap    -0.511749     7Ap    -0.431159
       3App   -0.430931     8Ap    -0.421820     9Ap    -0.376957
       4App   -0.376407     5App   -0.362594    10Ap    -0.333239
       6App   -0.333007

    Beta Virtual:

      11Ap    -0.025745    12Ap     0.077080     7App    0.134845
      13Ap     0.135239     8App    0.144276    14Ap     0.144715
      15Ap     0.163339     9App    0.182209    16Ap     0.182697
      10App    0.215033    17Ap     0.218929    18Ap     0.282281
      11App    0.282385    19Ap     0.400239    12App    0.400553
      20Ap     0.419790    21Ap     0.426890    13App    0.426929
      22Ap     0.468500    23Ap     0.497486    14App    0.497814
      15App    0.513896    24Ap     0.556324    16App    0.584337
      25Ap     0.584374    17App    0.597389    26Ap     0.598190
      27Ap     0.610062    28Ap     0.628146    18App    0.631875
      19App    0.639265    29Ap     0.639854    20App    0.666690
      30Ap     0.667288    31Ap     0.686239    21App    0.686741
      32Ap     0.757518    22App    0.830533    33Ap     0.830611
      23App    0.855277    24App    0.922500    34Ap     0.923490
      25App    0.945939    35Ap     0.953527    26App    0.966397
      36Ap     0.966846    37Ap     1.008693    38Ap     1.131761
      27App    1.132517    39Ap     1.155591    40Ap     1.168303
      28App    1.168381    41Ap     1.232297    29App    1.280013
      42Ap     1.280164    43Ap     1.285102    30App    1.329210
      44Ap     1.329462    45Ap     1.365358    46Ap     1.371256
      31App    1.371326    32App    1.393525    33App    1.406498
      47Ap     1.408516    48Ap     1.421963    34App    1.422340
      35App    1.428227    36App    1.492538    49Ap     1.509481
      37App    1.546891    50Ap     1.547654    38App    1.581895
      51Ap     1.582755    52Ap     1.674659    39App    1.744946
      53Ap     1.745326    54Ap     1.779172    55Ap     1.834038
      40App    1.836485    41App    1.972553    42App    2.024933
      56Ap     2.025979    57Ap     2.039649    43App    2.057997
      58Ap     2.060805    44App    2.746397    59Ap     2.747253
      45App    2.811843    60Ap     2.816062    61Ap     2.902368
      46App    2.902895    62Ap     2.924659    47App    2.931640
      63Ap     2.932318    48App    2.960065    49App    2.968776
      64Ap     2.969088    65Ap     3.041946    50App    3.080378
      66Ap     3.082009    51App    3.086178    67Ap     3.183968
      52App    3.185108    68Ap     3.188278    69Ap     3.289620
      53App    3.290602    70Ap     3.329859    54App    3.332072
      71Ap     3.383446    55App    3.491965    72Ap     3.493826
      56App    3.512382    73Ap     3.528385    57App    3.574943
      74Ap     3.581709    58App    3.581817    59App    3.669958
      75Ap     3.672298    76Ap     3.692936    60App    3.725498
      77Ap     3.725995    61App    3.781334    78Ap     3.781336
      79Ap     3.817734    80Ap     3.921799    62App    3.922308
      81Ap     4.045306    63App    4.117633    82Ap     4.118654
      83Ap     4.154878    64App    4.155691    84Ap     4.187304
      85Ap     4.207374    65App    4.210066    86Ap     4.211198
      66App    4.215405    67App    4.322423    87Ap     4.324418
      68App    4.362344    88Ap     4.432442    69App    4.432958
      70App    4.446284    71App    4.523341    89Ap     4.525901
      90Ap     4.588694    72App    4.589047    91Ap     4.624829
      92Ap     4.719711    73App    4.780483    93Ap     4.782707
      74App    4.839818    94Ap     4.967667    75App    5.005722
      95Ap     5.008237    96Ap     5.233774    76App    5.245982
      97Ap     5.251205    77App    5.360828    98Ap     5.363284
      78App    5.481706

    Final Occupation by Irrep:
             Ap   App
    DOCC [    10,    6 ]
    SOCC [     1,    0 ]

  @DF-UKS Final Energy:  -157.81304717065612

   => Energetics <=

    Nuclear Repulsion Energy =            125.3946814205669398
    One-Electron Energy =                -458.7489500853394020
    Two-Electron Energy =                 195.8483727567718233
    DFT Exchange-Correlation Energy =     -20.3071512626554842
    Empirical Dispersion Energy =           0.0000000000000000
    VV10 Nonlocal Energy =                  0.0000000000000000
    Total Energy =                       -157.8130471706561195

  UHF NO Occupations:
  HONO-2 :    9 Ap 1.9996008
  HONO-1 :   10 Ap 1.9989804
  HONO-0 :   11 Ap 1.0000000
  LUNO+0 :   12 Ap 0.0010196
  LUNO+1 :   13 Ap 0.0003992
  LUNO+2 :    7App 0.0001977
  LUNO+3 :   14 Ap 0.0001974

Computation Completed

Properties will be evaluated at   0.000000,   0.000000,   0.000000 [a0]

Properties computed using the SCF density matrix

  Nuclear Dipole Moment: [e a0]
     X:     0.8272      Y:     0.0014      Z:     0.0000

  Electronic Dipole Moment: [e a0]
     X:    -0.7493      Y:    -0.0013      Z:     0.0000

  Dipole Moment: [e a0]
     X:     0.0779      Y:     0.0001      Z:     0.0000     Total:     0.0779

  Dipole Moment: [D]
     X:     0.1980      Y:     0.0003      Z:     0.0000     Total:     0.1980

*** tstop() called on n065 at Fri Nov  5 14:17:54 2021
Module time:
	user time   =     724.86 seconds =      12.08 minutes
	system time =      17.21 seconds =       0.29 minutes
	total time  =        187 seconds =       3.12 minutes
Total time:
	user time   =     724.86 seconds =      12.08 minutes
	system time =      17.21 seconds =       0.29 minutes
	total time  =        187 seconds =       3.12 minutes
Grab this energy -157.81304717065612
    Psi4 stopped on: Friday, 05 November 2021 02:17PM
    Psi4 wall time for execution: 0:03:06.49

*** Psi4 exiting successfully. Buy a developer a beer!
