                               Psi4 1.4a2.dev629

  ==> Input File <==

--------------------------------------------------------------------------
import os
memory 14 GB

molecule {
 C   -0.3218900547    0.0004922802    0.0000000000
 C    0.0602352209   -1.4006799124   -2.4261084050
 C    0.0602623668    2.8027113034    0.0000000000
 C    0.0602352209   -1.4006799124    2.4261084050
 H    2.0890782770   -1.6439725880   -2.8471744529
 H   -0.7664097612   -0.3865837969   -4.0262332095
 H   -0.7664163078   -3.2943893197   -2.3484041693
 H    2.0826683616    3.2885553303   -0.0000000000
 H   -0.7633117041    3.6797340032    1.6725135284
 H   -0.7633117041    3.6797340032   -1.6725135284
 H    2.0890782770   -1.6439725880    2.8471744529
 H   -0.7664163078   -3.2943893197    2.3484041693
 H   -0.7664097612   -0.3865837969    4.0262332095
units bohr
0 2
}

basis {

assign 6-31g_2dfp_

[ 6-31g_2dfp_ ]

spherical

!----------------------------------------------------------------------
! Basis Set Exchange
! Version v0.8.13
! https://www.basissetexchange.org
!----------------------------------------------------------------------
!   Basis set: 6-31G(2df,p)
! Description: 6-31G(2df,p)
!        Role: orbital
!     Version: 0  (Data from the original Basis Set Exchange)
!----------------------------------------------------------------------

****
H     0
S    3   1.00
     18.7311370              0.03349460
      2.8253937              0.23472695
      0.6401217              0.81375733
S    1   1.00
      0.1612778              1.00000000
P    1   1.00
      1.5000000              1.0000000
P    1   1.00
      0.3750000              1.0000000
****
B     0
S    6   1.00
   2068.8823000              0.0018663
    310.6495700              0.0142515
     70.6830330              0.0695516
     19.8610800              0.2325729
      6.2993048              0.4670787
      2.1270270              0.3634314
SP   3   1.00
      4.7279710             -0.1303938              0.0745976
      1.1903377             -0.1307889              0.3078467
      0.3594117              1.1309444              0.7434568
SP   1   1.00
      0.1267512              1.0000000              1.0000000
D    1   1.00
      0.8020000              1.0000000
D    1   1.00
      0.2005000              1.0000000
F    1   1.00
      0.5000000              1.0000000
****
C     0
S    6   1.00
   3047.5249000              0.0018347
    457.3695100              0.0140373
    103.9486900              0.0688426
     29.2101550              0.2321844
      9.2866630              0.4679413
      3.1639270              0.3623120
SP   3   1.00
      7.8682724             -0.1193324              0.0689991
      1.8812885             -0.1608542              0.3164240
      0.5442493              1.1434564              0.7443083
SP   1   1.00
      0.1687144              1.0000000              1.0000000
D    1   1.00
      1.2520000              1.0000000
D    1   1.00
      0.3130000              1.0000000
F    1   1.00
      0.8000000              1.0000000
****
N     0
S    6   1.00
   4173.5110000              0.0018348
    627.4579000              0.0139950
    142.9021000              0.0685870
     40.2343300              0.2322410
     12.8202100              0.4690700
      4.3904370              0.3604550
SP   3   1.00
     11.6263580             -0.1149610              0.0675800
      2.7162800             -0.1691180              0.3239070
      0.7722180              1.1458520              0.7408950
SP   1   1.00
      0.2120313              1.0000000              1.0000000
D    1   1.00
      1.8260000              1.0000000
D    1   1.00
      0.4565000              1.0000000
F    1   1.00
      1.0000000              1.0000000
****
O     0
S    6   1.00
   5484.6717000              0.0018311
    825.2349500              0.0139501
    188.0469600              0.0684451
     52.9645000              0.2327143
     16.8975700              0.4701930
      5.7996353              0.3585209
SP   3   1.00
     15.5396160             -0.1107775              0.0708743
      3.5999336             -0.1480263              0.3397528
      1.0137618              1.1307670              0.7271586
SP   1   1.00
      0.2700058              1.0000000              1.0000000
D    1   1.00
      2.5840000              1.0000000
D    1   1.00
      0.6460000              1.0000000
F    1   1.00
      1.4000000              1.0000000
****
F     0
S    6   1.00
   7001.7130900              0.0018196169
   1051.3660900              0.0139160796
    239.2856900              0.0684053245
     67.3974453              0.233185760
     21.5199573              0.471267439
      7.40310130             0.356618546
SP   3   1.00
     20.8479528             -0.108506975            0.0716287243
      4.80830834            -0.146451658            0.3459121030
      1.34406986             1.128688580            0.7224699570
SP   1   1.00
      0.358151393            1.0000000              1.0000000
D    1   1.00
      3.5000000              1.0000000
D    1   1.00
      0.8750000              1.0000000
F    1   1.00
      1.8500000              1.0000000
****
Al     0
S    6   1.00
  13983.1000000              0.00194267
   2098.7500000              0.0148599
    477.7050000              0.0728494
    134.3600000              0.2468300
     42.8709000              0.4872580
     14.5189000              0.3234960
SP   6   1.00
    239.6680000             -0.00292619             0.00460285
     57.4419000             -0.0374080              0.0331990
     18.2859000             -0.1144870              0.1362820
      6.5991400              0.1156350              0.3304760
      2.4904900              0.6125950              0.4491460
      0.9445400              0.3937990              0.2657040
SP   3   1.00
      1.2779000             -0.2276060             -0.0175130
      0.3975900              0.00144583             0.2445330
      0.1600950              1.0927900              0.8049340
SP   1   1.00
      0.0556577              1.0000000              1.0000000
D    1   1.00
      0.6500000              1.0000000
D    1   1.00
      0.1625000              1.0000000
F    1   1.00
      0.2500000              1.0000000
****
Si     0
S    6   1.00
  16115.9000000              0.00195948
   2425.5800000              0.01492880
    553.8670000              0.07284780
    156.3400000              0.24613000
     50.0683000              0.48591400
     17.0178000              0.32500200
SP   6   1.00
    292.7180000             -0.00278094             0.00443826
     69.8731000             -0.03571460             0.03266790
     22.3363000             -0.11498500             0.13472100
      8.1503900              0.09356340             0.32867800
      3.1345800              0.60301700             0.44964000
      1.2254300              0.41895900             0.26137200
SP   3   1.00
      1.7273800             -0.24463000            -0.01779510
      0.5729220              0.00431572             0.25353900
      0.2221920              1.09818000             0.80066900
SP   1   1.00
      0.0778369              1.00000000             1.00000000
D    1   1.00
      0.9000000              1.0000000
D    1   1.00
      0.2250000              1.0000000
F    1   1.00
      0.3200000              1.0000000
****
P     0
S    6   1.00
  19413.3000000              0.0018516
   2909.4200000              0.0142062
    661.3640000              0.0699995
    185.7590000              0.2400790
     59.1943000              0.4847620
     20.0310000              0.3352000
SP   6   1.00
    339.4780000             -0.00278217             0.00456462
     81.0101000             -0.0360499              0.03369360
     25.8780000             -0.1166310              0.13975500
      9.4522100              0.0968328              0.33936200
      3.6656600              0.6144180              0.45092100
      1.4674600              0.4037980              0.23858600
SP   3   1.00
      2.1562300             -0.2529230             -0.01776530
      0.7489970              0.0328517              0.27405800
      0.2831450              1.0812500              0.78542100
SP   1   1.00
      0.0998317              1.0000000              1.00000000
D    1   1.00
      1.1000000              1.0000000
D    1   1.00
      0.2750000              1.0000000
F    1   1.00
      0.4500000              1.0000000
****
S     0
S    6   1.00
  21917.1000000              0.0018690
   3301.4900000              0.0142300
    754.1460000              0.0696960
    212.7110000              0.2384870
     67.9896000              0.4833070
     23.0515000              0.3380740
SP   6   1.00
    423.7350000             -0.0023767              0.0040610
    100.7100000             -0.0316930              0.0306810
     32.1599000             -0.1133170              0.1304520
     11.8079000              0.0560900              0.3272050
      4.6311000              0.5922550              0.4528510
      1.8702500              0.4550060              0.2560420
SP   3   1.00
      2.6158400             -0.2503740             -0.0145110
      0.9221670              0.0669570              0.3102630
      0.3412870              1.0545100              0.7544830
SP   1   1.00
      0.1171670              1.0000000              1.0000000
D    1   1.00
      1.3000000              1.0000000
D    1   1.00
      0.3250000              1.0000000
F    1   1.00
      0.5500000              1.0000000
****
Cl     0
S    6   1.00
  25180.1000000              0.0018330
   3780.3500000              0.0140340
    860.4740000              0.0690970
    242.1450000              0.2374520
     77.3349000              0.4830340
     26.2470000              0.3398560
SP   6   1.00
    491.7650000             -0.0022974              0.0039894
    116.9840000             -0.0307140              0.0303180
     37.4153000             -0.1125280              0.1298800
     13.7834000              0.0450160              0.3279510
      5.4521500              0.5893530              0.4535270
      2.2258800              0.4652060              0.2521540
SP   3   1.00
      3.1864900             -0.2518300             -0.0142990
      1.1442700              0.0615890              0.3235720
      0.4203770              1.0601800              0.7435070
SP   1   1.00
      0.1426570              1.0000000              1.0000000
D    1   1.00
      1.5000000              1.0000000
D    1   1.00
      0.3750000              1.0000000
F    1   1.00
      0.7000000              1.0000000
****
}

set {
reference uhf
freeze_core true
e_convergence 10
d_convergence 10
dft_spherical_points 1202
dft_radial_points 99
}

e = energy('b3lyp')

print_out('Grab this energy {0}'.format(e))
--------------------------------------------------------------------------

    Molecular point group: cs

    Geometry (in Bohr), charge = 0, multiplicity = 2:

       Center              X                  Y                   Z               Mass
    ------------   -----------------  -----------------  -----------------  -----------------
         C           -0.321674862135     0.000137588339     0.000000000000    12.000000000000
         C            0.060450413465    -1.401034604261    -2.426108405000    12.000000000000
         C            0.060477559365     2.802356611539     0.000000000000    12.000000000000
         C            0.060450413465    -1.401034604261     2.426108405000    12.000000000000
         H            2.089293469565    -1.644327279861    -2.847174452900     1.007825032230
         H           -0.766194568635    -0.386938488761    -4.026233209500     1.007825032230
         H           -0.766201115235    -3.294744011561    -2.348404169300     1.007825032230
         H            2.082883554165     3.288200638439     0.000000000000     1.007825032230
         H           -0.763096511535     3.679379311339     1.672513528400     1.007825032230
         H           -0.763096511535     3.679379311339    -1.672513528400     1.007825032230
         H            2.089293469565    -1.644327279861     2.847174452900     1.007825032230
         H           -0.766201115235    -3.294744011561     2.348404169300     1.007825032230
         H           -0.766194568635    -0.386938488761     4.026233209500     1.007825032230

  Charge       = 0
  Multiplicity = 2
  Basis Set: ANONYMOUSCE7F76E6
    Blend: 6-31G_2DFP_
  Basis Set: (ANONYMOUSCE7F76E6 AUX)
    Blend: DEF2-UNIVERSAL-JKFIT

    Orbital Energies [Eh]
    ---------------------

    Alpha Occupied:

       1Ap   -10.180277     1App  -10.167373     2Ap   -10.167343
       3Ap   -10.166352     4Ap    -0.797782     5Ap    -0.686528
       2App   -0.685882     6Ap    -0.530769     7Ap    -0.441068
       3App   -0.434823     8Ap    -0.434647     9Ap    -0.382715
       4App   -0.382269     5App   -0.363738     6App   -0.338121
      10Ap    -0.338059    11Ap    -0.168778

    Alpha Virtual:

      12Ap     0.076067     7App    0.134152    13Ap     0.134152
      14Ap     0.142554     8App    0.142762    15Ap     0.154795
       9App    0.178386    16Ap     0.179037    17Ap     0.203521
      10App    0.214853    18Ap     0.276114    11App    0.276202
      12App    0.399172    19Ap     0.399325    20Ap     0.403424
      21Ap     0.424029    13App    0.424220    22Ap     0.456498
      14App    0.495345    23Ap     0.495485    15App    0.512116
      24Ap     0.514077    16App    0.578570    25Ap     0.578803
      17App    0.591306    26Ap     0.591887    27Ap     0.602373
      28Ap     0.624847    18App    0.631762    29Ap     0.636022
      19App    0.636862    20App    0.663071    30Ap     0.663439
      21App    0.683652    31Ap     0.684287    32Ap     0.735190
      33Ap     0.825064    22App    0.825851    23App    0.853915
      34Ap     0.915082    24App    0.915099    25App    0.944083
      35Ap     0.944563    36Ap     0.961039    26App    0.961520
      37Ap     1.003454    27App    1.127695    38Ap     1.128334
      39Ap     1.142205    40Ap     1.162744    28App    1.162930
      41Ap     1.223486    29App    1.274375    42Ap     1.274733
      43Ap     1.279111    44Ap     1.324252    30App    1.324957
      45Ap     1.355743    31App    1.366162    46Ap     1.366698
      32App    1.392450    33App    1.403617    47Ap     1.404383
      34App    1.416545    48Ap     1.417191    35App    1.427864
      36App    1.491675    49Ap     1.498691    50Ap     1.542729
      37App    1.542840    51Ap     1.574449    38App    1.575017
      52Ap     1.670067    53Ap     1.739553    39App    1.739734
      54Ap     1.768271    40App    1.830193    55Ap     1.833443
      41App    1.971962    56Ap     2.018410    42App    2.018870
      57Ap     2.019505    58Ap     2.052223    43App    2.052328
      59Ap     2.738233    44App    2.739128    60Ap     2.790725
      45App    2.811460    46App    2.889929    61Ap     2.890424
      62Ap     2.894675    63Ap     2.929370    47App    2.929579
      48App    2.959073    49App    2.963978    64Ap     2.965008
      65Ap     3.033667    50App    3.071875    66Ap     3.072368
      51App    3.084455    67Ap     3.168522    52App    3.168802
      68Ap     3.180628    69Ap     3.284450    53App    3.284587
      70Ap     3.326765    54App    3.326852    71Ap     3.375442
      72Ap     3.489566    55App    3.491217    56App    3.514198
      73Ap     3.524880    57App    3.568573    74Ap     3.568735
      58App    3.574581    59App    3.666234    75Ap     3.667597
      76Ap     3.679876    60App    3.693577    77Ap     3.694576
      61App    3.776529    78Ap     3.777667    79Ap     3.790386
      62App    3.911798    80Ap     3.912679    81Ap     4.034750
      63App    4.110826    82Ap     4.112273    83Ap     4.146172
      64App    4.150031    84Ap     4.173355    85Ap     4.201200
      65App    4.202070    86Ap     4.205265    66App    4.211117
      67App    4.315058    87Ap     4.316460    68App    4.358465
      88Ap     4.424417    69App    4.424715    70App    4.443807
      71App    4.516293    89Ap     4.516759    90Ap     4.577707
      72App    4.578651    91Ap     4.618027    92Ap     4.709158
      73App    4.774654    93Ap     4.774838    74App    4.838068
      94Ap     4.962767    75App    5.002229    95Ap     5.003419
      96Ap     5.227942    97Ap     5.243275    76App    5.250540
      77App    5.352782    98Ap     5.358967    78App    5.479801

    Beta Occupied:

       1App  -10.168131     1Ap   -10.168111     2Ap   -10.167115
       3Ap   -10.166455     4Ap    -0.781103     5Ap    -0.684332
       2App   -0.683688     6Ap    -0.511749     3App   -0.431215
       7Ap    -0.431017     8Ap    -0.421735     9Ap    -0.376798
       4App   -0.376335     5App   -0.362723     6App   -0.333233
      10Ap    -0.333186

    Beta Virtual:

      11Ap    -0.025642    12Ap     0.077081    13Ap     0.134996
       7App    0.135109    14Ap     0.144469     8App    0.144581
      15Ap     0.163265     9App    0.182065    16Ap     0.182698
      10App    0.215083    17Ap     0.218925    18Ap     0.282448
      11App    0.282540    12App    0.400338    19Ap     0.400499
      20Ap     0.419897    21Ap     0.426835    13App    0.427032
      22Ap     0.468392    14App    0.497600    23Ap     0.497741
      15App    0.513856    24Ap     0.556423    16App    0.584126
      25Ap     0.584374    17App    0.597502    26Ap     0.598043
      27Ap     0.609818    28Ap     0.628200    18App    0.631949
      29Ap     0.639326    19App    0.640089    20App    0.666618
      30Ap     0.667015    21App    0.686328    31Ap     0.686893
      32Ap     0.757693    33Ap     0.830203    22App    0.831042
      23App    0.855273    34Ap     0.923045    24App    0.923058
      25App    0.945923    35Ap     0.953497    36Ap     0.966408
      26App    0.966830    37Ap     1.008675    27App    1.131699
      38Ap     1.132373    39Ap     1.155612    40Ap     1.167808
      28App    1.168019    41Ap     1.232463    29App    1.279954
      42Ap     1.280317    43Ap     1.284856    44Ap     1.329186
      30App    1.329984    45Ap     1.365178    31App    1.371422
      46Ap     1.371938    32App    1.393515    33App    1.407066
      47Ap     1.407868    34App    1.421571    48Ap     1.422308
      35App    1.428127    36App    1.492725    49Ap     1.509128
      50Ap     1.547092    37App    1.547293    51Ap     1.582329
      38App    1.582879    52Ap     1.674897    53Ap     1.745339
      39App    1.745480    54Ap     1.779069    40App    1.834086
      55Ap     1.837277    41App    1.972827    56Ap     2.025081
      42App    2.025211    57Ap     2.040665    58Ap     2.058866
      43App    2.059081    59Ap     2.746555    44App    2.747478
      45App    2.811864    60Ap     2.815880    46App    2.902654
      61Ap     2.903021    62Ap     2.924362    63Ap     2.931916
      47App    2.932021    48App    2.960137    49App    2.968471
      64Ap     2.969582    65Ap     3.041642    50App    3.081648
      66Ap     3.082295    51App    3.086319    67Ap     3.184317
      52App    3.184693    68Ap     3.188275    69Ap     3.289262
      53App    3.289451    70Ap     3.330581    54App    3.330627
      71Ap     3.383251    72Ap     3.492310    55App    3.493897
      56App    3.512557    73Ap     3.527916    57App    3.574336
      74Ap     3.581999    58App    3.582003    59App    3.670940
      75Ap     3.672438    76Ap     3.693199    60App    3.725215
      77Ap     3.726149    61App    3.781043    78Ap     3.782128
      79Ap     3.818941    62App    3.921666    80Ap     3.922521
      81Ap     4.045604    63App    4.117853    82Ap     4.118884
      83Ap     4.153592    64App    4.157034    84Ap     4.187447
      65App    4.207950    85Ap     4.208055    86Ap     4.212362
      66App    4.215619    67App    4.322600    87Ap     4.323753
      68App    4.361829    88Ap     4.432731    69App    4.432867
      70App    4.446735    71App    4.524163    89Ap     4.524508
      90Ap     4.588321    72App    4.589170    91Ap     4.625227
      92Ap     4.719477    73App    4.781560    93Ap     4.781809
      74App    4.840973    94Ap     4.967566    75App    5.006298
      95Ap     5.007455    96Ap     5.233645    97Ap     5.245075
      76App    5.252324    77App    5.359268    98Ap     5.365422
      78App    5.482115

    Final Occupation by Irrep:
             Ap   App
    DOCC [    10,    6 ]
    SOCC [     1,    0 ]

  @DF-UKS Final Energy:  -157.81306561525682

   => Energetics <=

    Nuclear Repulsion Energy =            125.3970764240611970
    One-Electron Energy =                -458.7536177564849140
    Two-Electron Energy =                 195.8506916464885705
    DFT Exchange-Correlation Energy =     -20.3072159293216643
    Empirical Dispersion Energy =           0.0000000000000000
    VV10 Nonlocal Energy =                  0.0000000000000000
    Total Energy =                       -157.8130656152568179

  UHF NO Occupations:
  HONO-2 :    9 Ap 1.9995994
  HONO-1 :   10 Ap 1.9989790
  HONO-0 :   11 Ap 1.0000000
  LUNO+0 :   12 Ap 0.0010210
  LUNO+1 :   13 Ap 0.0004006
  LUNO+2 :    7App 0.0001975
  LUNO+3 :   14 Ap 0.0001974

Computation Completed

Properties will be evaluated at   0.000000,   0.000000,   0.000000 [a0]

Properties computed using the SCF density matrix

  Nuclear Dipole Moment: [e a0]
     X:     0.8287      Y:    -0.0025      Z:     0.0000

  Electronic Dipole Moment: [e a0]
     X:    -0.7516      Y:     0.0050      Z:     0.0000

  Dipole Moment: [e a0]
     X:     0.0771      Y:     0.0024      Z:     0.0000     Total:     0.0772

  Dipole Moment: [D]
     X:     0.1961      Y:     0.0062      Z:     0.0000     Total:     0.1962

*** tstop() called on n071 at Fri Nov  5 11:37:19 2021
Module time:
	user time   =     575.08 seconds =       9.58 minutes
	system time =      13.33 seconds =       0.22 minutes
	total time  =        148 seconds =       2.47 minutes
Total time:
	user time   =     575.08 seconds =       9.58 minutes
	system time =      13.33 seconds =       0.22 minutes
	total time  =        148 seconds =       2.47 minutes
Grab this energy -157.81306561525682
    Psi4 stopped on: Friday, 05 November 2021 11:37AM
    Psi4 wall time for execution: 0:02:28.15

*** Psi4 exiting successfully. Buy a developer a beer!
