                               Psi4 1.4a2.dev629

  ==> Input File <==

--------------------------------------------------------------------------
import os
memory 14 GB

molecule {
 C   -0.3233417860   -0.0000027871    0.0002373303
 C    0.0592793317   -1.4008608408   -2.4255411807
 C    0.0610198238    2.8017587251    0.0008084755
 C    0.0629985030   -1.4008958748    2.4272192653
 H    2.0907335271   -1.6437636577   -2.8471268154
 H   -0.7666169103   -0.3851609168   -4.0280402629
 H   -0.7670104701   -3.2950942295   -2.3474739276
 H    2.0867985267    3.2881011187   -0.0002633617
 H   -0.7658733449    3.6798033086    1.6760070719
 H   -0.7654192789    3.6807035198   -1.6769944417
 H    2.0831406763   -1.6444277198    2.8477507993
 H   -0.7641275676   -3.2889066854    2.3504971700
 H   -0.7641889075   -0.3912782738    4.0229198777
units bohr
0 2
}

basis {

assign 6-31g_2dfp_

[ 6-31g_2dfp_ ]

spherical

!----------------------------------------------------------------------
! Basis Set Exchange
! Version v0.8.13
! https://www.basissetexchange.org
!----------------------------------------------------------------------
!   Basis set: 6-31G(2df,p)
! Description: 6-31G(2df,p)
!        Role: orbital
!     Version: 0  (Data from the original Basis Set Exchange)
!----------------------------------------------------------------------

****
H     0
S    3   1.00
     18.7311370              0.03349460
      2.8253937              0.23472695
      0.6401217              0.81375733
S    1   1.00
      0.1612778              1.00000000
P    1   1.00
      1.5000000              1.0000000
P    1   1.00
      0.3750000              1.0000000
****
B     0
S    6   1.00
   2068.8823000              0.0018663
    310.6495700              0.0142515
     70.6830330              0.0695516
     19.8610800              0.2325729
      6.2993048              0.4670787
      2.1270270              0.3634314
SP   3   1.00
      4.7279710             -0.1303938              0.0745976
      1.1903377             -0.1307889              0.3078467
      0.3594117              1.1309444              0.7434568
SP   1   1.00
      0.1267512              1.0000000              1.0000000
D    1   1.00
      0.8020000              1.0000000
D    1   1.00
      0.2005000              1.0000000
F    1   1.00
      0.5000000              1.0000000
****
C     0
S    6   1.00
   3047.5249000              0.0018347
    457.3695100              0.0140373
    103.9486900              0.0688426
     29.2101550              0.2321844
      9.2866630              0.4679413
      3.1639270              0.3623120
SP   3   1.00
      7.8682724             -0.1193324              0.0689991
      1.8812885             -0.1608542              0.3164240
      0.5442493              1.1434564              0.7443083
SP   1   1.00
      0.1687144              1.0000000              1.0000000
D    1   1.00
      1.2520000              1.0000000
D    1   1.00
      0.3130000              1.0000000
F    1   1.00
      0.8000000              1.0000000
****
N     0
S    6   1.00
   4173.5110000              0.0018348
    627.4579000              0.0139950
    142.9021000              0.0685870
     40.2343300              0.2322410
     12.8202100              0.4690700
      4.3904370              0.3604550
SP   3   1.00
     11.6263580             -0.1149610              0.0675800
      2.7162800             -0.1691180              0.3239070
      0.7722180              1.1458520              0.7408950
SP   1   1.00
      0.2120313              1.0000000              1.0000000
D    1   1.00
      1.8260000              1.0000000
D    1   1.00
      0.4565000              1.0000000
F    1   1.00
      1.0000000              1.0000000
****
O     0
S    6   1.00
   5484.6717000              0.0018311
    825.2349500              0.0139501
    188.0469600              0.0684451
     52.9645000              0.2327143
     16.8975700              0.4701930
      5.7996353              0.3585209
SP   3   1.00
     15.5396160             -0.1107775              0.0708743
      3.5999336             -0.1480263              0.3397528
      1.0137618              1.1307670              0.7271586
SP   1   1.00
      0.2700058              1.0000000              1.0000000
D    1   1.00
      2.5840000              1.0000000
D    1   1.00
      0.6460000              1.0000000
F    1   1.00
      1.4000000              1.0000000
****
F     0
S    6   1.00
   7001.7130900              0.0018196169
   1051.3660900              0.0139160796
    239.2856900              0.0684053245
     67.3974453              0.233185760
     21.5199573              0.471267439
      7.40310130             0.356618546
SP   3   1.00
     20.8479528             -0.108506975            0.0716287243
      4.80830834            -0.146451658            0.3459121030
      1.34406986             1.128688580            0.7224699570
SP   1   1.00
      0.358151393            1.0000000              1.0000000
D    1   1.00
      3.5000000              1.0000000
D    1   1.00
      0.8750000              1.0000000
F    1   1.00
      1.8500000              1.0000000
****
Al     0
S    6   1.00
  13983.1000000              0.00194267
   2098.7500000              0.0148599
    477.7050000              0.0728494
    134.3600000              0.2468300
     42.8709000              0.4872580
     14.5189000              0.3234960
SP   6   1.00
    239.6680000             -0.00292619             0.00460285
     57.4419000             -0.0374080              0.0331990
     18.2859000             -0.1144870              0.1362820
      6.5991400              0.1156350              0.3304760
      2.4904900              0.6125950              0.4491460
      0.9445400              0.3937990              0.2657040
SP   3   1.00
      1.2779000             -0.2276060             -0.0175130
      0.3975900              0.00144583             0.2445330
      0.1600950              1.0927900              0.8049340
SP   1   1.00
      0.0556577              1.0000000              1.0000000
D    1   1.00
      0.6500000              1.0000000
D    1   1.00
      0.1625000              1.0000000
F    1   1.00
      0.2500000              1.0000000
****
Si     0
S    6   1.00
  16115.9000000              0.00195948
   2425.5800000              0.01492880
    553.8670000              0.07284780
    156.3400000              0.24613000
     50.0683000              0.48591400
     17.0178000              0.32500200
SP   6   1.00
    292.7180000             -0.00278094             0.00443826
     69.8731000             -0.03571460             0.03266790
     22.3363000             -0.11498500             0.13472100
      8.1503900              0.09356340             0.32867800
      3.1345800              0.60301700             0.44964000
      1.2254300              0.41895900             0.26137200
SP   3   1.00
      1.7273800             -0.24463000            -0.01779510
      0.5729220              0.00431572             0.25353900
      0.2221920              1.09818000             0.80066900
SP   1   1.00
      0.0778369              1.00000000             1.00000000
D    1   1.00
      0.9000000              1.0000000
D    1   1.00
      0.2250000              1.0000000
F    1   1.00
      0.3200000              1.0000000
****
P     0
S    6   1.00
  19413.3000000              0.0018516
   2909.4200000              0.0142062
    661.3640000              0.0699995
    185.7590000              0.2400790
     59.1943000              0.4847620
     20.0310000              0.3352000
SP   6   1.00
    339.4780000             -0.00278217             0.00456462
     81.0101000             -0.0360499              0.03369360
     25.8780000             -0.1166310              0.13975500
      9.4522100              0.0968328              0.33936200
      3.6656600              0.6144180              0.45092100
      1.4674600              0.4037980              0.23858600
SP   3   1.00
      2.1562300             -0.2529230             -0.01776530
      0.7489970              0.0328517              0.27405800
      0.2831450              1.0812500              0.78542100
SP   1   1.00
      0.0998317              1.0000000              1.00000000
D    1   1.00
      1.1000000              1.0000000
D    1   1.00
      0.2750000              1.0000000
F    1   1.00
      0.4500000              1.0000000
****
S     0
S    6   1.00
  21917.1000000              0.0018690
   3301.4900000              0.0142300
    754.1460000              0.0696960
    212.7110000              0.2384870
     67.9896000              0.4833070
     23.0515000              0.3380740
SP   6   1.00
    423.7350000             -0.0023767              0.0040610
    100.7100000             -0.0316930              0.0306810
     32.1599000             -0.1133170              0.1304520
     11.8079000              0.0560900              0.3272050
      4.6311000              0.5922550              0.4528510
      1.8702500              0.4550060              0.2560420
SP   3   1.00
      2.6158400             -0.2503740             -0.0145110
      0.9221670              0.0669570              0.3102630
      0.3412870              1.0545100              0.7544830
SP   1   1.00
      0.1171670              1.0000000              1.0000000
D    1   1.00
      1.3000000              1.0000000
D    1   1.00
      0.3250000              1.0000000
F    1   1.00
      0.5500000              1.0000000
****
Cl     0
S    6   1.00
  25180.1000000              0.0018330
   3780.3500000              0.0140340
    860.4740000              0.0690970
    242.1450000              0.2374520
     77.3349000              0.4830340
     26.2470000              0.3398560
SP   6   1.00
    491.7650000             -0.0022974              0.0039894
    116.9840000             -0.0307140              0.0303180
     37.4153000             -0.1125280              0.1298800
     13.7834000              0.0450160              0.3279510
      5.4521500              0.5893530              0.4535270
      2.2258800              0.4652060              0.2521540
SP   3   1.00
      3.1864900             -0.2518300             -0.0142990
      1.1442700              0.0615890              0.3235720
      0.4203770              1.0601800              0.7435070
SP   1   1.00
      0.1426570              1.0000000              1.0000000
D    1   1.00
      1.5000000              1.0000000
D    1   1.00
      0.3750000              1.0000000
F    1   1.00
      0.7000000              1.0000000
****
}

set {
reference uhf
freeze_core true
e_convergence 10
d_convergence 10
dft_spherical_points 1202
dft_radial_points 99
}

e = energy('b3lyp')

print_out('Grab this energy {0}'.format(e))
--------------------------------------------------------------------------

    Molecular point group: c1

    Geometry (in Bohr), charge = 0, multiplicity = 2:

       Center              X                  Y                   Z               Mass
    ------------   -----------------  -----------------  -----------------  -----------------
         C           -0.323340988095    -0.000002207969    -0.000287310610    12.000000000000
         C            0.059280129605    -1.400860261669    -2.426065821610    12.000000000000
         C            0.061020621705     2.801759304231     0.000283834590    12.000000000000
         C            0.062999300905    -1.400895295669     2.426694624390    12.000000000000
         H            2.090734325005    -1.643763078569    -2.847651456310     1.007825032230
         H           -0.766616112395    -0.385160337669    -4.028564903810     1.007825032230
         H           -0.767009672195    -3.295093650369    -2.347998568510     1.007825032230
         H            2.086799324605     3.288101697831    -0.000788002610     1.007825032230
         H           -0.765872546995     3.679803887731     1.675482430990     1.007825032230
         H           -0.765418480995     3.680704098931    -1.677519082610     1.007825032230
         H            2.083141474205    -1.644427140669     2.847226158390     1.007825032230
         H           -0.764126769695    -3.288906106269     2.349972529090     1.007825032230
         H           -0.764188109595    -0.391277694669     4.022395236790     1.007825032230

  Charge       = 0
  Multiplicity = 2
  Basis Set: ANONYMOUS2696338F
    Blend: 6-31G_2DFP_
  Basis Set: (ANONYMOUS2696338F AUX)
    Blend: DEF2-UNIVERSAL-JKFIT

    Orbital Energies [Eh]
    ---------------------

    Alpha Occupied:

       1A    -10.180342     2A    -10.167624     3A    -10.167015
       4A    -10.166405     5A     -0.797767     6A     -0.686477
       7A     -0.685899     8A     -0.530775     9A     -0.441130
      10A     -0.434683    11A     -0.434655    12A     -0.382972
      13A     -0.382226    14A     -0.363610    15A     -0.338116
      16A     -0.337883    17A     -0.168961

    Alpha Virtual:

      18A      0.076070    19A      0.134117    20A      0.134181
      21A      0.142593    22A      0.142674    23A      0.154873
      24A      0.178344    25A      0.179218    26A      0.203547
      27A      0.214804    28A      0.275885    29A      0.276085
      30A      0.399150    31A      0.399306    32A      0.403342
      33A      0.423954    34A      0.424240    35A      0.456592
      36A      0.495347    37A      0.495431    38A      0.512163
      39A      0.513979    40A      0.578605    41A      0.579023
      42A      0.591197    43A      0.592037    44A      0.602606
      45A      0.624767    46A      0.631714    47A      0.636000
      48A      0.636553    49A      0.663066    50A      0.663772
      51A      0.683692    52A      0.684024    53A      0.734995
      54A      0.824991    55A      0.825815    56A      0.853915
      57A      0.915017    58A      0.915037    59A      0.944129
      60A      0.944612    61A      0.961126    62A      0.961469
      63A      1.003452    64A      1.127675    65A      1.128539
      66A      1.142221    67A      1.163260    68A      1.163284
      69A      1.223317    70A      1.274166    71A      1.274809
      72A      1.279358    73A      1.324254    74A      1.324457
      75A      1.355966    76A      1.366012    77A      1.366095
      78A      1.392445    79A      1.403543    80A      1.404553
      81A      1.416505    82A      1.417724    83A      1.427918
      84A      1.491486    85A      1.499095    86A      1.542807
      87A      1.542834    88A      1.574022    89A      1.574893
      90A      1.669796    91A      1.739067    92A      1.739721
      93A      1.768370    94A      1.830023    95A      1.832829
      96A      1.971695    97A      2.017794    98A      2.018817
      99A      2.019738   100A      2.052371   101A      2.052992
     102A      2.738075   103A      2.738890   104A      2.790929
     105A      2.811431   106A      2.889888   107A      2.889950
     108A      2.895003   109A      2.929360   110A      2.929632
     111A      2.959005   112A      2.963754   113A      2.965014
     114A      3.034026   115A      3.071184   116A      3.071392
     117A      3.084364   118A      3.168764   119A      3.168787
     120A      3.180604   121A      3.285284   122A      3.285354
     123A      3.327053   124A      3.327277   125A      3.375610
     126A      3.489019   127A      3.491303   128A      3.514017
     129A      3.525335   130A      3.568223   131A      3.568521
     132A      3.575175   133A      3.665331   134A      3.667382
     135A      3.679687   136A      3.693668   137A      3.694573
     138A      3.776186   139A      3.777448   140A      3.789118
     141A      3.911852   142A      3.912578   143A      4.034432
     144A      4.110695   145A      4.111979   146A      4.146001
     147A      4.150107   148A      4.173298   149A      4.200422
     150A      4.202886   151A      4.205384   152A      4.211201
     153A      4.315672   154A      4.316208   155A      4.358959
     156A      4.424046   157A      4.424742   158A      4.443620
     159A      4.515526   160A      4.518093   161A      4.577650
     162A      4.578962   163A      4.617532   164A      4.709482
     165A      4.773983   166A      4.775210   167A      4.836864
     168A      4.962856   169A      5.001935   170A      5.003986
     171A      5.227859   172A      5.243152   173A      5.250469
     174A      5.352842   175A      5.358346   176A      5.479431

    Beta Occupied:

       1A    -10.168387     2A    -10.167775     3A    -10.167165
       4A    -10.166516     5A     -0.781092     6A     -0.684279
       7A     -0.683702     8A     -0.511746     9A     -0.431051
      10A     -0.431034    11A     -0.421824    12A     -0.377074
      13A     -0.376292    14A     -0.362594    15A     -0.333233
      16A     -0.333012

    Beta Virtual:

      17A     -0.025743    18A      0.077079    19A      0.135006
      20A      0.135074    21A      0.144500    22A      0.144506
      23A      0.163331    24A      0.182023    25A      0.182883
      26A      0.215034    27A      0.218929    28A      0.282234
      29A      0.282433    30A      0.400322    31A      0.400473
      32A      0.419789    33A      0.426760    34A      0.427058
      35A      0.468500    36A      0.497604    37A      0.497695
      38A      0.513898    39A      0.556324    40A      0.584152
      41A      0.584575    42A      0.597399    43A      0.598203
      44A      0.610022    45A      0.628142    46A      0.631898
      47A      0.639295    48A      0.639802    49A      0.666632
      50A      0.667334    51A      0.686365    52A      0.686622
      53A      0.757517    54A      0.830136    55A      0.831007
      56A      0.855269    57A      0.922987    58A      0.923009
      59A      0.945966    60A      0.953541    61A      0.966467
      62A      0.966739    63A      1.008692    64A      1.131651
      65A      1.132623    66A      1.155595    67A      1.168292
      68A      1.168399    69A      1.232291    70A      1.279757
      71A      1.280415    72A      1.285109    73A      1.329207
      74A      1.329482    75A      1.365371    76A      1.371245
      77A      1.371357    78A      1.393505    79A      1.406975
      80A      1.408049    81A      1.421526    82A      1.422803
      83A      1.428188    84A      1.492535    85A      1.509536
      86A      1.547099    87A      1.547357    88A      1.581955
      89A      1.582703    90A      1.674642    91A      1.744824
      92A      1.745497    93A      1.779141    94A      1.833907
      95A      1.836654    96A      1.972559    97A      2.024816
      98A      2.026014    99A      2.039694   100A      2.059172
     101A      2.059621   102A      2.746392   103A      2.747245
     104A      2.811843   105A      2.816064   106A      2.902559
     107A      2.902700   108A      2.924663   109A      2.931894
     110A      2.932060   111A      2.960070   112A      2.968263
     113A      2.969593   114A      3.041959   115A      3.081029
     116A      3.081361   117A      3.086188   118A      3.184418
     119A      3.184577   120A      3.188342   121A      3.290047
     122A      3.290188   123A      3.330823   124A      3.331115
     125A      3.383429   126A      3.491782   127A      3.494000
     128A      3.512382   129A      3.528380   130A      3.574968
     131A      3.581681   132A      3.581806   133A      3.670085
     134A      3.672132   135A      3.692990   136A      3.725135
     137A      3.726352   138A      3.780757   139A      3.781933
     140A      3.817664   141A      3.921698   142A      3.922367
     143A      4.045313   144A      4.117669   145A      4.118621
     146A      4.153388   147A      4.157165   148A      4.187353
     149A      4.207123   150A      4.209059   151A      4.212350
     152A      4.215680   153A      4.323253   154A      4.323500
     155A      4.362332   156A      4.432279   157A      4.432869
     158A      4.446568   159A      4.523381   160A      4.525818
     161A      4.588313   162A      4.589504   163A      4.624724
     164A      4.719825   165A      4.780922   166A      4.782177
     167A      4.839781   168A      4.967654   169A      5.006008
     170A      5.007990   171A      5.233562   172A      5.244948
     173A      5.252257   174A      5.359334   175A      5.364811
     176A      5.481752

    Final Occupation by Irrep:
              A
    DOCC [    16 ]
    SOCC [     1 ]

  @DF-UKS Final Energy:  -157.81305591398049

   => Energetics <=

    Nuclear Repulsion Energy =            125.3946580325314528
    One-Electron Energy =                -458.7489421943527077
    Two-Electron Energy =                 195.8483759216289855
    DFT Exchange-Correlation Energy =     -20.3071476737881973
    Empirical Dispersion Energy =           0.0000000000000000
    VV10 Nonlocal Energy =                  0.0000000000000000
    Total Energy =                       -157.8130559139804916

  UHF NO Occupations:
  HONO-2 :   15  A 1.9996008
  HONO-1 :   16  A 1.9989804
  HONO-0 :   17  A 1.0000000
  LUNO+0 :   18  A 0.0010196
  LUNO+1 :   19  A 0.0003992
  LUNO+2 :   20  A 0.0001976
  LUNO+3 :   21  A 0.0001975

Computation Completed

Properties will be evaluated at   0.000000,   0.000000,   0.000000 [a0]

Properties computed using the SCF density matrix

  Nuclear Dipole Moment: [e a0]
     X:     0.8272      Y:    -0.0000      Z:    -0.0037

  Electronic Dipole Moment: [e a0]
     X:    -0.7493      Y:     0.0000      Z:     0.0060

  Dipole Moment: [e a0]
     X:     0.0779      Y:     0.0000      Z:     0.0023     Total:     0.0779

  Dipole Moment: [D]
     X:     0.1980      Y:     0.0000      Z:     0.0059     Total:     0.1981

*** tstop() called on n083 at Fri Nov  5 12:20:58 2021
Module time:
	user time   =     577.95 seconds =       9.63 minutes
	system time =       5.50 seconds =       0.09 minutes
	total time  =        146 seconds =       2.43 minutes
Total time:
	user time   =     577.95 seconds =       9.63 minutes
	system time =       5.50 seconds =       0.09 minutes
	total time  =        146 seconds =       2.43 minutes
Grab this energy -157.8130559139805
    Psi4 stopped on: Friday, 05 November 2021 12:20PM
    Psi4 wall time for execution: 0:02:26.65

*** Psi4 exiting successfully. Buy a developer a beer!
