                               Psi4 1.4a2.dev629

  ==> Input File <==

--------------------------------------------------------------------------
import os
memory 14 GB

molecule {
 C   -0.3233180192   -0.0000031909    0.0024283702
 C    0.0619218379   -1.4022921293   -2.4275789839
 C    0.0611131479    2.8024169669    0.0012512082
 C    0.0605447959   -1.4001228482    2.4263242637
 H    2.0860072381   -1.6424777274   -2.8479749961
 H   -0.7648260234   -0.3926844464   -4.0238848120
 H   -0.7606447048   -3.2927154185   -2.3528929232
 H    2.0836404846    3.2884601810   -0.0033475729
 H   -0.7597656269    3.6829445055    1.6770420313
 H   -0.7684694220    3.6771626348   -1.6703670064
 H    2.0815577138   -1.6460739411    2.8475290705
 H   -0.7674374468   -3.2862489682    2.3475279146
 H   -0.7629318518   -0.3883899318    4.0239434359
units bohr
0 2
}

basis {

assign 6-31g_2dfp_

[ 6-31g_2dfp_ ]

spherical

!----------------------------------------------------------------------
! Basis Set Exchange
! Version v0.8.13
! https://www.basissetexchange.org
!----------------------------------------------------------------------
!   Basis set: 6-31G(2df,p)
! Description: 6-31G(2df,p)
!        Role: orbital
!     Version: 0  (Data from the original Basis Set Exchange)
!----------------------------------------------------------------------

****
H     0
S    3   1.00
     18.7311370              0.03349460
      2.8253937              0.23472695
      0.6401217              0.81375733
S    1   1.00
      0.1612778              1.00000000
P    1   1.00
      1.5000000              1.0000000
P    1   1.00
      0.3750000              1.0000000
****
B     0
S    6   1.00
   2068.8823000              0.0018663
    310.6495700              0.0142515
     70.6830330              0.0695516
     19.8610800              0.2325729
      6.2993048              0.4670787
      2.1270270              0.3634314
SP   3   1.00
      4.7279710             -0.1303938              0.0745976
      1.1903377             -0.1307889              0.3078467
      0.3594117              1.1309444              0.7434568
SP   1   1.00
      0.1267512              1.0000000              1.0000000
D    1   1.00
      0.8020000              1.0000000
D    1   1.00
      0.2005000              1.0000000
F    1   1.00
      0.5000000              1.0000000
****
C     0
S    6   1.00
   3047.5249000              0.0018347
    457.3695100              0.0140373
    103.9486900              0.0688426
     29.2101550              0.2321844
      9.2866630              0.4679413
      3.1639270              0.3623120
SP   3   1.00
      7.8682724             -0.1193324              0.0689991
      1.8812885             -0.1608542              0.3164240
      0.5442493              1.1434564              0.7443083
SP   1   1.00
      0.1687144              1.0000000              1.0000000
D    1   1.00
      1.2520000              1.0000000
D    1   1.00
      0.3130000              1.0000000
F    1   1.00
      0.8000000              1.0000000
****
N     0
S    6   1.00
   4173.5110000              0.0018348
    627.4579000              0.0139950
    142.9021000              0.0685870
     40.2343300              0.2322410
     12.8202100              0.4690700
      4.3904370              0.3604550
SP   3   1.00
     11.6263580             -0.1149610              0.0675800
      2.7162800             -0.1691180              0.3239070
      0.7722180              1.1458520              0.7408950
SP   1   1.00
      0.2120313              1.0000000              1.0000000
D    1   1.00
      1.8260000              1.0000000
D    1   1.00
      0.4565000              1.0000000
F    1   1.00
      1.0000000              1.0000000
****
O     0
S    6   1.00
   5484.6717000              0.0018311
    825.2349500              0.0139501
    188.0469600              0.0684451
     52.9645000              0.2327143
     16.8975700              0.4701930
      5.7996353              0.3585209
SP   3   1.00
     15.5396160             -0.1107775              0.0708743
      3.5999336             -0.1480263              0.3397528
      1.0137618              1.1307670              0.7271586
SP   1   1.00
      0.2700058              1.0000000              1.0000000
D    1   1.00
      2.5840000              1.0000000
D    1   1.00
      0.6460000              1.0000000
F    1   1.00
      1.4000000              1.0000000
****
F     0
S    6   1.00
   7001.7130900              0.0018196169
   1051.3660900              0.0139160796
    239.2856900              0.0684053245
     67.3974453              0.233185760
     21.5199573              0.471267439
      7.40310130             0.356618546
SP   3   1.00
     20.8479528             -0.108506975            0.0716287243
      4.80830834            -0.146451658            0.3459121030
      1.34406986             1.128688580            0.7224699570
SP   1   1.00
      0.358151393            1.0000000              1.0000000
D    1   1.00
      3.5000000              1.0000000
D    1   1.00
      0.8750000              1.0000000
F    1   1.00
      1.8500000              1.0000000
****
Al     0
S    6   1.00
  13983.1000000              0.00194267
   2098.7500000              0.0148599
    477.7050000              0.0728494
    134.3600000              0.2468300
     42.8709000              0.4872580
     14.5189000              0.3234960
SP   6   1.00
    239.6680000             -0.00292619             0.00460285
     57.4419000             -0.0374080              0.0331990
     18.2859000             -0.1144870              0.1362820
      6.5991400              0.1156350              0.3304760
      2.4904900              0.6125950              0.4491460
      0.9445400              0.3937990              0.2657040
SP   3   1.00
      1.2779000             -0.2276060             -0.0175130
      0.3975900              0.00144583             0.2445330
      0.1600950              1.0927900              0.8049340
SP   1   1.00
      0.0556577              1.0000000              1.0000000
D    1   1.00
      0.6500000              1.0000000
D    1   1.00
      0.1625000              1.0000000
F    1   1.00
      0.2500000              1.0000000
****
Si     0
S    6   1.00
  16115.9000000              0.00195948
   2425.5800000              0.01492880
    553.8670000              0.07284780
    156.3400000              0.24613000
     50.0683000              0.48591400
     17.0178000              0.32500200
SP   6   1.00
    292.7180000             -0.00278094             0.00443826
     69.8731000             -0.03571460             0.03266790
     22.3363000             -0.11498500             0.13472100
      8.1503900              0.09356340             0.32867800
      3.1345800              0.60301700             0.44964000
      1.2254300              0.41895900             0.26137200
SP   3   1.00
      1.7273800             -0.24463000            -0.01779510
      0.5729220              0.00431572             0.25353900
      0.2221920              1.09818000             0.80066900
SP   1   1.00
      0.0778369              1.00000000             1.00000000
D    1   1.00
      0.9000000              1.0000000
D    1   1.00
      0.2250000              1.0000000
F    1   1.00
      0.3200000              1.0000000
****
P     0
S    6   1.00
  19413.3000000              0.0018516
   2909.4200000              0.0142062
    661.3640000              0.0699995
    185.7590000              0.2400790
     59.1943000              0.4847620
     20.0310000              0.3352000
SP   6   1.00
    339.4780000             -0.00278217             0.00456462
     81.0101000             -0.0360499              0.03369360
     25.8780000             -0.1166310              0.13975500
      9.4522100              0.0968328              0.33936200
      3.6656600              0.6144180              0.45092100
      1.4674600              0.4037980              0.23858600
SP   3   1.00
      2.1562300             -0.2529230             -0.01776530
      0.7489970              0.0328517              0.27405800
      0.2831450              1.0812500              0.78542100
SP   1   1.00
      0.0998317              1.0000000              1.00000000
D    1   1.00
      1.1000000              1.0000000
D    1   1.00
      0.2750000              1.0000000
F    1   1.00
      0.4500000              1.0000000
****
S     0
S    6   1.00
  21917.1000000              0.0018690
   3301.4900000              0.0142300
    754.1460000              0.0696960
    212.7110000              0.2384870
     67.9896000              0.4833070
     23.0515000              0.3380740
SP   6   1.00
    423.7350000             -0.0023767              0.0040610
    100.7100000             -0.0316930              0.0306810
     32.1599000             -0.1133170              0.1304520
     11.8079000              0.0560900              0.3272050
      4.6311000              0.5922550              0.4528510
      1.8702500              0.4550060              0.2560420
SP   3   1.00
      2.6158400             -0.2503740             -0.0145110
      0.9221670              0.0669570              0.3102630
      0.3412870              1.0545100              0.7544830
SP   1   1.00
      0.1171670              1.0000000              1.0000000
D    1   1.00
      1.3000000              1.0000000
D    1   1.00
      0.3250000              1.0000000
F    1   1.00
      0.5500000              1.0000000
****
Cl     0
S    6   1.00
  25180.1000000              0.0018330
   3780.3500000              0.0140340
    860.4740000              0.0690970
    242.1450000              0.2374520
     77.3349000              0.4830340
     26.2470000              0.3398560
SP   6   1.00
    491.7650000             -0.0022974              0.0039894
    116.9840000             -0.0307140              0.0303180
     37.4153000             -0.1125280              0.1298800
     13.7834000              0.0450160              0.3279510
      5.4521500              0.5893530              0.4535270
      2.2258800              0.4652060              0.2521540
SP   3   1.00
      3.1864900             -0.2518300             -0.0142990
      1.1442700              0.0615890              0.3235720
      0.4203770              1.0601800              0.7435070
SP   1   1.00
      0.1426570              1.0000000              1.0000000
D    1   1.00
      1.5000000              1.0000000
D    1   1.00
      0.3750000              1.0000000
F    1   1.00
      0.7000000              1.0000000
****
}

set {
reference uhf
freeze_core true
e_convergence 10
d_convergence 10
dft_spherical_points 1202
dft_radial_points 99
}

e = energy('b3lyp')

print_out('Grab this energy {0}'.format(e))
--------------------------------------------------------------------------

    Molecular point group: c1

    Geometry (in Bohr), charge = 0, multiplicity = 2:

       Center              X                  Y                   Z               Mass
    ------------   -----------------  -----------------  -----------------  -----------------
         C           -0.323376137912    -0.000002530121     0.001961325047    12.000000000000
         C            0.061863719188    -1.402291468521    -2.428046029053    12.000000000000
         C            0.061055029188     2.802417627679     0.000784163047    12.000000000000
         C            0.060486677188    -1.400122187421     2.425857218547    12.000000000000
         H            2.085949119388    -1.642477066621    -2.848442041253     1.007825032230
         H           -0.764884142112    -0.392683785621    -4.024351857153     1.007825032230
         H           -0.760702823512    -3.292714757721    -2.353359968353     1.007825032230
         H            2.083582365888     3.288460841779    -0.003814618053     1.007825032230
         H           -0.759823745612     3.682945166279     1.676574986147     1.007825032230
         H           -0.768527540712     3.677163295579    -1.670834051553     1.007825032230
         H            2.081499595088    -1.646073280321     2.847062025347     1.007825032230
         H           -0.767495565512    -3.286248307421     2.347060869447     1.007825032230
         H           -0.762989970512    -0.388389271021     4.023476390747     1.007825032230

  Charge       = 0
  Multiplicity = 2
  Basis Set: ANONYMOUS4603B024
    Blend: 6-31G_2DFP_
  Basis Set: (ANONYMOUS4603B024 AUX)
    Blend: DEF2-UNIVERSAL-JKFIT

    Orbital Energies [Eh]
    ---------------------

    Alpha Occupied:

       1A    -10.180274     2A    -10.166668     3A    -10.166479
       4A    -10.166289     5A     -0.797728     6A     -0.686690
       7A     -0.686404     8A     -0.531087     9A     -0.441225
      10A     -0.434883    11A     -0.434739    12A     -0.382903
      13A     -0.382813    14A     -0.363926    15A     -0.338153
      16A     -0.337855    17A     -0.168899

    Alpha Virtual:

      18A      0.076404    19A      0.134459    20A      0.134584
      21A      0.143026    22A      0.143049    23A      0.155177
      24A      0.179281    25A      0.179287    26A      0.203437
      27A      0.215257    28A      0.275673    29A      0.276345
      30A      0.399161    31A      0.399175    32A      0.403562
      33A      0.424337    34A      0.424407    35A      0.456726
      36A      0.495563    37A      0.495665    38A      0.512432
      39A      0.514111    40A      0.578961    41A      0.579340
      42A      0.592009    43A      0.592464    44A      0.603227
      45A      0.625742    46A      0.632474    47A      0.636727
      48A      0.636902    49A      0.663544    50A      0.663955
      51A      0.684385    52A      0.684427    53A      0.735304
      54A      0.826194    55A      0.826256    56A      0.854431
      57A      0.915608    58A      0.915872    59A      0.944750
      60A      0.945405    61A      0.961908    62A      0.961990
      63A      1.003554    64A      1.128471    65A      1.128568
      66A      1.143080    67A      1.163424    68A      1.163653
      69A      1.223769    70A      1.274839    71A      1.275209
      72A      1.278906    73A      1.324942    74A      1.325187
      75A      1.356854    76A      1.366252    77A      1.366845
      78A      1.393026    79A      1.404755    80A      1.405402
      81A      1.417775    82A      1.418304    83A      1.428669
      84A      1.492389    85A      1.500434    86A      1.543187
      87A      1.543448    88A      1.574426    89A      1.574857
      90A      1.671989    91A      1.740581    92A      1.741120
      93A      1.769846    94A      1.833476    95A      1.834302
      96A      1.973356    97A      2.019285    98A      2.020229
      99A      2.020347   100A      2.052762   101A      2.054697
     102A      2.739409   103A      2.739514   104A      2.791142
     105A      2.811935   106A      2.890063   107A      2.890899
     108A      2.895082   109A      2.929715   110A      2.930061
     111A      2.959621   112A      2.964780   113A      2.965299
     114A      3.034922   115A      3.071944   116A      3.072535
     117A      3.085279   118A      3.168064   119A      3.168167
     120A      3.180911   121A      3.285237   122A      3.285323
     123A      3.326212   124A      3.327102   125A      3.374916
     126A      3.488939   127A      3.489390   128A      3.513715
     129A      3.524704   130A      3.567739   131A      3.569422
     132A      3.573482   133A      3.666844   134A      3.667288
     135A      3.681480   136A      3.694614   137A      3.695346
     138A      3.775977   139A      3.778674   140A      3.789727
     141A      3.912662   142A      3.913673   143A      4.036784
     144A      4.112810   145A      4.114865   146A      4.150874
     147A      4.152013   148A      4.176233   149A      4.203790
     150A      4.204281   151A      4.205040   152A      4.214576
     153A      4.317709   154A      4.318725   155A      4.361398
     156A      4.426526   157A      4.427532   158A      4.445452
     159A      4.518499   160A      4.520025   161A      4.579071
     162A      4.580405   163A      4.618202   164A      4.711486
     165A      4.775769   166A      4.777007   167A      4.839233
     168A      4.963663   169A      5.003442   170A      5.004694
     171A      5.233319   172A      5.251992   173A      5.252227
     174A      5.359158   175A      5.361058   176A      5.482595

    Beta Occupied:

       1A    -10.167423     2A    -10.167239     3A    -10.167056
       4A    -10.166430     5A     -0.781081     6A     -0.684479
       7A     -0.684217     8A     -0.512000     9A     -0.431269
      10A     -0.431111    11A     -0.421958    12A     -0.376985
      13A     -0.376919    14A     -0.362913    15A     -0.333267
      16A     -0.332968

    Beta Virtual:

      17A     -0.025509    18A      0.077409    19A      0.135352
      20A      0.135486    21A      0.144858    22A      0.144903
      23A      0.163573    24A      0.182941    25A      0.182951
      26A      0.215484    27A      0.218838    28A      0.282041
      29A      0.282691    30A      0.400335    31A      0.400338
      32A      0.420015    33A      0.427137    34A      0.427233
      35A      0.468616    36A      0.497830    37A      0.497917
      38A      0.514161    39A      0.556514    40A      0.584517
      41A      0.584919    42A      0.598229    43A      0.598644
      44A      0.610637    45A      0.629107    46A      0.632626
      47A      0.639970    48A      0.640186    49A      0.667122
      50A      0.667513    51A      0.686997    52A      0.687015
      53A      0.757852    54A      0.831388    55A      0.831395
      56A      0.855761    57A      0.923561    58A      0.923833
      59A      0.946586    60A      0.954356    61A      0.967177
      62A      0.967317    63A      1.008805    64A      1.132434
      65A      1.132637    66A      1.156444    67A      1.168591
      68A      1.168694    69A      1.232725    70A      1.280417
      71A      1.280798    72A      1.284652    73A      1.329971
      74A      1.330190    75A      1.366294    76A      1.371532
      77A      1.372048    78A      1.394078    79A      1.408190
      80A      1.408890    81A      1.422833    82A      1.423345
      83A      1.428929    84A      1.493443    85A      1.510879
      86A      1.547495    87A      1.547695    88A      1.582448
      89A      1.582793    90A      1.676912    91A      1.746336
      92A      1.746902    93A      1.780568    94A      1.837295
      95A      1.838134    96A      1.974212    97A      2.026546
      98A      2.026697    99A      2.040737   100A      2.059511
     101A      2.061378   102A      2.747731   103A      2.747890
     104A      2.812351   105A      2.816302   106A      2.902878
     107A      2.903602   108A      2.924755   109A      2.932154
     110A      2.932500   111A      2.960688   112A      2.969383
     113A      2.969869   114A      3.042777   115A      3.081956
     116A      3.082464   117A      3.087100   118A      3.183673
     119A      3.183925   120A      3.188685   121A      3.289978
     122A      3.290071   123A      3.330031   124A      3.330906
     125A      3.382759   126A      3.491694   127A      3.492187
     128A      3.512089   129A      3.527766   130A      3.573324
     131A      3.581134   132A      3.582749   133A      3.672033
     134A      3.672190   135A      3.694819   136A      3.726244
     137A      3.726640   138A      3.780541   139A      3.783154
     140A      3.818276   141A      3.922510   142A      3.923433
     143A      4.047796   144A      4.119704   145A      4.121754
     146A      4.158120   147A      4.159120   148A      4.190146
     149A      4.209950   150A      4.210857   151A      4.212066
     152A      4.219024   153A      4.325035   154A      4.326115
     155A      4.364751   156A      4.434732   157A      4.435695
     158A      4.448322   159A      4.526289   160A      4.527792
     161A      4.589634   162A      4.590976   163A      4.625392
     164A      4.721826   165A      4.782760   166A      4.783917
     167A      4.842155   168A      4.968431   169A      5.007443
     170A      5.008732   171A      5.239010   172A      5.253758
     173A      5.254017   174A      5.365590   175A      5.367533
     176A      5.484905

    Final Occupation by Irrep:
              A
    DOCC [    16 ]
    SOCC [     1 ]

  @DF-UKS Final Energy:  -157.81301824082666

   => Energetics <=

    Nuclear Repulsion Energy =            125.4320648042149458
    One-Electron Energy =                -458.8198527843269403
    Two-Electron Energy =                 195.8859438493833522
    DFT Exchange-Correlation Energy =     -20.3111741100980616
    Empirical Dispersion Energy =           0.0000000000000000
    VV10 Nonlocal Energy =                  0.0000000000000000
    Total Energy =                       -157.8130182408266649

  UHF NO Occupations:
  HONO-2 :   15  A 1.9996034
  HONO-1 :   16  A 1.9989797
  HONO-0 :   17  A 1.0000000
  LUNO+0 :   18  A 0.0010203
  LUNO+1 :   19  A 0.0003966
  LUNO+2 :   20  A 0.0001985
  LUNO+3 :   21  A 0.0001973

Computation Completed

Properties will be evaluated at   0.000000,   0.000000,   0.000000 [a0]

Properties computed using the SCF density matrix

  Nuclear Dipole Moment: [e a0]
     X:     0.8268      Y:    -0.0000      Z:    -0.0033

  Electronic Dipole Moment: [e a0]
     X:    -0.7482      Y:     0.0000      Z:     0.0033

  Dipole Moment: [e a0]
     X:     0.0785      Y:     0.0000      Z:    -0.0000     Total:     0.0785

  Dipole Moment: [D]
     X:     0.1996      Y:     0.0000      Z:    -0.0001     Total:     0.1996

*** tstop() called on n036 at Fri Nov  5 15:00:30 2021
Module time:
	user time   =     633.18 seconds =      10.55 minutes
	system time =      12.11 seconds =       0.20 minutes
	total time  =        163 seconds =       2.72 minutes
Total time:
	user time   =     633.18 seconds =      10.55 minutes
	system time =      12.11 seconds =       0.20 minutes
	total time  =        163 seconds =       2.72 minutes
Grab this energy -157.81301824082666
    Psi4 stopped on: Friday, 05 November 2021 03:00PM
    Psi4 wall time for execution: 0:02:42.22

*** Psi4 exiting successfully. Buy a developer a beer!
