                               Psi4 1.4a2.dev629

  ==> Input File <==

--------------------------------------------------------------------------
import os
memory 14 GB

molecule {
 C   -0.3233341212    0.0000048913   -0.0052558858
 C    0.0588432885   -1.4073271709   -2.4305672356
 C    0.0610199485    2.8017407047    0.0069966320
 C    0.0634391193   -1.3944067398    2.4221823055
 H    2.0864391557   -1.6527733632   -2.8515722582
 H   -0.7643202646   -0.3972519355   -4.0325469919
 H   -0.7673754307   -3.2978567704   -2.3491749734
 H    2.0867967234    3.2880766020    0.0109053834
 H   -0.7685406660    3.6726855999    1.6857579620
 H   -0.7627548256    3.6877773770   -1.6672044373
 H    2.0874366732   -1.6354032841    2.8432971983
 H   -0.7637629658   -3.2861124079    2.3487910887
 H   -0.7664945113   -0.3791778166    4.0183912122
units bohr
0 2
}

basis {

assign 6-31g_2dfp_

[ 6-31g_2dfp_ ]

spherical

!----------------------------------------------------------------------
! Basis Set Exchange
! Version v0.8.13
! https://www.basissetexchange.org
!----------------------------------------------------------------------
!   Basis set: 6-31G(2df,p)
! Description: 6-31G(2df,p)
!        Role: orbital
!     Version: 0  (Data from the original Basis Set Exchange)
!----------------------------------------------------------------------

****
H     0
S    3   1.00
     18.7311370              0.03349460
      2.8253937              0.23472695
      0.6401217              0.81375733
S    1   1.00
      0.1612778              1.00000000
P    1   1.00
      1.5000000              1.0000000
P    1   1.00
      0.3750000              1.0000000
****
B     0
S    6   1.00
   2068.8823000              0.0018663
    310.6495700              0.0142515
     70.6830330              0.0695516
     19.8610800              0.2325729
      6.2993048              0.4670787
      2.1270270              0.3634314
SP   3   1.00
      4.7279710             -0.1303938              0.0745976
      1.1903377             -0.1307889              0.3078467
      0.3594117              1.1309444              0.7434568
SP   1   1.00
      0.1267512              1.0000000              1.0000000
D    1   1.00
      0.8020000              1.0000000
D    1   1.00
      0.2005000              1.0000000
F    1   1.00
      0.5000000              1.0000000
****
C     0
S    6   1.00
   3047.5249000              0.0018347
    457.3695100              0.0140373
    103.9486900              0.0688426
     29.2101550              0.2321844
      9.2866630              0.4679413
      3.1639270              0.3623120
SP   3   1.00
      7.8682724             -0.1193324              0.0689991
      1.8812885             -0.1608542              0.3164240
      0.5442493              1.1434564              0.7443083
SP   1   1.00
      0.1687144              1.0000000              1.0000000
D    1   1.00
      1.2520000              1.0000000
D    1   1.00
      0.3130000              1.0000000
F    1   1.00
      0.8000000              1.0000000
****
N     0
S    6   1.00
   4173.5110000              0.0018348
    627.4579000              0.0139950
    142.9021000              0.0685870
     40.2343300              0.2322410
     12.8202100              0.4690700
      4.3904370              0.3604550
SP   3   1.00
     11.6263580             -0.1149610              0.0675800
      2.7162800             -0.1691180              0.3239070
      0.7722180              1.1458520              0.7408950
SP   1   1.00
      0.2120313              1.0000000              1.0000000
D    1   1.00
      1.8260000              1.0000000
D    1   1.00
      0.4565000              1.0000000
F    1   1.00
      1.0000000              1.0000000
****
O     0
S    6   1.00
   5484.6717000              0.0018311
    825.2349500              0.0139501
    188.0469600              0.0684451
     52.9645000              0.2327143
     16.8975700              0.4701930
      5.7996353              0.3585209
SP   3   1.00
     15.5396160             -0.1107775              0.0708743
      3.5999336             -0.1480263              0.3397528
      1.0137618              1.1307670              0.7271586
SP   1   1.00
      0.2700058              1.0000000              1.0000000
D    1   1.00
      2.5840000              1.0000000
D    1   1.00
      0.6460000              1.0000000
F    1   1.00
      1.4000000              1.0000000
****
F     0
S    6   1.00
   7001.7130900              0.0018196169
   1051.3660900              0.0139160796
    239.2856900              0.0684053245
     67.3974453              0.233185760
     21.5199573              0.471267439
      7.40310130             0.356618546
SP   3   1.00
     20.8479528             -0.108506975            0.0716287243
      4.80830834            -0.146451658            0.3459121030
      1.34406986             1.128688580            0.7224699570
SP   1   1.00
      0.358151393            1.0000000              1.0000000
D    1   1.00
      3.5000000              1.0000000
D    1   1.00
      0.8750000              1.0000000
F    1   1.00
      1.8500000              1.0000000
****
Al     0
S    6   1.00
  13983.1000000              0.00194267
   2098.7500000              0.0148599
    477.7050000              0.0728494
    134.3600000              0.2468300
     42.8709000              0.4872580
     14.5189000              0.3234960
SP   6   1.00
    239.6680000             -0.00292619             0.00460285
     57.4419000             -0.0374080              0.0331990
     18.2859000             -0.1144870              0.1362820
      6.5991400              0.1156350              0.3304760
      2.4904900              0.6125950              0.4491460
      0.9445400              0.3937990              0.2657040
SP   3   1.00
      1.2779000             -0.2276060             -0.0175130
      0.3975900              0.00144583             0.2445330
      0.1600950              1.0927900              0.8049340
SP   1   1.00
      0.0556577              1.0000000              1.0000000
D    1   1.00
      0.6500000              1.0000000
D    1   1.00
      0.1625000              1.0000000
F    1   1.00
      0.2500000              1.0000000
****
Si     0
S    6   1.00
  16115.9000000              0.00195948
   2425.5800000              0.01492880
    553.8670000              0.07284780
    156.3400000              0.24613000
     50.0683000              0.48591400
     17.0178000              0.32500200
SP   6   1.00
    292.7180000             -0.00278094             0.00443826
     69.8731000             -0.03571460             0.03266790
     22.3363000             -0.11498500             0.13472100
      8.1503900              0.09356340             0.32867800
      3.1345800              0.60301700             0.44964000
      1.2254300              0.41895900             0.26137200
SP   3   1.00
      1.7273800             -0.24463000            -0.01779510
      0.5729220              0.00431572             0.25353900
      0.2221920              1.09818000             0.80066900
SP   1   1.00
      0.0778369              1.00000000             1.00000000
D    1   1.00
      0.9000000              1.0000000
D    1   1.00
      0.2250000              1.0000000
F    1   1.00
      0.3200000              1.0000000
****
P     0
S    6   1.00
  19413.3000000              0.0018516
   2909.4200000              0.0142062
    661.3640000              0.0699995
    185.7590000              0.2400790
     59.1943000              0.4847620
     20.0310000              0.3352000
SP   6   1.00
    339.4780000             -0.00278217             0.00456462
     81.0101000             -0.0360499              0.03369360
     25.8780000             -0.1166310              0.13975500
      9.4522100              0.0968328              0.33936200
      3.6656600              0.6144180              0.45092100
      1.4674600              0.4037980              0.23858600
SP   3   1.00
      2.1562300             -0.2529230             -0.01776530
      0.7489970              0.0328517              0.27405800
      0.2831450              1.0812500              0.78542100
SP   1   1.00
      0.0998317              1.0000000              1.00000000
D    1   1.00
      1.1000000              1.0000000
D    1   1.00
      0.2750000              1.0000000
F    1   1.00
      0.4500000              1.0000000
****
S     0
S    6   1.00
  21917.1000000              0.0018690
   3301.4900000              0.0142300
    754.1460000              0.0696960
    212.7110000              0.2384870
     67.9896000              0.4833070
     23.0515000              0.3380740
SP   6   1.00
    423.7350000             -0.0023767              0.0040610
    100.7100000             -0.0316930              0.0306810
     32.1599000             -0.1133170              0.1304520
     11.8079000              0.0560900              0.3272050
      4.6311000              0.5922550              0.4528510
      1.8702500              0.4550060              0.2560420
SP   3   1.00
      2.6158400             -0.2503740             -0.0145110
      0.9221670              0.0669570              0.3102630
      0.3412870              1.0545100              0.7544830
SP   1   1.00
      0.1171670              1.0000000              1.0000000
D    1   1.00
      1.3000000              1.0000000
D    1   1.00
      0.3250000              1.0000000
F    1   1.00
      0.5500000              1.0000000
****
Cl     0
S    6   1.00
  25180.1000000              0.0018330
   3780.3500000              0.0140340
    860.4740000              0.0690970
    242.1450000              0.2374520
     77.3349000              0.4830340
     26.2470000              0.3398560
SP   6   1.00
    491.7650000             -0.0022974              0.0039894
    116.9840000             -0.0307140              0.0303180
     37.4153000             -0.1125280              0.1298800
     13.7834000              0.0450160              0.3279510
      5.4521500              0.5893530              0.4535270
      2.2258800              0.4652060              0.2521540
SP   3   1.00
      3.1864900             -0.2518300             -0.0142990
      1.1442700              0.0615890              0.3235720
      0.4203770              1.0601800              0.7435070
SP   1   1.00
      0.1426570              1.0000000              1.0000000
D    1   1.00
      1.5000000              1.0000000
D    1   1.00
      0.3750000              1.0000000
F    1   1.00
      0.7000000              1.0000000
****
}

set {
reference uhf
freeze_core true
e_convergence 10
d_convergence 10
dft_spherical_points 1202
dft_radial_points 99
}

e = energy('b3lyp')

print_out('Grab this energy {0}'.format(e))
--------------------------------------------------------------------------

    Molecular point group: c1

    Geometry (in Bohr), charge = 0, multiplicity = 2:

       Center              X                  Y                   Z               Mass
    ------------   -----------------  -----------------  -----------------  -----------------
         C           -0.323335704422     0.000003069987    -0.003976168124    12.000000000000
         C            0.058841705278    -1.407328992213    -2.429287517924    12.000000000000
         C            0.061018365278     2.801738883387     0.008276349676    12.000000000000
         C            0.063437536078    -1.394408561113     2.423462023176    12.000000000000
         H            2.086437572478    -1.652775184513    -2.850292540524     1.007825032230
         H           -0.764321847822    -0.397253756813    -4.031267274224     1.007825032230
         H           -0.767377013922    -3.297858591713    -2.347895255724     1.007825032230
         H            2.086795140178     3.288074780687     0.012185101076     1.007825032230
         H           -0.768542249222     3.672683778587     1.687037679676     1.007825032230
         H           -0.762756408822     3.687775555687    -1.665924719624     1.007825032230
         H            2.087435089978    -1.635405105413     2.844576915976     1.007825032230
         H           -0.763764549022    -3.286114229213     2.350070806376     1.007825032230
         H           -0.766496094522    -0.379179637913     4.019670929876     1.007825032230

  Charge       = 0
  Multiplicity = 2
  Basis Set: ANONYMOUS4C9508DB
    Blend: 6-31G_2DFP_
  Basis Set: (ANONYMOUS4C9508DB AUX)
    Blend: DEF2-UNIVERSAL-JKFIT

    Orbital Energies [Eh]
    ---------------------

    Alpha Occupied:

       1A    -10.180342     2A    -10.167315     3A    -10.167016
       4A    -10.166715     5A     -0.797769     6A     -0.686439
       7A     -0.685932     8A     -0.530776     9A     -0.441131
      10A     -0.434833    11A     -0.434505    12A     -0.382603
      13A     -0.382592    14A     -0.363615    15A     -0.338353
      16A     -0.337637    17A     -0.168961

    Alpha Virtual:

      18A      0.076072    19A      0.133883    20A      0.134429
      21A      0.142427    22A      0.142828    23A      0.154879
      24A      0.178441    25A      0.179116    26A      0.203546
      27A      0.214806    28A      0.275870    29A      0.276099
      30A      0.399126    31A      0.399233    32A      0.403452
      33A      0.424013    34A      0.424186    35A      0.456595
      36A      0.495012    37A      0.495756    38A      0.512174
      39A      0.513987    40A      0.578467    41A      0.579139
      42A      0.591498    43A      0.591783    44A      0.602573
      45A      0.624771    46A      0.631773    47A      0.636132
      48A      0.636359    49A      0.663028    50A      0.663801
      51A      0.683760    52A      0.683948    53A      0.734994
      54A      0.824593    55A      0.826208    56A      0.853916
      57A      0.914764    58A      0.915291    59A      0.944047
      60A      0.944515    61A      0.961218    62A      0.961584
      63A      1.003462    64A      1.126859    65A      1.129393
      66A      1.142217    67A      1.162676    68A      1.163843
      69A      1.223334    70A      1.273828    71A      1.275148
      72A      1.279378    73A      1.324182    74A      1.324519
      75A      1.355995    76A      1.365611    77A      1.366453
      78A      1.392403    79A      1.403180    80A      1.405025
      81A      1.416335    82A      1.417913    83A      1.427935
      84A      1.491434    85A      1.499060    86A      1.542444
      87A      1.543244    88A      1.572769    89A      1.576202
      90A      1.669817    91A      1.737925    92A      1.740849
      93A      1.768393    94A      1.831087    95A      1.831716
      96A      1.971719    97A      2.016981    98A      2.018275
      99A      2.021079   100A      2.049776   101A      2.055622
     102A      2.738178   103A      2.738787   104A      2.790925
     105A      2.811443   106A      2.889583   107A      2.890326
     108A      2.894938   109A      2.929351   110A      2.929640
     111A      2.958985   112A      2.963385   113A      2.965392
     114A      3.034006   115A      3.070412   116A      3.072162
     117A      3.084350   118A      3.167903   119A      3.169694
     120A      3.180563   121A      3.284638   122A      3.285986
     123A      3.326066   124A      3.328275   125A      3.375663
     126A      3.489944   127A      3.490292   128A      3.514054
     129A      3.525292   130A      3.567069   131A      3.569528
     132A      3.575409   133A      3.665987   134A      3.666811
     135A      3.679663   136A      3.693634   137A      3.694560
     138A      3.775978   139A      3.777528   140A      3.789320
     141A      3.910884   142A      3.913566   143A      4.034477
     144A      4.110108   145A      4.112664   146A      4.146507
     147A      4.149697   148A      4.173226   149A      4.201210
     150A      4.202668   151A      4.204901   152A      4.210932
     153A      4.315481   154A      4.316378   155A      4.359053
     156A      4.424285   157A      4.424440   158A      4.443616
     159A      4.514940   160A      4.518710   161A      4.577415
     162A      4.579141   163A      4.617539   164A      4.709463
     165A      4.772781   166A      4.776416   167A      4.836926
     168A      4.962858   169A      5.001517   170A      5.004396
     171A      5.228019   172A      5.246690   173A      5.246966
     174A      5.355063   175A      5.355937   176A      5.479325

    Beta Occupied:

       1A    -10.168073     2A    -10.167775     3A    -10.167478
       4A    -10.166518     5A     -0.781094     6A     -0.684246
       7A     -0.683731     8A     -0.511748     9A     -0.431211
      10A     -0.430877    11A     -0.421822    12A     -0.376687
      13A     -0.376678    14A     -0.362598    15A     -0.333482
      16A     -0.332754

    Beta Virtual:

      17A     -0.025743    18A      0.077081    19A      0.134770
      20A      0.135321    21A      0.144308    22A      0.144689
      23A      0.163338    24A      0.182101    25A      0.182799
      26A      0.215036    27A      0.218928    28A      0.282204
      29A      0.282462    30A      0.400349    31A      0.400435
      32A      0.419809    33A      0.426811    34A      0.427010
      35A      0.468506    36A      0.497267    37A      0.498026
      38A      0.513909    39A      0.556328    40A      0.584052
      41A      0.584656    42A      0.597660    43A      0.597980
      44A      0.609991    45A      0.628150    46A      0.631929
      47A      0.639403    48A      0.639662    49A      0.666580
      50A      0.667374    51A      0.686347    52A      0.686634
      53A      0.757516    54A      0.829748    55A      0.831388
      56A      0.855270    57A      0.922723    58A      0.923273
      59A      0.945906    60A      0.953434    61A      0.966476
      62A      0.966929    63A      1.008701    64A      1.130859
      65A      1.133454    66A      1.155588    67A      1.167765
      68A      1.168902    69A      1.232303    70A      1.279419
      71A      1.280757    72A      1.285128    73A      1.329177
      74A      1.329504    75A      1.365412    76A      1.370748
      77A      1.371793    78A      1.393467    79A      1.406667
      80A      1.408477    81A      1.421394    82A      1.422941
      83A      1.428212    84A      1.492486    85A      1.509504
      86A      1.546819    87A      1.547683    88A      1.580734
      89A      1.583980    90A      1.674663    91A      1.743701
      92A      1.746603    93A      1.779167    94A      1.834925
      95A      1.835589    96A      1.972582    97A      2.023305
      98A      2.027557    99A      2.039640   100A      2.056612
     101A      2.062223   102A      2.746474   103A      2.747164
     104A      2.811855   105A      2.816059   106A      2.902313
     107A      2.902968   108A      2.924647   109A      2.931923
     110A      2.932035   111A      2.960054   112A      2.967961
     113A      2.969897   114A      3.041943   115A      3.080183
     116A      3.082148   117A      3.086238   118A      3.183769
     119A      3.185279   120A      3.188277   121A      3.289498
     122A      3.290731   123A      3.329849   124A      3.332102
     125A      3.383479   126A      3.492674   127A      3.493012
     128A      3.512432   129A      3.528345   130A      3.574726
     131A      3.580741   132A      3.583075   133A      3.670765
     134A      3.671518   135A      3.692957   136A      3.725474
     137A      3.725989   138A      3.780519   139A      3.782132
     140A      3.817770   141A      3.920717   142A      3.923367
     143A      4.045364   144A      4.116876   145A      4.119524
     146A      4.153818   147A      4.156808   148A      4.187288
     149A      4.207118   150A      4.210616   151A      4.210861
     152A      4.215432   153A      4.322876   154A      4.323859
     155A      4.362420   156A      4.432435   157A      4.432655
     158A      4.446564   159A      4.522830   160A      4.526394
     161A      4.587924   162A      4.589838   163A      4.624731
     164A      4.719808   165A      4.779717   166A      4.783387
     167A      4.839844   168A      4.967652   169A      5.005574
     170A      5.008416   171A      5.233730   172A      5.248472
     173A      5.248758   174A      5.361525   175A      5.362437
     176A      5.481646

    Final Occupation by Irrep:
              A
    DOCC [    16 ]
    SOCC [     1 ]

  @DF-UKS Final Energy:  -157.81306235231077

   => Energetics <=

    Nuclear Repulsion Energy =            125.3948704783643393
    One-Electron Energy =                -458.7493898164419761
    Two-Electron Energy =                 195.8486020663358147
    DFT Exchange-Correlation Energy =     -20.3071450805689331
    Empirical Dispersion Energy =           0.0000000000000000
    VV10 Nonlocal Energy =                  0.0000000000000000
    Total Energy =                       -157.8130623523107658

  UHF NO Occupations:
  HONO-2 :   15  A 1.9996009
  HONO-1 :   16  A 1.9989804
  HONO-0 :   17  A 1.0000000
  LUNO+0 :   18  A 0.0010196
  LUNO+1 :   19  A 0.0003991
  LUNO+2 :   20  A 0.0001980
  LUNO+3 :   21  A 0.0001971

Computation Completed

Properties will be evaluated at   0.000000,   0.000000,   0.000000 [a0]

Properties computed using the SCF density matrix

  Nuclear Dipole Moment: [e a0]
     X:     0.8272      Y:    -0.0000      Z:     0.0090

  Electronic Dipole Moment: [e a0]
     X:    -0.7493      Y:     0.0000      Z:    -0.0099

  Dipole Moment: [e a0]
     X:     0.0779      Y:    -0.0000      Z:    -0.0009     Total:     0.0779

  Dipole Moment: [D]
     X:     0.1980      Y:    -0.0000      Z:    -0.0022     Total:     0.1981

*** tstop() called on n091 at Fri Nov  5 12:25:52 2021
Module time:
	user time   =     494.36 seconds =       8.24 minutes
	system time =       4.54 seconds =       0.08 minutes
	total time  =        125 seconds =       2.08 minutes
Total time:
	user time   =     494.36 seconds =       8.24 minutes
	system time =       4.54 seconds =       0.08 minutes
	total time  =        125 seconds =       2.08 minutes
Grab this energy -157.81306235231077
    Psi4 stopped on: Friday, 05 November 2021 12:25PM
    Psi4 wall time for execution: 0:02:05.52

*** Psi4 exiting successfully. Buy a developer a beer!
