                               Psi4 1.4a2.dev629

  ==> Input File <==

--------------------------------------------------------------------------
import os
memory 14 GB

molecule {
 C   -0.3218906412   -0.0000031263    0.0024299045
 C    0.0609722080   -1.4020098176   -2.4270885898
 C    0.0601637520    2.8018522342    0.0012525955
 C    0.0595955747   -1.3998404375    2.4258364616
 H    2.0892106915   -1.6422705816   -2.8476207128
 H   -0.7661924956   -0.3903196144   -4.0254791097
 H   -0.7620072052   -3.2952802407   -2.3516503654
 H    2.0868433394    3.2880568060   -0.0033524218
 H   -0.7611259971    3.6831539824    1.6798835707
 H   -0.7698382817    3.6773561128   -1.6732135884
 H    2.0847605044   -1.6458778263    2.8471842282
 H   -0.7688047053   -3.2888121586    2.3462753739
 H   -0.7642946205   -0.3860296460    4.0255426534
units bohr
0 2
}

basis {

assign 6-31g_2dfp_

[ 6-31g_2dfp_ ]

spherical

!----------------------------------------------------------------------
! Basis Set Exchange
! Version v0.8.13
! https://www.basissetexchange.org
!----------------------------------------------------------------------
!   Basis set: 6-31G(2df,p)
! Description: 6-31G(2df,p)
!        Role: orbital
!     Version: 0  (Data from the original Basis Set Exchange)
!----------------------------------------------------------------------

****
H     0
S    3   1.00
     18.7311370              0.03349460
      2.8253937              0.23472695
      0.6401217              0.81375733
S    1   1.00
      0.1612778              1.00000000
P    1   1.00
      1.5000000              1.0000000
P    1   1.00
      0.3750000              1.0000000
****
B     0
S    6   1.00
   2068.8823000              0.0018663
    310.6495700              0.0142515
     70.6830330              0.0695516
     19.8610800              0.2325729
      6.2993048              0.4670787
      2.1270270              0.3634314
SP   3   1.00
      4.7279710             -0.1303938              0.0745976
      1.1903377             -0.1307889              0.3078467
      0.3594117              1.1309444              0.7434568
SP   1   1.00
      0.1267512              1.0000000              1.0000000
D    1   1.00
      0.8020000              1.0000000
D    1   1.00
      0.2005000              1.0000000
F    1   1.00
      0.5000000              1.0000000
****
C     0
S    6   1.00
   3047.5249000              0.0018347
    457.3695100              0.0140373
    103.9486900              0.0688426
     29.2101550              0.2321844
      9.2866630              0.4679413
      3.1639270              0.3623120
SP   3   1.00
      7.8682724             -0.1193324              0.0689991
      1.8812885             -0.1608542              0.3164240
      0.5442493              1.1434564              0.7443083
SP   1   1.00
      0.1687144              1.0000000              1.0000000
D    1   1.00
      1.2520000              1.0000000
D    1   1.00
      0.3130000              1.0000000
F    1   1.00
      0.8000000              1.0000000
****
N     0
S    6   1.00
   4173.5110000              0.0018348
    627.4579000              0.0139950
    142.9021000              0.0685870
     40.2343300              0.2322410
     12.8202100              0.4690700
      4.3904370              0.3604550
SP   3   1.00
     11.6263580             -0.1149610              0.0675800
      2.7162800             -0.1691180              0.3239070
      0.7722180              1.1458520              0.7408950
SP   1   1.00
      0.2120313              1.0000000              1.0000000
D    1   1.00
      1.8260000              1.0000000
D    1   1.00
      0.4565000              1.0000000
F    1   1.00
      1.0000000              1.0000000
****
O     0
S    6   1.00
   5484.6717000              0.0018311
    825.2349500              0.0139501
    188.0469600              0.0684451
     52.9645000              0.2327143
     16.8975700              0.4701930
      5.7996353              0.3585209
SP   3   1.00
     15.5396160             -0.1107775              0.0708743
      3.5999336             -0.1480263              0.3397528
      1.0137618              1.1307670              0.7271586
SP   1   1.00
      0.2700058              1.0000000              1.0000000
D    1   1.00
      2.5840000              1.0000000
D    1   1.00
      0.6460000              1.0000000
F    1   1.00
      1.4000000              1.0000000
****
F     0
S    6   1.00
   7001.7130900              0.0018196169
   1051.3660900              0.0139160796
    239.2856900              0.0684053245
     67.3974453              0.233185760
     21.5199573              0.471267439
      7.40310130             0.356618546
SP   3   1.00
     20.8479528             -0.108506975            0.0716287243
      4.80830834            -0.146451658            0.3459121030
      1.34406986             1.128688580            0.7224699570
SP   1   1.00
      0.358151393            1.0000000              1.0000000
D    1   1.00
      3.5000000              1.0000000
D    1   1.00
      0.8750000              1.0000000
F    1   1.00
      1.8500000              1.0000000
****
Al     0
S    6   1.00
  13983.1000000              0.00194267
   2098.7500000              0.0148599
    477.7050000              0.0728494
    134.3600000              0.2468300
     42.8709000              0.4872580
     14.5189000              0.3234960
SP   6   1.00
    239.6680000             -0.00292619             0.00460285
     57.4419000             -0.0374080              0.0331990
     18.2859000             -0.1144870              0.1362820
      6.5991400              0.1156350              0.3304760
      2.4904900              0.6125950              0.4491460
      0.9445400              0.3937990              0.2657040
SP   3   1.00
      1.2779000             -0.2276060             -0.0175130
      0.3975900              0.00144583             0.2445330
      0.1600950              1.0927900              0.8049340
SP   1   1.00
      0.0556577              1.0000000              1.0000000
D    1   1.00
      0.6500000              1.0000000
D    1   1.00
      0.1625000              1.0000000
F    1   1.00
      0.2500000              1.0000000
****
Si     0
S    6   1.00
  16115.9000000              0.00195948
   2425.5800000              0.01492880
    553.8670000              0.07284780
    156.3400000              0.24613000
     50.0683000              0.48591400
     17.0178000              0.32500200
SP   6   1.00
    292.7180000             -0.00278094             0.00443826
     69.8731000             -0.03571460             0.03266790
     22.3363000             -0.11498500             0.13472100
      8.1503900              0.09356340             0.32867800
      3.1345800              0.60301700             0.44964000
      1.2254300              0.41895900             0.26137200
SP   3   1.00
      1.7273800             -0.24463000            -0.01779510
      0.5729220              0.00431572             0.25353900
      0.2221920              1.09818000             0.80066900
SP   1   1.00
      0.0778369              1.00000000             1.00000000
D    1   1.00
      0.9000000              1.0000000
D    1   1.00
      0.2250000              1.0000000
F    1   1.00
      0.3200000              1.0000000
****
P     0
S    6   1.00
  19413.3000000              0.0018516
   2909.4200000              0.0142062
    661.3640000              0.0699995
    185.7590000              0.2400790
     59.1943000              0.4847620
     20.0310000              0.3352000
SP   6   1.00
    339.4780000             -0.00278217             0.00456462
     81.0101000             -0.0360499              0.03369360
     25.8780000             -0.1166310              0.13975500
      9.4522100              0.0968328              0.33936200
      3.6656600              0.6144180              0.45092100
      1.4674600              0.4037980              0.23858600
SP   3   1.00
      2.1562300             -0.2529230             -0.01776530
      0.7489970              0.0328517              0.27405800
      0.2831450              1.0812500              0.78542100
SP   1   1.00
      0.0998317              1.0000000              1.00000000
D    1   1.00
      1.1000000              1.0000000
D    1   1.00
      0.2750000              1.0000000
F    1   1.00
      0.4500000              1.0000000
****
S     0
S    6   1.00
  21917.1000000              0.0018690
   3301.4900000              0.0142300
    754.1460000              0.0696960
    212.7110000              0.2384870
     67.9896000              0.4833070
     23.0515000              0.3380740
SP   6   1.00
    423.7350000             -0.0023767              0.0040610
    100.7100000             -0.0316930              0.0306810
     32.1599000             -0.1133170              0.1304520
     11.8079000              0.0560900              0.3272050
      4.6311000              0.5922550              0.4528510
      1.8702500              0.4550060              0.2560420
SP   3   1.00
      2.6158400             -0.2503740             -0.0145110
      0.9221670              0.0669570              0.3102630
      0.3412870              1.0545100              0.7544830
SP   1   1.00
      0.1171670              1.0000000              1.0000000
D    1   1.00
      1.3000000              1.0000000
D    1   1.00
      0.3250000              1.0000000
F    1   1.00
      0.5500000              1.0000000
****
Cl     0
S    6   1.00
  25180.1000000              0.0018330
   3780.3500000              0.0140340
    860.4740000              0.0690970
    242.1450000              0.2374520
     77.3349000              0.4830340
     26.2470000              0.3398560
SP   6   1.00
    491.7650000             -0.0022974              0.0039894
    116.9840000             -0.0307140              0.0303180
     37.4153000             -0.1125280              0.1298800
     13.7834000              0.0450160              0.3279510
      5.4521500              0.5893530              0.4535270
      2.2258800              0.4652060              0.2521540
SP   3   1.00
      3.1864900             -0.2518300             -0.0142990
      1.1442700              0.0615890              0.3235720
      0.4203770              1.0601800              0.7435070
SP   1   1.00
      0.1426570              1.0000000              1.0000000
D    1   1.00
      1.5000000              1.0000000
D    1   1.00
      0.3750000              1.0000000
F    1   1.00
      0.7000000              1.0000000
****
}

set {
reference uhf
freeze_core true
e_convergence 10
d_convergence 10
dft_spherical_points 1202
dft_radial_points 99
}

e = energy('b3lyp')

print_out('Grab this energy {0}'.format(e))
--------------------------------------------------------------------------

    Molecular point group: c1

    Geometry (in Bohr), charge = 0, multiplicity = 2:

       Center              X                  Y                   Z               Mass
    ------------   -----------------  -----------------  -----------------  -----------------
         C           -0.321675090310    -0.000002475979     0.001961797388    12.000000000000
         C            0.061187758890    -1.402009167279    -2.427556696912    12.000000000000
         C            0.060379302890     2.801852884521     0.000784488388    12.000000000000
         C            0.059811125590    -1.399839787179     2.425368354488    12.000000000000
         H            2.089426242390    -1.642269931279    -2.848088819912     1.007825032230
         H           -0.765976944710    -0.390318964079    -4.025947216812     1.007825032230
         H           -0.761791654310    -3.295279590379    -2.352118472512     1.007825032230
         H            2.087058890290     3.288057456321    -0.003820528912     1.007825032230
         H           -0.760910446210     3.683154632721     1.679415463588     1.007825032230
         H           -0.769622730810     3.677356763121    -1.673681695512     1.007825032230
         H            2.084976055290    -1.645877175979     2.846716121088     1.007825032230
         H           -0.768589154410    -3.288811508279     2.345807266788     1.007825032230
         H           -0.764079069610    -0.386028995679     4.025074546288     1.007825032230

  Charge       = 0
  Multiplicity = 2
  Basis Set: ANONYMOUS5F31B7A0
    Blend: 6-31G_2DFP_
  Basis Set: (ANONYMOUS5F31B7A0 AUX)
    Blend: DEF2-UNIVERSAL-JKFIT

    Orbital Energies [Eh]
    ---------------------

    Alpha Occupied:

       1A    -10.180276     2A    -10.167212     3A    -10.167024
       4A    -10.166834     5A     -0.797782     6A     -0.686347
       7A     -0.686061     8A     -0.530770     9A     -0.441068
      10A     -0.434807    11A     -0.434663    12A     -0.382537
      13A     -0.382447    14A     -0.363736    15A     -0.338239
      16A     -0.337941    17A     -0.168777

    Alpha Virtual:

      18A      0.076069    19A      0.134097    20A      0.134223
      21A      0.142639    22A      0.142663    23A      0.154799
      24A      0.178705    25A      0.178712    26A      0.203521
      27A      0.214850    28A      0.275823    29A      0.276494
      30A      0.399236    31A      0.399251    32A      0.403436
      33A      0.424092    34A      0.424160    35A      0.456500
      36A      0.495364    37A      0.495465    38A      0.512115
      39A      0.514077    40A      0.578500    41A      0.578872
      42A      0.591380    43A      0.591838    44A      0.602354
      45A      0.624843    46A      0.631831    47A      0.636318
      48A      0.636498    49A      0.663050    50A      0.663457
      51A      0.683942    52A      0.683982    53A      0.735191
      54A      0.825433    55A      0.825492    56A      0.853915
      57A      0.914958    58A      0.915224    59A      0.944076
      60A      0.944565    61A      0.961235    62A      0.961318
      63A      1.003454    64A      1.127964    65A      1.128045
      66A      1.142193    67A      1.162731    68A      1.162973
      69A      1.223489    70A      1.274370    71A      1.274736
      72A      1.279120    73A      1.324486    74A      1.324729
      75A      1.355759    76A      1.366132    77A      1.366720
      78A      1.392440    79A      1.403683    80A      1.404328
      81A      1.416609    82A      1.417137    83A      1.427867
      84A      1.491676    85A      1.498689    86A      1.542646
      87A      1.542917    88A      1.574505    89A      1.574952
      90A      1.670098    91A      1.739393    92A      1.739925
      93A      1.768257    94A      1.831368    95A      1.832193
      96A      1.971991    97A      2.018608    98A      2.018745
      99A      2.019436   100A      2.051283   101A      2.053230
     102A      2.738624   103A      2.738730   104A      2.790730
     105A      2.811453   106A      2.889756   107A      2.890588
     108A      2.894694   109A      2.929308   110A      2.929648
     111A      2.959061   112A      2.964221   113A      2.964750
     114A      3.033654   115A      3.071834   116A      3.072420
     117A      3.084421   118A      3.168598   119A      3.168702
     120A      3.180648   121A      3.284468   122A      3.284563
     123A      3.326363   124A      3.327249   125A      3.375450
     126A      3.490154   127A      3.490627   128A      3.514184
     129A      3.524853   130A      3.567858   131A      3.569516
     132A      3.574527   133A      3.666726   134A      3.667153
     135A      3.679899   136A      3.693712   137A      3.694401
     138A      3.775737   139A      3.778400   140A      3.790428
     141A      3.911764   142A      3.912739   143A      4.034762
     144A      4.110581   145A      4.112636   146A      4.147597
     147A      4.148708   148A      4.173283   149A      4.202235
     150A      4.202929   151A      4.203438   152A      4.210817
     153A      4.315249   154A      4.316273   155A      4.358497
     156A      4.424110   157A      4.425108   158A      4.443696
     159A      4.515771   160A      4.517305   161A      4.577481
     162A      4.578813   163A      4.618023   164A      4.709124
     165A      4.774147   166A      4.775384   167A      4.838107
     168A      4.962750   169A      5.002185   170A      5.003434
     171A      5.228136   172A      5.246801   173A      5.247039
     174A      5.354832   175A      5.356741   176A      5.479716

    Beta Occupied:

       1A    -10.167971     2A    -10.167785     3A    -10.167599
       4A    -10.166458     5A     -0.781103     6A     -0.684140
       7A     -0.683877     8A     -0.511750     9A     -0.431195
      10A     -0.431036    11A     -0.421734    12A     -0.376600
      13A     -0.376534    14A     -0.362721    15A     -0.333359
      16A     -0.333060

    Beta Virtual:

      17A     -0.025641    18A      0.077083    19A      0.134993
      20A      0.135127    21A      0.144496    22A      0.144541
      23A      0.163268    24A      0.182374    25A      0.182384
      26A      0.215079    27A      0.218925    28A      0.282169
      29A      0.282819    30A      0.400416    31A      0.400419
      32A      0.419899    33A      0.426888    34A      0.426982
      35A      0.468395    36A      0.497627    37A      0.497714
      38A      0.513854    39A      0.556422    40A      0.584053
      41A      0.584448    42A      0.597573    43A      0.597991
      44A      0.609803    45A      0.628196    46A      0.631988
      47A      0.639578    48A      0.639800    49A      0.666622
      50A      0.667007    51A      0.686595    52A      0.686611
      53A      0.757693    54A      0.830625    55A      0.830629
      56A      0.855272    57A      0.922916    58A      0.923188
      59A      0.945916    60A      0.953499    61A      0.966545
      62A      0.966687    63A      1.008675    64A      1.131932
      65A      1.132121    66A      1.155597    67A      1.167871
      68A      1.167986    69A      1.232465    70A      1.279944
      71A      1.280321    72A      1.284870    73A      1.329480
      74A      1.329698    75A      1.365200    76A      1.371418
      77A      1.371928    78A      1.393504    79A      1.407122
      80A      1.407821    81A      1.421688    82A      1.422201
      83A      1.428133    84A      1.492726    85A      1.509126
      86A      1.547084    87A      1.547296    88A      1.582419
      89A      1.582781    90A      1.674930    91A      1.745142
      92A      1.745702    93A      1.779058    94A      1.835225
      95A      1.836064    96A      1.972851    97A      2.025071
      98A      2.025223    99A      2.040673   100A      2.058014
     101A      2.059894   102A      2.746934   103A      2.747093
     104A      2.811857   105A      2.815883   106A      2.902483
     107A      2.903203   108A      2.924344   109A      2.931812
     110A      2.932148   111A      2.960124   112A      2.968772
     113A      2.969269   114A      3.041630   115A      3.081746
     116A      3.082248   117A      3.086242   118A      3.184345
     119A      3.184603   120A      3.188335   121A      3.289302
     122A      3.289403   123A      3.330166   124A      3.331038
     125A      3.383259   126A      3.492845   127A      3.493361
     128A      3.512548   129A      3.527892   130A      3.574371
     131A      3.581189   132A      3.582784   133A      3.671635
     134A      3.671799   135A      3.693178   136A      3.725495
     137A      3.725865   138A      3.780277   139A      3.782853
     140A      3.818961   141A      3.921663   142A      3.922550
     143A      4.045621   144A      4.117413   145A      4.119464
     146A      4.154859   147A      4.155837   148A      4.187382
     149A      4.208230   150A      4.209160   151A      4.211041
     152A      4.215315   153A      4.322637   154A      4.323724
     155A      4.361859   156A      4.432386   157A      4.433342
     158A      4.446580   159A      4.523589   160A      4.525102
     161A      4.588044   162A      4.589383   163A      4.625228
     164A      4.719444   165A      4.781127   166A      4.782284
     167A      4.841013   168A      4.967548   169A      5.006220
     170A      5.007505   171A      5.233850   172A      5.248573
     173A      5.248835   174A      5.361284   175A      5.363234
     176A      5.482031

    Final Occupation by Irrep:
              A
    DOCC [    16 ]
    SOCC [     1 ]

  @DF-UKS Final Energy:  -157.81307655890419

   => Energetics <=

    Nuclear Repulsion Energy =            125.3970512895713512
    One-Electron Energy =                -458.7535998305112344
    Two-Electron Energy =                 195.8506842841362641
    DFT Exchange-Correlation Energy =     -20.3072123021005453
    Empirical Dispersion Energy =           0.0000000000000000
    VV10 Nonlocal Energy =                  0.0000000000000000
    Total Energy =                       -157.8130765589041857

  UHF NO Occupations:
  HONO-2 :   15  A 1.9995994
  HONO-1 :   16  A 1.9989790
  HONO-0 :   17  A 1.0000000
  LUNO+0 :   18  A 0.0010210
  LUNO+1 :   19  A 0.0004006
  LUNO+2 :   20  A 0.0001980
  LUNO+3 :   21  A 0.0001969

Computation Completed

Properties will be evaluated at   0.000000,   0.000000,   0.000000 [a0]

Properties computed using the SCF density matrix

  Nuclear Dipole Moment: [e a0]
     X:     0.8287      Y:    -0.0000      Z:    -0.0033

  Electronic Dipole Moment: [e a0]
     X:    -0.7516      Y:     0.0000      Z:     0.0033

  Dipole Moment: [e a0]
     X:     0.0771      Y:     0.0000      Z:    -0.0000     Total:     0.0771

  Dipole Moment: [D]
     X:     0.1961      Y:     0.0000      Z:    -0.0001     Total:     0.1961

*** tstop() called on n036 at Fri Nov  5 11:42:30 2021
Module time:
	user time   =     633.54 seconds =      10.56 minutes
	system time =      11.97 seconds =       0.20 minutes
	total time  =        163 seconds =       2.72 minutes
Total time:
	user time   =     633.54 seconds =      10.56 minutes
	system time =      11.97 seconds =       0.20 minutes
	total time  =        163 seconds =       2.72 minutes
Grab this energy -157.81307655890419
    Psi4 stopped on: Friday, 05 November 2021 11:42AM
    Psi4 wall time for execution: 0:02:42.27

*** Psi4 exiting successfully. Buy a developer a beer!
