                               Psi4 1.4a2.dev629

  ==> Input File <==

--------------------------------------------------------------------------
import os
memory 14 GB

molecule {
 C   -0.3223163353    0.0004920639    0.0000000000
 C    0.0621509123   -1.4005558593   -2.4258939377
 C    0.0621770955    2.8024633813    0.0000000000
 C    0.0621509123   -1.4005558593    2.4258939377
 H    2.0857165008   -1.6437839814   -2.8468494511
 H   -0.7656154204   -0.3847211949   -4.0275975524
 H   -0.7656215355   -3.2965032401   -2.3474735760
 H    2.0793060026    3.2881743185   -0.0000000000
 H   -0.7625177771    3.6799872370    1.6748083923
 H   -0.7625177771    3.6799872370   -1.6748083923
 H    2.0857165008   -1.6437839814    2.8468494511
 H   -0.7656215355   -3.2965032401    2.3474735760
 H   -0.7656154204   -0.3847211949    4.0275975524
units bohr
0 2
}

basis {

assign 6-31g_2dfp_

[ 6-31g_2dfp_ ]

spherical

!----------------------------------------------------------------------
! Basis Set Exchange
! Version v0.8.13
! https://www.basissetexchange.org
!----------------------------------------------------------------------
!   Basis set: 6-31G(2df,p)
! Description: 6-31G(2df,p)
!        Role: orbital
!     Version: 0  (Data from the original Basis Set Exchange)
!----------------------------------------------------------------------

****
H     0
S    3   1.00
     18.7311370              0.03349460
      2.8253937              0.23472695
      0.6401217              0.81375733
S    1   1.00
      0.1612778              1.00000000
P    1   1.00
      1.5000000              1.0000000
P    1   1.00
      0.3750000              1.0000000
****
B     0
S    6   1.00
   2068.8823000              0.0018663
    310.6495700              0.0142515
     70.6830330              0.0695516
     19.8610800              0.2325729
      6.2993048              0.4670787
      2.1270270              0.3634314
SP   3   1.00
      4.7279710             -0.1303938              0.0745976
      1.1903377             -0.1307889              0.3078467
      0.3594117              1.1309444              0.7434568
SP   1   1.00
      0.1267512              1.0000000              1.0000000
D    1   1.00
      0.8020000              1.0000000
D    1   1.00
      0.2005000              1.0000000
F    1   1.00
      0.5000000              1.0000000
****
C     0
S    6   1.00
   3047.5249000              0.0018347
    457.3695100              0.0140373
    103.9486900              0.0688426
     29.2101550              0.2321844
      9.2866630              0.4679413
      3.1639270              0.3623120
SP   3   1.00
      7.8682724             -0.1193324              0.0689991
      1.8812885             -0.1608542              0.3164240
      0.5442493              1.1434564              0.7443083
SP   1   1.00
      0.1687144              1.0000000              1.0000000
D    1   1.00
      1.2520000              1.0000000
D    1   1.00
      0.3130000              1.0000000
F    1   1.00
      0.8000000              1.0000000
****
N     0
S    6   1.00
   4173.5110000              0.0018348
    627.4579000              0.0139950
    142.9021000              0.0685870
     40.2343300              0.2322410
     12.8202100              0.4690700
      4.3904370              0.3604550
SP   3   1.00
     11.6263580             -0.1149610              0.0675800
      2.7162800             -0.1691180              0.3239070
      0.7722180              1.1458520              0.7408950
SP   1   1.00
      0.2120313              1.0000000              1.0000000
D    1   1.00
      1.8260000              1.0000000
D    1   1.00
      0.4565000              1.0000000
F    1   1.00
      1.0000000              1.0000000
****
O     0
S    6   1.00
   5484.6717000              0.0018311
    825.2349500              0.0139501
    188.0469600              0.0684451
     52.9645000              0.2327143
     16.8975700              0.4701930
      5.7996353              0.3585209
SP   3   1.00
     15.5396160             -0.1107775              0.0708743
      3.5999336             -0.1480263              0.3397528
      1.0137618              1.1307670              0.7271586
SP   1   1.00
      0.2700058              1.0000000              1.0000000
D    1   1.00
      2.5840000              1.0000000
D    1   1.00
      0.6460000              1.0000000
F    1   1.00
      1.4000000              1.0000000
****
F     0
S    6   1.00
   7001.7130900              0.0018196169
   1051.3660900              0.0139160796
    239.2856900              0.0684053245
     67.3974453              0.233185760
     21.5199573              0.471267439
      7.40310130             0.356618546
SP   3   1.00
     20.8479528             -0.108506975            0.0716287243
      4.80830834            -0.146451658            0.3459121030
      1.34406986             1.128688580            0.7224699570
SP   1   1.00
      0.358151393            1.0000000              1.0000000
D    1   1.00
      3.5000000              1.0000000
D    1   1.00
      0.8750000              1.0000000
F    1   1.00
      1.8500000              1.0000000
****
Al     0
S    6   1.00
  13983.1000000              0.00194267
   2098.7500000              0.0148599
    477.7050000              0.0728494
    134.3600000              0.2468300
     42.8709000              0.4872580
     14.5189000              0.3234960
SP   6   1.00
    239.6680000             -0.00292619             0.00460285
     57.4419000             -0.0374080              0.0331990
     18.2859000             -0.1144870              0.1362820
      6.5991400              0.1156350              0.3304760
      2.4904900              0.6125950              0.4491460
      0.9445400              0.3937990              0.2657040
SP   3   1.00
      1.2779000             -0.2276060             -0.0175130
      0.3975900              0.00144583             0.2445330
      0.1600950              1.0927900              0.8049340
SP   1   1.00
      0.0556577              1.0000000              1.0000000
D    1   1.00
      0.6500000              1.0000000
D    1   1.00
      0.1625000              1.0000000
F    1   1.00
      0.2500000              1.0000000
****
Si     0
S    6   1.00
  16115.9000000              0.00195948
   2425.5800000              0.01492880
    553.8670000              0.07284780
    156.3400000              0.24613000
     50.0683000              0.48591400
     17.0178000              0.32500200
SP   6   1.00
    292.7180000             -0.00278094             0.00443826
     69.8731000             -0.03571460             0.03266790
     22.3363000             -0.11498500             0.13472100
      8.1503900              0.09356340             0.32867800
      3.1345800              0.60301700             0.44964000
      1.2254300              0.41895900             0.26137200
SP   3   1.00
      1.7273800             -0.24463000            -0.01779510
      0.5729220              0.00431572             0.25353900
      0.2221920              1.09818000             0.80066900
SP   1   1.00
      0.0778369              1.00000000             1.00000000
D    1   1.00
      0.9000000              1.0000000
D    1   1.00
      0.2250000              1.0000000
F    1   1.00
      0.3200000              1.0000000
****
P     0
S    6   1.00
  19413.3000000              0.0018516
   2909.4200000              0.0142062
    661.3640000              0.0699995
    185.7590000              0.2400790
     59.1943000              0.4847620
     20.0310000              0.3352000
SP   6   1.00
    339.4780000             -0.00278217             0.00456462
     81.0101000             -0.0360499              0.03369360
     25.8780000             -0.1166310              0.13975500
      9.4522100              0.0968328              0.33936200
      3.6656600              0.6144180              0.45092100
      1.4674600              0.4037980              0.23858600
SP   3   1.00
      2.1562300             -0.2529230             -0.01776530
      0.7489970              0.0328517              0.27405800
      0.2831450              1.0812500              0.78542100
SP   1   1.00
      0.0998317              1.0000000              1.00000000
D    1   1.00
      1.1000000              1.0000000
D    1   1.00
      0.2750000              1.0000000
F    1   1.00
      0.4500000              1.0000000
****
S     0
S    6   1.00
  21917.1000000              0.0018690
   3301.4900000              0.0142300
    754.1460000              0.0696960
    212.7110000              0.2384870
     67.9896000              0.4833070
     23.0515000              0.3380740
SP   6   1.00
    423.7350000             -0.0023767              0.0040610
    100.7100000             -0.0316930              0.0306810
     32.1599000             -0.1133170              0.1304520
     11.8079000              0.0560900              0.3272050
      4.6311000              0.5922550              0.4528510
      1.8702500              0.4550060              0.2560420
SP   3   1.00
      2.6158400             -0.2503740             -0.0145110
      0.9221670              0.0669570              0.3102630
      0.3412870              1.0545100              0.7544830
SP   1   1.00
      0.1171670              1.0000000              1.0000000
D    1   1.00
      1.3000000              1.0000000
D    1   1.00
      0.3250000              1.0000000
F    1   1.00
      0.5500000              1.0000000
****
Cl     0
S    6   1.00
  25180.1000000              0.0018330
   3780.3500000              0.0140340
    860.4740000              0.0690970
    242.1450000              0.2374520
     77.3349000              0.4830340
     26.2470000              0.3398560
SP   6   1.00
    491.7650000             -0.0022974              0.0039894
    116.9840000             -0.0307140              0.0303180
     37.4153000             -0.1125280              0.1298800
     13.7834000              0.0450160              0.3279510
      5.4521500              0.5893530              0.4535270
      2.2258800              0.4652060              0.2521540
SP   3   1.00
      3.1864900             -0.2518300             -0.0142990
      1.1442700              0.0615890              0.3235720
      0.4203770              1.0601800              0.7435070
SP   1   1.00
      0.1426570              1.0000000              1.0000000
D    1   1.00
      1.5000000              1.0000000
D    1   1.00
      0.3750000              1.0000000
F    1   1.00
      0.7000000              1.0000000
****
}

set {
reference uhf
freeze_core true
e_convergence 10
d_convergence 10
dft_spherical_points 1202
dft_radial_points 99
}

e = energy('b3lyp')

print_out('Grab this energy {0}'.format(e))
--------------------------------------------------------------------------

    Molecular point group: cs

    Geometry (in Bohr), charge = 0, multiplicity = 2:

       Center              X                  Y                   Z               Mass
    ------------   -----------------  -----------------  -----------------  -----------------
         C           -0.323125780478     0.000137378241     0.000000000000    12.000000000000
         C            0.061341467122    -1.400910544959    -2.425893937700    12.000000000000
         C            0.061367650322     2.802108695641     0.000000000000    12.000000000000
         C            0.061341467122    -1.400910544959     2.425893937700    12.000000000000
         H            2.084907055622    -1.644138667059    -2.846849451100     1.007825032230
         H           -0.766424865578    -0.385075880559    -4.027597552400     1.007825032230
         H           -0.766430980678    -3.296857925759    -2.347473576000     1.007825032230
         H            2.078496557422     3.287819632841     0.000000000000     1.007825032230
         H           -0.763327222278     3.679632551341     1.674808392300     1.007825032230
         H           -0.763327222278     3.679632551341    -1.674808392300     1.007825032230
         H            2.084907055622    -1.644138667059     2.846849451100     1.007825032230
         H           -0.766430980678    -3.296857925759     2.347473576000     1.007825032230
         H           -0.766424865578    -0.385075880559     4.027597552400     1.007825032230

  Charge       = 0
  Multiplicity = 2
  Basis Set: ANONYMOUSAF68B968
    Blend: 6-31G_2DFP_
  Basis Set: (ANONYMOUSAF68B968 AUX)
    Blend: DEF2-UNIVERSAL-JKFIT

    Orbital Energies [Eh]
    ---------------------

    Alpha Occupied:

       1Ap   -10.180284     1App  -10.167362     2Ap   -10.167332
       3Ap   -10.166340     4Ap    -0.797805     5Ap    -0.686517
       2App   -0.685872     6Ap    -0.530786     7Ap    -0.441221
       3App   -0.434716     8Ap    -0.434541     9Ap    -0.382957
       4App   -0.382512     5App   -0.363434     6App   -0.337976
      10Ap    -0.337914    11Ap    -0.168925

    Alpha Virtual:

      12Ap     0.075985    13Ap     0.134124     7App    0.134155
      14Ap     0.142480     8App    0.142658    15Ap     0.155041
       9App    0.178632    16Ap     0.179285    17Ap     0.203589
      10App    0.214532    18Ap     0.275966    11App    0.276055
      12App    0.399271    19Ap     0.399424    20Ap     0.403428
      21Ap     0.423813    13App    0.424004    22Ap     0.456669
      14App    0.495142    23Ap     0.495280    15App    0.512280
      24Ap     0.514132    16App    0.578863    25Ap     0.579094
      17App    0.591602    26Ap     0.592186    27Ap     0.603343
      28Ap     0.624265    18App    0.631315    29Ap     0.635494
      19App    0.636332    20App    0.663719    30Ap     0.664102
      21App    0.683297    31Ap     0.683926    32Ap     0.734933
      33Ap     0.825039    22App    0.825829    23App    0.854196
      34Ap     0.915241    24App    0.915256    25App    0.943844
      35Ap     0.944468    36Ap     0.961157    26App    0.961638
      37Ap     1.003641    27App    1.127539    38Ap     1.128182
      39Ap     1.142941    40Ap     1.162907    28App    1.163094
      41Ap     1.222911    29App    1.274554    42Ap     1.274910
      43Ap     1.279513    44Ap     1.324210    30App    1.324913
      45Ap     1.355441    31App    1.365851    46Ap     1.366383
      32App    1.392502    33App    1.404685    47Ap     1.405446
      34App    1.415823    48Ap     1.416457    35App    1.428128
      36App    1.491511    49Ap     1.500037    50Ap     1.543155
      37App    1.543258    51Ap     1.573793    38App    1.574361
      52Ap     1.668534    53Ap     1.740160    39App    1.740350
      54Ap     1.770178    40App    1.828413    55Ap     1.831654
      41App    1.970682    56Ap     2.018125    57Ap     2.019019
      42App    2.019116    43App    2.054030    58Ap     2.054049
      59Ap     2.737722    44App    2.738614    60Ap     2.791318
      45App    2.810972    46App    2.890055    61Ap     2.890558
      62Ap     2.895314    63Ap     2.929182    47App    2.929394
      48App    2.959144    49App    2.964285    64Ap     2.965336
      65Ap     3.034722    50App    3.071067    66Ap     3.071556
      51App    3.082988    67Ap     3.168772    52App    3.169043
      68Ap     3.180648    69Ap     3.285347    53App    3.285485
      70Ap     3.326495    54App    3.326573    71Ap     3.375431
      72Ap     3.489574    55App    3.491220    56App    3.515230
      73Ap     3.524157    57App    3.568697    74Ap     3.568842
      58App    3.576022    59App    3.666052    75Ap     3.667387
      76Ap     3.679044    60App    3.693438    77Ap     3.694484
      61App    3.775831    78Ap     3.776964    79Ap     3.789908
      62App    3.911226    80Ap     3.912096    81Ap     4.033969
      63App    4.110636    82Ap     4.112049    83Ap     4.146744
      64App    4.150539    84Ap     4.174986    85Ap     4.200850
      65App    4.201535    86Ap     4.204836    66App    4.212289
      67App    4.315733    87Ap     4.317122    68App    4.357736
      88Ap     4.424964    69App    4.425301    70App    4.443333
      71App    4.517279    89Ap     4.517689    90Ap     4.577167
      72App    4.578055    91Ap     4.617628    92Ap     4.710040
      73App    4.774373    93Ap     4.774600    74App    4.835508
      94Ap     4.962563    75App    5.003693    95Ap     5.004860
      96Ap     5.230561    97Ap     5.240184    76App    5.247446
      77App    5.354477    98Ap     5.360705    78App    5.477487

    Beta Occupied:

       1App  -10.168116     1Ap   -10.168096     2Ap   -10.167100
       3Ap   -10.166452     4Ap    -0.781123     5Ap    -0.684307
       2App   -0.683663     6Ap    -0.511709     3App   -0.431073
       7Ap    -0.430877     8Ap    -0.421978     9Ap    -0.377076
       4App   -0.376613     5App   -0.362408     6App   -0.333095
      10Ap    -0.333047

    Beta Virtual:

      11Ap    -0.025616    12Ap     0.076978    13Ap     0.134895
       7App    0.135032    14Ap     0.144417     8App    0.144504
      15Ap     0.163480     9App    0.182341    16Ap     0.182975
      10App    0.214768    17Ap     0.218973    18Ap     0.282307
      11App    0.282400    12App    0.400434    19Ap     0.400595
      20Ap     0.419778    21Ap     0.426622    13App    0.426818
      22Ap     0.468676    14App    0.497393    23Ap     0.497532
      15App    0.514008    24Ap     0.556515    16App    0.584377
      25Ap     0.584622    17App    0.597813    26Ap     0.598356
      27Ap     0.610623    28Ap     0.627782    18App    0.631504
      29Ap     0.638841    19App    0.639602    20App    0.667238
      30Ap     0.667649    21App    0.685981    31Ap     0.686538
      32Ap     0.757460    33Ap     0.830160    22App    0.831002
      23App    0.855542    34Ap     0.923196    24App    0.923207
      25App    0.945689    35Ap     0.953346    36Ap     0.966527
      26App    0.966949    37Ap     1.008920    27App    1.131515
      38Ap     1.132191    39Ap     1.156237    40Ap     1.167993
      28App    1.168205    41Ap     1.231900    29App    1.280171
      42Ap     1.280532    43Ap     1.285323    44Ap     1.329106
      30App    1.329902    45Ap     1.364871    31App    1.371038
      46Ap     1.371552    32App    1.393545    33App    1.408181
      47Ap     1.408979    34App    1.420867    48Ap     1.421592
      35App    1.428389    36App    1.492586    49Ap     1.510472
      50Ap     1.547483    37App    1.547680    51Ap     1.581694
      38App    1.582241    52Ap     1.673330    53Ap     1.745949
      39App    1.746098    54Ap     1.780967    40App    1.832297
      55Ap     1.835479    41App    1.971559    56Ap     2.025352
      42App    2.025592    57Ap     2.039771    58Ap     2.060590
      43App    2.060682    59Ap     2.746036    44App    2.746954
      45App    2.811382    60Ap     2.816491    46App    2.902851
      61Ap     2.903219    62Ap     2.925188    63Ap     2.931714
      47App    2.931822    48App    2.960211    49App    2.968823
      64Ap     2.969956    65Ap     3.042444    50App    3.080882
      66Ap     3.081535    51App    3.084857    67Ap     3.184450
      52App    3.184818    68Ap     3.188360    69Ap     3.290089
      53App    3.290279    70Ap     3.330356    54App    3.330393
      71Ap     3.383275    72Ap     3.492376    55App    3.493958
      56App    3.513595    73Ap     3.527216    57App    3.575786
      74Ap     3.581977    58App    3.581993    59App    3.670834
      75Ap     3.672312    76Ap     3.692387    60App    3.725077
      77Ap     3.726062    61App    3.780458    78Ap     3.781525
      79Ap     3.818427    62App    3.920998    80Ap     3.921843
      81Ap     4.044789    63App    4.117645    82Ap     4.118642
      83Ap     4.154187    64App    4.157560    84Ap     4.189008
      65App    4.207307    85Ap     4.207566    86Ap     4.212035
      66App    4.216644    67App    4.323355    87Ap     4.324496
      68App    4.361145    88Ap     4.433238    69App    4.433404
      70App    4.446321    71App    4.525095    89Ap     4.525385
      90Ap     4.587856    72App    4.588651    91Ap     4.624914
      92Ap     4.720266    73App    4.781344    93Ap     4.781635
      74App    4.838436    94Ap     4.967348    75App    5.007723
      95Ap     5.008857    96Ap     5.236268    97Ap     5.242031
      76App    5.249244    77App    5.360999    98Ap     5.367193
      78App    5.479821

    Final Occupation by Irrep:
             Ap   App
    DOCC [    10,    6 ]
    SOCC [     1,    0 ]

  @DF-UKS Final Energy:  -157.81304427969928

   => Energetics <=

    Nuclear Repulsion Energy =            125.4000629835354061
    One-Electron Energy =                -458.7597395988684639
    Two-Electron Energy =                 195.8538946460498380
    DFT Exchange-Correlation Energy =     -20.3072623104160641
    Empirical Dispersion Energy =           0.0000000000000000
    VV10 Nonlocal Energy =                  0.0000000000000000
    Total Energy =                       -157.8130442796992838

  UHF NO Occupations:
  HONO-2 :    9 Ap 1.9996032
  HONO-1 :   10 Ap 1.9989813
  HONO-0 :   11 Ap 1.0000000
  LUNO+0 :   12 Ap 0.0010187
  LUNO+1 :   13 Ap 0.0003968
  LUNO+2 :    7App 0.0001976
  LUNO+3 :   14 Ap 0.0001975

Computation Completed

Properties will be evaluated at   0.000000,   0.000000,   0.000000 [a0]

Properties computed using the SCF density matrix

  Nuclear Dipole Moment: [e a0]
     X:     0.8215      Y:    -0.0025      Z:     0.0000

  Electronic Dipole Moment: [e a0]
     X:    -0.7404      Y:     0.0050      Z:     0.0000

  Dipole Moment: [e a0]
     X:     0.0811      Y:     0.0024      Z:     0.0000     Total:     0.0811

  Dipole Moment: [D]
     X:     0.2061      Y:     0.0062      Z:     0.0000     Total:     0.2062

*** tstop() called on n036 at Fri Nov  5 14:49:30 2021
Module time:
	user time   =     634.31 seconds =      10.57 minutes
	system time =      12.27 seconds =       0.20 minutes
	total time  =        162 seconds =       2.70 minutes
Total time:
	user time   =     634.31 seconds =      10.57 minutes
	system time =      12.27 seconds =       0.20 minutes
	total time  =        162 seconds =       2.70 minutes
Grab this energy -157.81304427969928
    Psi4 stopped on: Friday, 05 November 2021 02:49PM
    Psi4 wall time for execution: 0:02:42.59

*** Psi4 exiting successfully. Buy a developer a beer!
