                               Psi4 1.4a2.dev629

  ==> Input File <==

--------------------------------------------------------------------------
import os
memory 14 GB

molecule {
 C   -0.3233396527    0.0004302585   -0.0000000000
 C    0.0609863193   -1.3998630390   -2.4270283163
 C    0.0613298570    2.8016526921   -0.0000000000
 C    0.0609863193   -1.3998630390    2.4270283163
 H    2.0873945937   -1.6414732632   -2.8489505733
 H   -0.7628056509   -0.3900559278   -4.0236006135
 H   -0.7685202905   -3.2938233801   -2.3489226047
 H    2.0858875071    3.2881128136   -0.0000000000
 H   -0.7652977657    3.6801055712    1.6774170238
 H   -0.7652977657    3.6801055712   -1.6774170238
 H    2.0873945937   -1.6414732632    2.8489505733
 H   -0.7685202905   -3.2938233801    2.3489226047
 H   -0.7628056509   -0.3900559278    4.0236006135
units bohr
0 2
}

basis {

assign 6-31g_2dfp_

[ 6-31g_2dfp_ ]

spherical

!----------------------------------------------------------------------
! Basis Set Exchange
! Version v0.8.13
! https://www.basissetexchange.org
!----------------------------------------------------------------------
!   Basis set: 6-31G(2df,p)
! Description: 6-31G(2df,p)
!        Role: orbital
!     Version: 0  (Data from the original Basis Set Exchange)
!----------------------------------------------------------------------

****
H     0
S    3   1.00
     18.7311370              0.03349460
      2.8253937              0.23472695
      0.6401217              0.81375733
S    1   1.00
      0.1612778              1.00000000
P    1   1.00
      1.5000000              1.0000000
P    1   1.00
      0.3750000              1.0000000
****
B     0
S    6   1.00
   2068.8823000              0.0018663
    310.6495700              0.0142515
     70.6830330              0.0695516
     19.8610800              0.2325729
      6.2993048              0.4670787
      2.1270270              0.3634314
SP   3   1.00
      4.7279710             -0.1303938              0.0745976
      1.1903377             -0.1307889              0.3078467
      0.3594117              1.1309444              0.7434568
SP   1   1.00
      0.1267512              1.0000000              1.0000000
D    1   1.00
      0.8020000              1.0000000
D    1   1.00
      0.2005000              1.0000000
F    1   1.00
      0.5000000              1.0000000
****
C     0
S    6   1.00
   3047.5249000              0.0018347
    457.3695100              0.0140373
    103.9486900              0.0688426
     29.2101550              0.2321844
      9.2866630              0.4679413
      3.1639270              0.3623120
SP   3   1.00
      7.8682724             -0.1193324              0.0689991
      1.8812885             -0.1608542              0.3164240
      0.5442493              1.1434564              0.7443083
SP   1   1.00
      0.1687144              1.0000000              1.0000000
D    1   1.00
      1.2520000              1.0000000
D    1   1.00
      0.3130000              1.0000000
F    1   1.00
      0.8000000              1.0000000
****
N     0
S    6   1.00
   4173.5110000              0.0018348
    627.4579000              0.0139950
    142.9021000              0.0685870
     40.2343300              0.2322410
     12.8202100              0.4690700
      4.3904370              0.3604550
SP   3   1.00
     11.6263580             -0.1149610              0.0675800
      2.7162800             -0.1691180              0.3239070
      0.7722180              1.1458520              0.7408950
SP   1   1.00
      0.2120313              1.0000000              1.0000000
D    1   1.00
      1.8260000              1.0000000
D    1   1.00
      0.4565000              1.0000000
F    1   1.00
      1.0000000              1.0000000
****
O     0
S    6   1.00
   5484.6717000              0.0018311
    825.2349500              0.0139501
    188.0469600              0.0684451
     52.9645000              0.2327143
     16.8975700              0.4701930
      5.7996353              0.3585209
SP   3   1.00
     15.5396160             -0.1107775              0.0708743
      3.5999336             -0.1480263              0.3397528
      1.0137618              1.1307670              0.7271586
SP   1   1.00
      0.2700058              1.0000000              1.0000000
D    1   1.00
      2.5840000              1.0000000
D    1   1.00
      0.6460000              1.0000000
F    1   1.00
      1.4000000              1.0000000
****
F     0
S    6   1.00
   7001.7130900              0.0018196169
   1051.3660900              0.0139160796
    239.2856900              0.0684053245
     67.3974453              0.233185760
     21.5199573              0.471267439
      7.40310130             0.356618546
SP   3   1.00
     20.8479528             -0.108506975            0.0716287243
      4.80830834            -0.146451658            0.3459121030
      1.34406986             1.128688580            0.7224699570
SP   1   1.00
      0.358151393            1.0000000              1.0000000
D    1   1.00
      3.5000000              1.0000000
D    1   1.00
      0.8750000              1.0000000
F    1   1.00
      1.8500000              1.0000000
****
Al     0
S    6   1.00
  13983.1000000              0.00194267
   2098.7500000              0.0148599
    477.7050000              0.0728494
    134.3600000              0.2468300
     42.8709000              0.4872580
     14.5189000              0.3234960
SP   6   1.00
    239.6680000             -0.00292619             0.00460285
     57.4419000             -0.0374080              0.0331990
     18.2859000             -0.1144870              0.1362820
      6.5991400              0.1156350              0.3304760
      2.4904900              0.6125950              0.4491460
      0.9445400              0.3937990              0.2657040
SP   3   1.00
      1.2779000             -0.2276060             -0.0175130
      0.3975900              0.00144583             0.2445330
      0.1600950              1.0927900              0.8049340
SP   1   1.00
      0.0556577              1.0000000              1.0000000
D    1   1.00
      0.6500000              1.0000000
D    1   1.00
      0.1625000              1.0000000
F    1   1.00
      0.2500000              1.0000000
****
Si     0
S    6   1.00
  16115.9000000              0.00195948
   2425.5800000              0.01492880
    553.8670000              0.07284780
    156.3400000              0.24613000
     50.0683000              0.48591400
     17.0178000              0.32500200
SP   6   1.00
    292.7180000             -0.00278094             0.00443826
     69.8731000             -0.03571460             0.03266790
     22.3363000             -0.11498500             0.13472100
      8.1503900              0.09356340             0.32867800
      3.1345800              0.60301700             0.44964000
      1.2254300              0.41895900             0.26137200
SP   3   1.00
      1.7273800             -0.24463000            -0.01779510
      0.5729220              0.00431572             0.25353900
      0.2221920              1.09818000             0.80066900
SP   1   1.00
      0.0778369              1.00000000             1.00000000
D    1   1.00
      0.9000000              1.0000000
D    1   1.00
      0.2250000              1.0000000
F    1   1.00
      0.3200000              1.0000000
****
P     0
S    6   1.00
  19413.3000000              0.0018516
   2909.4200000              0.0142062
    661.3640000              0.0699995
    185.7590000              0.2400790
     59.1943000              0.4847620
     20.0310000              0.3352000
SP   6   1.00
    339.4780000             -0.00278217             0.00456462
     81.0101000             -0.0360499              0.03369360
     25.8780000             -0.1166310              0.13975500
      9.4522100              0.0968328              0.33936200
      3.6656600              0.6144180              0.45092100
      1.4674600              0.4037980              0.23858600
SP   3   1.00
      2.1562300             -0.2529230             -0.01776530
      0.7489970              0.0328517              0.27405800
      0.2831450              1.0812500              0.78542100
SP   1   1.00
      0.0998317              1.0000000              1.00000000
D    1   1.00
      1.1000000              1.0000000
D    1   1.00
      0.2750000              1.0000000
F    1   1.00
      0.4500000              1.0000000
****
S     0
S    6   1.00
  21917.1000000              0.0018690
   3301.4900000              0.0142300
    754.1460000              0.0696960
    212.7110000              0.2384870
     67.9896000              0.4833070
     23.0515000              0.3380740
SP   6   1.00
    423.7350000             -0.0023767              0.0040610
    100.7100000             -0.0316930              0.0306810
     32.1599000             -0.1133170              0.1304520
     11.8079000              0.0560900              0.3272050
      4.6311000              0.5922550              0.4528510
      1.8702500              0.4550060              0.2560420
SP   3   1.00
      2.6158400             -0.2503740             -0.0145110
      0.9221670              0.0669570              0.3102630
      0.3412870              1.0545100              0.7544830
SP   1   1.00
      0.1171670              1.0000000              1.0000000
D    1   1.00
      1.3000000              1.0000000
D    1   1.00
      0.3250000              1.0000000
F    1   1.00
      0.5500000              1.0000000
****
Cl     0
S    6   1.00
  25180.1000000              0.0018330
   3780.3500000              0.0140340
    860.4740000              0.0690970
    242.1450000              0.2374520
     77.3349000              0.4830340
     26.2470000              0.3398560
SP   6   1.00
    491.7650000             -0.0022974              0.0039894
    116.9840000             -0.0307140              0.0303180
     37.4153000             -0.1125280              0.1298800
     13.7834000              0.0450160              0.3279510
      5.4521500              0.5893530              0.4535270
      2.2258800              0.4652060              0.2521540
SP   3   1.00
      3.1864900             -0.2518300             -0.0142990
      1.1442700              0.0615890              0.3235720
      0.4203770              1.0601800              0.7435070
SP   1   1.00
      0.1426570              1.0000000              1.0000000
D    1   1.00
      1.5000000              1.0000000
D    1   1.00
      0.3750000              1.0000000
F    1   1.00
      0.7000000              1.0000000
****
}

set {
reference uhf
freeze_core true
e_convergence 10
d_convergence 10
dft_spherical_points 1202
dft_radial_points 99
}

e = energy('b3lyp')

print_out('Grab this energy {0}'.format(e))
--------------------------------------------------------------------------

    Molecular point group: cs

    Geometry (in Bohr), charge = 0, multiplicity = 2:

       Center              X                  Y                   Z               Mass
    ------------   -----------------  -----------------  -----------------  -----------------
         C           -0.323340197342    -0.000023262777     0.000000000000    12.000000000000
         C            0.060985774658    -1.400316560277    -2.427028316300    12.000000000000
         C            0.061329312358     2.801199170823     0.000000000000    12.000000000000
         C            0.060985774658    -1.400316560277     2.427028316300    12.000000000000
         H            2.087394049058    -1.641926784477    -2.848950573300     1.007825032230
         H           -0.762806195542    -0.390509449077    -4.023600613500     1.007825032230
         H           -0.768520835142    -3.294276901377    -2.348922604700     1.007825032230
         H            2.085886962458     3.287659292323     0.000000000000     1.007825032230
         H           -0.765298310342     3.679652049923     1.677417023800     1.007825032230
         H           -0.765298310342     3.679652049923    -1.677417023800     1.007825032230
         H            2.087394049058    -1.641926784477     2.848950573300     1.007825032230
         H           -0.768520835142    -3.294276901377     2.348922604700     1.007825032230
         H           -0.762806195542    -0.390509449077     4.023600613500     1.007825032230

  Charge       = 0
  Multiplicity = 2
  Basis Set: ANONYMOUS2D597953
    Blend: 6-31G_2DFP_
  Basis Set: (ANONYMOUS2D597953 AUX)
    Blend: DEF2-UNIVERSAL-JKFIT

    Orbital Energies [Eh]
    ---------------------

    Alpha Occupied:

       1Ap   -10.180342     2Ap   -10.167034     1App  -10.167026
       3Ap   -10.166984     4Ap    -0.797766     2App   -0.686248
       5Ap    -0.686127     6Ap    -0.530778     7Ap    -0.441126
       8Ap    -0.434854     3App   -0.434485     9Ap    -0.382622
       4App   -0.382576     5App   -0.363612     6App   -0.338160
      10Ap    -0.337837    11Ap    -0.168961

    Alpha Virtual:

      12Ap     0.076070    13Ap     0.134040     7App    0.134268
       8App    0.142424    14Ap     0.142831    15Ap     0.154882
       9App    0.178684    16Ap     0.178872    17Ap     0.203547
      10App    0.214804    11App    0.275876    18Ap     0.276096
      19Ap     0.398978    12App    0.399477    20Ap     0.403345
      21Ap     0.423935    13App    0.424259    22Ap     0.456593
      23Ap     0.495339    14App    0.495441    15App    0.512161
      24Ap     0.513979    16App    0.578764    25Ap     0.578871
      17App    0.591489    26Ap     0.591775    27Ap     0.602570
      28Ap     0.624718    18App    0.631769    19App    0.635965
      29Ap     0.636579    20App    0.663202    30Ap     0.663622
      31Ap     0.683656    21App    0.684064    32Ap     0.734994
      22App    0.825154    33Ap     0.825660    23App    0.853915
      34Ap     0.914814    24App    0.915237    25App    0.944125
      35Ap     0.944608    36Ap     0.961220    26App    0.961368
      37Ap     1.003456    38Ap     1.127825    27App    1.128403
      39Ap     1.142221    40Ap     1.163202    28App    1.163335
      41Ap     1.223322    29App    1.274245    42Ap     1.274733
      43Ap     1.279355    30App    1.324142    44Ap     1.324563
      45Ap     1.355990    31App    1.365746    46Ap     1.366363
      32App    1.392450    33App    1.404006    47Ap     1.404094
      48Ap     1.416408    34App    1.417808    35App    1.427900
      36App    1.491498    49Ap     1.499070    50Ap     1.542813
      37App    1.542857    38App    1.574253    51Ap     1.574644
      52Ap     1.669831    39App    1.738716    53Ap     1.740113
      54Ap     1.768321    55Ap     1.830625    40App    1.832149
      41App    1.971754    56Ap     2.017861    42App    2.018463
      57Ap     2.020056    43App    2.052106    58Ap     2.053186
      44App    2.738302    59Ap     2.738666    60Ap     2.790923
      45App    2.811426    46App    2.889805    61Ap     2.890103
      62Ap     2.894939    47App    2.929477    63Ap     2.929516
      48App    2.958961    49App    2.964360    64Ap     2.964429
      65Ap     3.034009    66Ap     3.070752    50App    3.071752
      51App    3.084438    52App    3.168370    67Ap     3.169193
      68Ap     3.180587    69Ap     3.285152    53App    3.285470
      54App    3.326785    70Ap     3.327538    71Ap     3.375628
      72Ap     3.489898    55App    3.490434    56App    3.514018
      73Ap     3.525329    74Ap     3.567965    57App    3.568817
      58App    3.575119    59App    3.665939    75Ap     3.666872
      76Ap     3.679639    77Ap     3.693910    60App    3.694357
      61App    3.776700    78Ap     3.776885    79Ap     3.789125
      80Ap     3.911641    62App    3.912803    81Ap     4.034446
      63App    4.110804    82Ap     4.111872    83Ap     4.147736
      64App    4.148432    84Ap     4.173340    85Ap     4.202287
      86Ap     4.202672    65App    4.203745    66App    4.210989
      87Ap     4.315305    67App    4.316627    68App    4.358976
      69App    4.423914    88Ap     4.425003    70App    4.443448
      71App    4.515795    89Ap     4.517880    72App    4.578267
      90Ap     4.578274    91Ap     4.617546    92Ap     4.709429
      73App    4.773605    93Ap     4.775603    74App    4.836906
      94Ap     4.962865    75App    5.002590    95Ap     5.003326
      96Ap     5.227581    76App    5.246866    97Ap     5.247162
      77App    5.354238    98Ap     5.356797    78App    5.479413

    Beta Occupied:

       1Ap   -10.167788     1App  -10.167779     2Ap   -10.167757
       3Ap   -10.166519     4Ap    -0.781091     2App   -0.684053
       5Ap    -0.683928     6Ap    -0.511749     7Ap    -0.431229
       3App   -0.430855     8Ap    -0.421820     9Ap    -0.376703
       4App   -0.376665     5App   -0.362596     6App   -0.333279
      10Ap    -0.332964

    Beta Virtual:

      11Ap    -0.025742    12Ap     0.077079    13Ap     0.134906
       7App    0.135183     8App    0.144266    14Ap     0.144730
      15Ap     0.163340     9App    0.182356    16Ap     0.182543
      10App    0.215033    17Ap     0.218930    11App    0.282224
      18Ap     0.282443    19Ap     0.400144    12App    0.400651
      20Ap     0.419791    21Ap     0.426746    13App    0.427070
      22Ap     0.468501    23Ap     0.497595    14App    0.497706
      15App    0.513896    24Ap     0.556325    16App    0.584315
      25Ap     0.584419    17App    0.597646    26Ap     0.597976
      27Ap     0.609995    28Ap     0.628096    18App    0.631926
      19App    0.639270    29Ap     0.639844    20App    0.666781
      30Ap     0.667170    31Ap     0.686314    21App    0.686676
      32Ap     0.757518    22App    0.830335    33Ap     0.830816
      23App    0.855268    34Ap     0.922805    24App    0.923188
      25App    0.945961    35Ap     0.953535    36Ap     0.966509
      26App    0.966692    37Ap     1.008696    38Ap     1.131858
      27App    1.132426    39Ap     1.155600    40Ap     1.168279
      28App    1.168404    41Ap     1.232295    29App    1.279825
      42Ap     1.280346    43Ap     1.285110    30App    1.329133
      44Ap     1.329550    45Ap     1.365406    31App    1.371051
      46Ap     1.371543    32App    1.393509    33App    1.407453
      47Ap     1.407577    48Ap     1.421510    34App    1.422806
      35App    1.428169    36App    1.492548    49Ap     1.509514
      50Ap     1.547192    37App    1.547296    38App    1.582120
      51Ap     1.582516    52Ap     1.674678    39App    1.744462
      53Ap     1.745892    54Ap     1.779098    55Ap     1.834476
      40App    1.836008    41App    1.972614    42App    2.024891
      56Ap     2.025964    57Ap     2.039693    43App    2.058807
      58Ap     2.059926    44App    2.746626    59Ap     2.747014
      45App    2.811838    60Ap     2.816059    46App    2.902450
      61Ap     2.902834    62Ap     2.924649    63Ap     2.931950
      47App    2.932002    48App    2.960037    49App    2.968883
      64Ap     2.968982    65Ap     3.041944    66Ap     3.080663
      50App    3.081516    51App    3.086402    52App    3.184157
      67Ap     3.184900    68Ap     3.188276    69Ap     3.289940
      53App    3.290280    54App    3.330555    70Ap     3.331376
      71Ap     3.383446    72Ap     3.492642    55App    3.493151
      56App    3.512382    73Ap     3.528375    57App    3.574980
      74Ap     3.581226    58App    3.582236    59App    3.670817
      75Ap     3.671483    76Ap     3.692945    77Ap     3.725721
      60App    3.725805    61App    3.781194    78Ap     3.781448
      79Ap     3.817666    80Ap     3.921390    62App    3.922686
      81Ap     4.045333    63App    4.117411    82Ap     4.118902
      83Ap     4.154733    64App    4.155867    84Ap     4.187377
      85Ap     4.208269    65App    4.209636    86Ap     4.210626
      66App    4.215482    87Ap     4.322788    67App    4.324029
      68App    4.362338    69App    4.432145    88Ap     4.433200
      70App    4.446332    71App    4.523579    89Ap     4.525676
      72App    4.588836    90Ap     4.588908    91Ap     4.624738
      92Ap     4.719773    73App    4.780585    93Ap     4.782530
      74App    4.839823    94Ap     4.967659    75App    5.006631
      95Ap     5.007363    96Ap     5.233191    76App    5.248640
      97Ap     5.249067    77App    5.360726    98Ap     5.363265
      78App    5.481735

    Final Occupation by Irrep:
             Ap   App
    DOCC [    10,    6 ]
    SOCC [     1,    0 ]

  @DF-UKS Final Energy:  -157.81306140936596

   => Energetics <=

    Nuclear Repulsion Energy =            125.3946201602493034
    One-Electron Energy =                -458.7488805691723428
    Two-Electron Energy =                 195.8483443711895688
    DFT Exchange-Correlation Energy =     -20.3071453716324832
    Empirical Dispersion Energy =           0.0000000000000000
    VV10 Nonlocal Energy =                  0.0000000000000000
    Total Energy =                       -157.8130614093659574

  UHF NO Occupations:
  HONO-2 :    9 Ap 1.9996009
  HONO-1 :   10 Ap 1.9989805
  HONO-0 :   11 Ap 1.0000000
  LUNO+0 :   12 Ap 0.0010195
  LUNO+1 :   13 Ap 0.0003991
  LUNO+2 :   14 Ap 0.0001976
  LUNO+3 :    7App 0.0001975

Computation Completed

Properties will be evaluated at   0.000000,   0.000000,   0.000000 [a0]

Properties computed using the SCF density matrix

  Nuclear Dipole Moment: [e a0]
     X:     0.8272      Y:    -0.0032      Z:     0.0000

  Electronic Dipole Moment: [e a0]
     X:    -0.7493      Y:     0.0050      Z:     0.0000

  Dipole Moment: [e a0]
     X:     0.0779      Y:     0.0017      Z:     0.0000     Total:     0.0779

  Dipole Moment: [D]
     X:     0.1980      Y:     0.0044      Z:     0.0000     Total:     0.1981

*** tstop() called on n082 at Fri Nov  5 14:22:30 2021
Module time:
	user time   =     581.74 seconds =       9.70 minutes
	system time =       5.46 seconds =       0.09 minutes
	total time  =        148 seconds =       2.47 minutes
Total time:
	user time   =     581.74 seconds =       9.70 minutes
	system time =       5.46 seconds =       0.09 minutes
	total time  =        148 seconds =       2.47 minutes
Grab this energy -157.81306140936596
    Psi4 stopped on: Friday, 05 November 2021 02:22PM
    Psi4 wall time for execution: 0:02:27.59

*** Psi4 exiting successfully. Buy a developer a beer!
