                               Psi4 1.4a2.dev629

  ==> Input File <==

--------------------------------------------------------------------------
import os
memory 14 GB

molecule {
 C   -0.3233409904    0.0058412830    0.0000000000
 C    0.0619015087   -1.3997218783   -2.4269554132
 C    0.0594959061    2.8019150837    0.0000000000
 C    0.0619015087   -1.3997218783    2.4269554132
 H    2.0847556390   -1.6449818163   -2.8475542737
 H   -0.7641657259   -0.3874353454   -4.0250597458
 H   -0.7649531162   -3.2947303097   -2.3491793429
 H    2.0911602235    3.2870070490    0.0000000000
 H   -0.7674998135    3.6794754852    1.6737639756
 H   -0.7674998135    3.6794754852   -1.6737639756
 H    2.0847556390   -1.6449818163    2.8475542737
 H   -0.7649531162   -3.2947303097    2.3491793429
 H   -0.7641657259   -0.3874353454    4.0250597458
units bohr
0 2
}

basis {

assign 6-31g_2dfp_

[ 6-31g_2dfp_ ]

spherical

!----------------------------------------------------------------------
! Basis Set Exchange
! Version v0.8.13
! https://www.basissetexchange.org
!----------------------------------------------------------------------
!   Basis set: 6-31G(2df,p)
! Description: 6-31G(2df,p)
!        Role: orbital
!     Version: 0  (Data from the original Basis Set Exchange)
!----------------------------------------------------------------------

****
H     0
S    3   1.00
     18.7311370              0.03349460
      2.8253937              0.23472695
      0.6401217              0.81375733
S    1   1.00
      0.1612778              1.00000000
P    1   1.00
      1.5000000              1.0000000
P    1   1.00
      0.3750000              1.0000000
****
B     0
S    6   1.00
   2068.8823000              0.0018663
    310.6495700              0.0142515
     70.6830330              0.0695516
     19.8610800              0.2325729
      6.2993048              0.4670787
      2.1270270              0.3634314
SP   3   1.00
      4.7279710             -0.1303938              0.0745976
      1.1903377             -0.1307889              0.3078467
      0.3594117              1.1309444              0.7434568
SP   1   1.00
      0.1267512              1.0000000              1.0000000
D    1   1.00
      0.8020000              1.0000000
D    1   1.00
      0.2005000              1.0000000
F    1   1.00
      0.5000000              1.0000000
****
C     0
S    6   1.00
   3047.5249000              0.0018347
    457.3695100              0.0140373
    103.9486900              0.0688426
     29.2101550              0.2321844
      9.2866630              0.4679413
      3.1639270              0.3623120
SP   3   1.00
      7.8682724             -0.1193324              0.0689991
      1.8812885             -0.1608542              0.3164240
      0.5442493              1.1434564              0.7443083
SP   1   1.00
      0.1687144              1.0000000              1.0000000
D    1   1.00
      1.2520000              1.0000000
D    1   1.00
      0.3130000              1.0000000
F    1   1.00
      0.8000000              1.0000000
****
N     0
S    6   1.00
   4173.5110000              0.0018348
    627.4579000              0.0139950
    142.9021000              0.0685870
     40.2343300              0.2322410
     12.8202100              0.4690700
      4.3904370              0.3604550
SP   3   1.00
     11.6263580             -0.1149610              0.0675800
      2.7162800             -0.1691180              0.3239070
      0.7722180              1.1458520              0.7408950
SP   1   1.00
      0.2120313              1.0000000              1.0000000
D    1   1.00
      1.8260000              1.0000000
D    1   1.00
      0.4565000              1.0000000
F    1   1.00
      1.0000000              1.0000000
****
O     0
S    6   1.00
   5484.6717000              0.0018311
    825.2349500              0.0139501
    188.0469600              0.0684451
     52.9645000              0.2327143
     16.8975700              0.4701930
      5.7996353              0.3585209
SP   3   1.00
     15.5396160             -0.1107775              0.0708743
      3.5999336             -0.1480263              0.3397528
      1.0137618              1.1307670              0.7271586
SP   1   1.00
      0.2700058              1.0000000              1.0000000
D    1   1.00
      2.5840000              1.0000000
D    1   1.00
      0.6460000              1.0000000
F    1   1.00
      1.4000000              1.0000000
****
F     0
S    6   1.00
   7001.7130900              0.0018196169
   1051.3660900              0.0139160796
    239.2856900              0.0684053245
     67.3974453              0.233185760
     21.5199573              0.471267439
      7.40310130             0.356618546
SP   3   1.00
     20.8479528             -0.108506975            0.0716287243
      4.80830834            -0.146451658            0.3459121030
      1.34406986             1.128688580            0.7224699570
SP   1   1.00
      0.358151393            1.0000000              1.0000000
D    1   1.00
      3.5000000              1.0000000
D    1   1.00
      0.8750000              1.0000000
F    1   1.00
      1.8500000              1.0000000
****
Al     0
S    6   1.00
  13983.1000000              0.00194267
   2098.7500000              0.0148599
    477.7050000              0.0728494
    134.3600000              0.2468300
     42.8709000              0.4872580
     14.5189000              0.3234960
SP   6   1.00
    239.6680000             -0.00292619             0.00460285
     57.4419000             -0.0374080              0.0331990
     18.2859000             -0.1144870              0.1362820
      6.5991400              0.1156350              0.3304760
      2.4904900              0.6125950              0.4491460
      0.9445400              0.3937990              0.2657040
SP   3   1.00
      1.2779000             -0.2276060             -0.0175130
      0.3975900              0.00144583             0.2445330
      0.1600950              1.0927900              0.8049340
SP   1   1.00
      0.0556577              1.0000000              1.0000000
D    1   1.00
      0.6500000              1.0000000
D    1   1.00
      0.1625000              1.0000000
F    1   1.00
      0.2500000              1.0000000
****
Si     0
S    6   1.00
  16115.9000000              0.00195948
   2425.5800000              0.01492880
    553.8670000              0.07284780
    156.3400000              0.24613000
     50.0683000              0.48591400
     17.0178000              0.32500200
SP   6   1.00
    292.7180000             -0.00278094             0.00443826
     69.8731000             -0.03571460             0.03266790
     22.3363000             -0.11498500             0.13472100
      8.1503900              0.09356340             0.32867800
      3.1345800              0.60301700             0.44964000
      1.2254300              0.41895900             0.26137200
SP   3   1.00
      1.7273800             -0.24463000            -0.01779510
      0.5729220              0.00431572             0.25353900
      0.2221920              1.09818000             0.80066900
SP   1   1.00
      0.0778369              1.00000000             1.00000000
D    1   1.00
      0.9000000              1.0000000
D    1   1.00
      0.2250000              1.0000000
F    1   1.00
      0.3200000              1.0000000
****
P     0
S    6   1.00
  19413.3000000              0.0018516
   2909.4200000              0.0142062
    661.3640000              0.0699995
    185.7590000              0.2400790
     59.1943000              0.4847620
     20.0310000              0.3352000
SP   6   1.00
    339.4780000             -0.00278217             0.00456462
     81.0101000             -0.0360499              0.03369360
     25.8780000             -0.1166310              0.13975500
      9.4522100              0.0968328              0.33936200
      3.6656600              0.6144180              0.45092100
      1.4674600              0.4037980              0.23858600
SP   3   1.00
      2.1562300             -0.2529230             -0.01776530
      0.7489970              0.0328517              0.27405800
      0.2831450              1.0812500              0.78542100
SP   1   1.00
      0.0998317              1.0000000              1.00000000
D    1   1.00
      1.1000000              1.0000000
D    1   1.00
      0.2750000              1.0000000
F    1   1.00
      0.4500000              1.0000000
****
S     0
S    6   1.00
  21917.1000000              0.0018690
   3301.4900000              0.0142300
    754.1460000              0.0696960
    212.7110000              0.2384870
     67.9896000              0.4833070
     23.0515000              0.3380740
SP   6   1.00
    423.7350000             -0.0023767              0.0040610
    100.7100000             -0.0316930              0.0306810
     32.1599000             -0.1133170              0.1304520
     11.8079000              0.0560900              0.3272050
      4.6311000              0.5922550              0.4528510
      1.8702500              0.4550060              0.2560420
SP   3   1.00
      2.6158400             -0.2503740             -0.0145110
      0.9221670              0.0669570              0.3102630
      0.3412870              1.0545100              0.7544830
SP   1   1.00
      0.1171670              1.0000000              1.0000000
D    1   1.00
      1.3000000              1.0000000
D    1   1.00
      0.3250000              1.0000000
F    1   1.00
      0.5500000              1.0000000
****
Cl     0
S    6   1.00
  25180.1000000              0.0018330
   3780.3500000              0.0140340
    860.4740000              0.0690970
    242.1450000              0.2374520
     77.3349000              0.4830340
     26.2470000              0.3398560
SP   6   1.00
    491.7650000             -0.0022974              0.0039894
    116.9840000             -0.0307140              0.0303180
     37.4153000             -0.1125280              0.1298800
     13.7834000              0.0450160              0.3279510
      5.4521500              0.5893530              0.4535270
      2.2258800              0.4652060              0.2521540
SP   3   1.00
      3.1864900             -0.2518300             -0.0142990
      1.1442700              0.0615890              0.3235720
      0.4203770              1.0601800              0.7435070
SP   1   1.00
      0.1426570              1.0000000              1.0000000
D    1   1.00
      1.5000000              1.0000000
D    1   1.00
      0.3750000              1.0000000
F    1   1.00
      0.7000000              1.0000000
****
}

set {
reference uhf
freeze_core true
e_convergence 10
d_convergence 10
dft_spherical_points 1202
dft_radial_points 99
}

e = energy('b3lyp')

print_out('Grab this energy {0}'.format(e))
--------------------------------------------------------------------------

    Molecular point group: cs

    Geometry (in Bohr), charge = 0, multiplicity = 2:

       Center              X                  Y                   Z               Mass
    ------------   -----------------  -----------------  -----------------  -----------------
         C           -0.323340589383     0.004240643779     0.000000000000    12.000000000000
         C            0.061901909717    -1.401322517521    -2.426955413200    12.000000000000
         C            0.059496307117     2.800314444479     0.000000000000    12.000000000000
         C            0.061901909717    -1.401322517521     2.426955413200    12.000000000000
         H            2.084756040017    -1.646582455521    -2.847554273700     1.007825032230
         H           -0.764165324883    -0.389035984621    -4.025059745800     1.007825032230
         H           -0.764952715183    -3.296330948921    -2.349179342900     1.007825032230
         H            2.091160624517     3.285406409779     0.000000000000     1.007825032230
         H           -0.767499412483     3.677874845979     1.673763975600     1.007825032230
         H           -0.767499412483     3.677874845979    -1.673763975600     1.007825032230
         H            2.084756040017    -1.646582455521     2.847554273700     1.007825032230
         H           -0.764952715183    -3.296330948921     2.349179342900     1.007825032230
         H           -0.764165324883    -0.389035984621     4.025059745800     1.007825032230

  Charge       = 0
  Multiplicity = 2
  Basis Set: ANONYMOUSFCABAFFF
    Blend: 6-31G_2DFP_
  Basis Set: (ANONYMOUSFCABAFFF AUX)
    Blend: DEF2-UNIVERSAL-JKFIT

    Orbital Energies [Eh]
    ---------------------

    Alpha Occupied:

       1Ap   -10.180342     1App  -10.167034     2Ap   -10.167026
       3Ap   -10.166983     4Ap    -0.797770     5Ap    -0.686376
       2App   -0.686000     6Ap    -0.530777     7Ap    -0.441125
       3App   -0.434910     8Ap    -0.434436     9Ap    -0.382691
       4App   -0.382508     5App   -0.363607    10Ap    -0.338550
       6App   -0.337446    11Ap    -0.168961

    Alpha Virtual:

      12Ap     0.076071    13Ap     0.133971     7App    0.134337
       8App    0.142510    14Ap     0.142738    15Ap     0.154879
      16Ap     0.178704     9App    0.178858    17Ap     0.203544
      10App    0.214803    11App    0.275619    18Ap     0.276350
      12App    0.399071    19Ap     0.399384    20Ap     0.403344
      21Ap     0.424012    13App    0.424183    22Ap     0.456591
      14App    0.495198    23Ap     0.495578    15App    0.512161
      24Ap     0.513982    16App    0.578789    25Ap     0.578820
      26Ap     0.591502    17App    0.591801    27Ap     0.602572
      28Ap     0.624744    18App    0.631745    19App    0.636229
      29Ap     0.636317    30Ap     0.662987    20App    0.663854
      21App    0.683730    31Ap     0.683980    32Ap     0.734995
      22App    0.825269    33Ap     0.825532    23App    0.853924
      34Ap     0.914693    24App    0.915351    25App    0.944125
      35Ap     0.944623    26App    0.961241    36Ap     0.961346
      37Ap     1.003453    27App    1.127922    38Ap     1.128262
      39Ap     1.142259    28App    1.163011    40Ap     1.163527
      41Ap     1.223324    42Ap     1.273847    29App    1.275109
      43Ap     1.279375    30App    1.324302    44Ap     1.324409
      45Ap     1.355948    31App    1.365804    46Ap     1.366315
      32App    1.392430    47Ap     1.403652    33App    1.404438
      34App    1.416905    48Ap     1.417344    35App    1.427936
      36App    1.491486    49Ap     1.499074    50Ap     1.542392
      37App    1.543299    38App    1.574309    51Ap     1.574569
      52Ap     1.669830    39App    1.739376    53Ap     1.739430
      54Ap     1.768354    40App    1.830321    55Ap     1.832438
      41App    1.971717    56Ap     2.017845    57Ap     2.018499
      42App    2.020078    58Ap     2.052271    43App    2.053062
      59Ap     2.738318    44App    2.738659    60Ap     2.790924
      45App    2.811420    46App    2.889385    61Ap     2.890480
      62Ap     2.894972    47App    2.929122    63Ap     2.929872
      48App    2.958996    64Ap     2.963886    49App    2.964871
      65Ap     3.034013    50App    3.070784    66Ap     3.071785
      51App    3.084354    52App    3.168645    67Ap     3.168932
      68Ap     3.180622    53App    3.284689    69Ap     3.285939
      70Ap     3.326968    54App    3.327341    71Ap     3.375613
      55App    3.489452    72Ap     3.490840    56App    3.513995
      73Ap     3.525314    74Ap     3.568290    57App    3.568482
      58App    3.575183    75Ap     3.665355    59App    3.667426
      76Ap     3.679649    60App    3.693986    77Ap     3.694267
      61App    3.776080    78Ap     3.777465    79Ap     3.789205
      62App    3.911655    80Ap     3.912792    81Ap     4.034411
      82Ap     4.111227    63App    4.111493    64App    4.146495
      83Ap     4.149665    84Ap     4.173201    65App    4.201881
      85Ap     4.202659    86Ap     4.204346    66App    4.210879
      87Ap     4.315707    67App    4.316278    68App    4.358987
      69App    4.424083    88Ap     4.424853    70App    4.443427
      89Ap     4.516297    71App    4.517423    90Ap     4.577769
      72App    4.578304    91Ap     4.618024    92Ap     4.709468
      73App    4.774496    93Ap     4.774724    74App    4.836886
      94Ap     4.962833    95Ap     5.001972    75App    5.003972
      96Ap     5.228033    97Ap     5.244798    76App    5.248817
      98Ap     5.354896    77App    5.356176    78App    5.479393

    Beta Occupied:

       1App  -10.167784     1Ap   -10.167781     2Ap   -10.167757
       3Ap   -10.166519     4Ap    -0.781095     5Ap    -0.684172
       2App   -0.683809     6Ap    -0.511749     3App   -0.431271
       7Ap    -0.430818     8Ap    -0.421822     9Ap    -0.376713
       4App   -0.376656     5App   -0.362591    10Ap    -0.333676
       6App   -0.332567

    Beta Virtual:

      11Ap    -0.025744    12Ap     0.077080    13Ap     0.134891
       7App    0.135200     8App    0.144365    14Ap     0.144624
      15Ap     0.163336    16Ap     0.182368     9App    0.182536
      10App    0.215033    17Ap     0.218926    11App    0.281998
      18Ap     0.282666    12App    0.400244    19Ap     0.400549
      20Ap     0.419792    21Ap     0.426835    13App    0.426982
      22Ap     0.468498    14App    0.497448    23Ap     0.497852
      15App    0.513897    24Ap     0.556323    16App    0.584301
      25Ap     0.584411    26Ap     0.597668    17App    0.597993
      27Ap     0.609994    28Ap     0.628120    18App    0.631913
      19App    0.639488    29Ap     0.639616    30Ap     0.666590
      20App    0.667381    21App    0.686384    31Ap     0.686596
      32Ap     0.757517    22App    0.830439    33Ap     0.830699
      23App    0.855278    34Ap     0.922649    24App    0.923334
      25App    0.945962    35Ap     0.953554    26App    0.966567
      36Ap     0.966629    37Ap     1.008693    27App    1.131914
      38Ap     1.132347    39Ap     1.155614    28App    1.168125
      40Ap     1.168560    41Ap     1.232298    42Ap     1.279489
      29App    1.280666    43Ap     1.285124    30App    1.329301
      44Ap     1.329389    45Ap     1.365351    31App    1.371049
      46Ap     1.371568    32App    1.393491    47Ap     1.407135
      33App    1.407882    34App    1.421928    48Ap     1.422418
      35App    1.428210    36App    1.492534    49Ap     1.509517
      50Ap     1.546818    37App    1.547686    38App    1.582167
      51Ap     1.582456    52Ap     1.674677    39App    1.745133
      53Ap     1.745207    54Ap     1.779124    40App    1.834154
      55Ap     1.836318    41App    1.972578    56Ap     2.024422
      42App    2.026502    57Ap     2.039649    58Ap     2.059040
      43App    2.059745    59Ap     2.746694    44App    2.746953
      45App    2.811833    60Ap     2.816060    46App    2.902108
      61Ap     2.903162    62Ap     2.924638    47App    2.931578
      63Ap     2.932383    48App    2.960061    64Ap     2.968429
      49App    2.969425    65Ap     3.041945    50App    3.080843
      66Ap     3.081523    51App    3.086193    52App    3.184199
      67Ap     3.184827    68Ap     3.188355    53App    3.289517
      69Ap     3.290705    70Ap     3.330799    54App    3.331124
      71Ap     3.383431    55App    3.492211    72Ap     3.493542
      56App    3.512364    73Ap     3.528357    57App    3.574984
      74Ap     3.581725    58App    3.581790    75Ap     3.670126
      59App    3.672140    76Ap     3.692958    60App    3.725736
      77Ap     3.725765    61App    3.780682    78Ap     3.781976
      79Ap     3.817688    62App    3.921453    80Ap     3.922634
      81Ap     4.045295    82Ap     4.118023    63App    4.118334
      64App    4.153782    83Ap     4.156791    84Ap     4.187266
      65App    4.207781    85Ap     4.210251    86Ap     4.210707
      66App    4.215344    87Ap     4.323210    67App    4.323655
      68App    4.362353    69App    4.432296    88Ap     4.433064
      70App    4.446313    89Ap     4.524132    71App    4.525170
      90Ap     4.588348    72App    4.588889    91Ap     4.625253
      92Ap     4.719816    73App    4.781412    93Ap     4.781714
      74App    4.839803    94Ap     4.967624    95Ap     5.006051
      75App    5.007977    96Ap     5.233747    97Ap     5.246591
      76App    5.250596    98Ap     5.361390    77App    5.362640
      78App    5.481714

    Final Occupation by Irrep:
             Ap   App
    DOCC [    10,    6 ]
    SOCC [     1,    0 ]

  @DF-UKS Final Energy:  -157.81305114682974

   => Energetics <=

    Nuclear Repulsion Energy =            125.3947457837869024
    One-Electron Energy =                -458.7490975249323810
    Two-Electron Energy =                 195.8484513027681260
    DFT Exchange-Correlation Energy =     -20.3071507084523795
    Empirical Dispersion Energy =           0.0000000000000000
    VV10 Nonlocal Energy =                  0.0000000000000000
    Total Energy =                       -157.8130511468297357

  UHF NO Occupations:
  HONO-2 :    9 Ap 1.9996008
  HONO-1 :   10 Ap 1.9989804
  HONO-0 :   11 Ap 1.0000000
  LUNO+0 :   12 Ap 0.0010196
  LUNO+1 :   13 Ap 0.0003992
  LUNO+2 :    7App 0.0001986
  LUNO+3 :   14 Ap 0.0001965

Computation Completed

Properties will be evaluated at   0.000000,   0.000000,   0.000000 [a0]

Properties computed using the SCF density matrix

  Nuclear Dipole Moment: [e a0]
     X:     0.8272      Y:    -0.0113      Z:     0.0000

  Electronic Dipole Moment: [e a0]
     X:    -0.7493      Y:     0.0132      Z:     0.0000

  Dipole Moment: [e a0]
     X:     0.0779      Y:     0.0019      Z:     0.0000     Total:     0.0779

  Dipole Moment: [D]
     X:     0.1980      Y:     0.0048      Z:     0.0000     Total:     0.1981

*** tstop() called on n083 at Fri Nov  5 13:42:37 2021
Module time:
	user time   =     496.07 seconds =       8.27 minutes
	system time =       4.51 seconds =       0.08 minutes
	total time  =        125 seconds =       2.08 minutes
Total time:
	user time   =     496.07 seconds =       8.27 minutes
	system time =       4.51 seconds =       0.08 minutes
	total time  =        125 seconds =       2.08 minutes
Grab this energy -157.81305114682974
    Psi4 stopped on: Friday, 05 November 2021 01:42PM
    Psi4 wall time for execution: 0:02:05.87

*** Psi4 exiting successfully. Buy a developer a beer!
