                               Psi4 1.4a2.dev629

  ==> Input File <==

--------------------------------------------------------------------------
import os
memory 14 GB

molecule {
 C   -0.3233531314    0.0024283094    0.0000000000
 C    0.0613539404   -1.3994301802   -2.4260446031
 C    0.0600418848    2.7988691540    0.0000000000
 C    0.0613539404   -1.3994301802    2.4260446031
 H    2.0881651617   -1.6466559633   -2.8460659298
 H   -0.7607997304   -0.3881373359   -4.0306494096
 H   -0.7685112601   -3.2890061993   -2.3500454619
 H    2.0841724991    3.2894212567   -0.0000000000
 H   -0.7669426761    3.6778581618    1.6766360065
 H   -0.7669426761    3.6778581618   -1.6766360065
 H    2.0881651617   -1.6466559633    2.8460659298
 H   -0.7685112601   -3.2890061993    2.3500454619
 H   -0.7607997304   -0.3881373359    4.0306494096
units bohr
0 2
}

basis {

assign 6-31g_2dfp_

[ 6-31g_2dfp_ ]

spherical

!----------------------------------------------------------------------
! Basis Set Exchange
! Version v0.8.13
! https://www.basissetexchange.org
!----------------------------------------------------------------------
!   Basis set: 6-31G(2df,p)
! Description: 6-31G(2df,p)
!        Role: orbital
!     Version: 0  (Data from the original Basis Set Exchange)
!----------------------------------------------------------------------

****
H     0
S    3   1.00
     18.7311370              0.03349460
      2.8253937              0.23472695
      0.6401217              0.81375733
S    1   1.00
      0.1612778              1.00000000
P    1   1.00
      1.5000000              1.0000000
P    1   1.00
      0.3750000              1.0000000
****
B     0
S    6   1.00
   2068.8823000              0.0018663
    310.6495700              0.0142515
     70.6830330              0.0695516
     19.8610800              0.2325729
      6.2993048              0.4670787
      2.1270270              0.3634314
SP   3   1.00
      4.7279710             -0.1303938              0.0745976
      1.1903377             -0.1307889              0.3078467
      0.3594117              1.1309444              0.7434568
SP   1   1.00
      0.1267512              1.0000000              1.0000000
D    1   1.00
      0.8020000              1.0000000
D    1   1.00
      0.2005000              1.0000000
F    1   1.00
      0.5000000              1.0000000
****
C     0
S    6   1.00
   3047.5249000              0.0018347
    457.3695100              0.0140373
    103.9486900              0.0688426
     29.2101550              0.2321844
      9.2866630              0.4679413
      3.1639270              0.3623120
SP   3   1.00
      7.8682724             -0.1193324              0.0689991
      1.8812885             -0.1608542              0.3164240
      0.5442493              1.1434564              0.7443083
SP   1   1.00
      0.1687144              1.0000000              1.0000000
D    1   1.00
      1.2520000              1.0000000
D    1   1.00
      0.3130000              1.0000000
F    1   1.00
      0.8000000              1.0000000
****
N     0
S    6   1.00
   4173.5110000              0.0018348
    627.4579000              0.0139950
    142.9021000              0.0685870
     40.2343300              0.2322410
     12.8202100              0.4690700
      4.3904370              0.3604550
SP   3   1.00
     11.6263580             -0.1149610              0.0675800
      2.7162800             -0.1691180              0.3239070
      0.7722180              1.1458520              0.7408950
SP   1   1.00
      0.2120313              1.0000000              1.0000000
D    1   1.00
      1.8260000              1.0000000
D    1   1.00
      0.4565000              1.0000000
F    1   1.00
      1.0000000              1.0000000
****
O     0
S    6   1.00
   5484.6717000              0.0018311
    825.2349500              0.0139501
    188.0469600              0.0684451
     52.9645000              0.2327143
     16.8975700              0.4701930
      5.7996353              0.3585209
SP   3   1.00
     15.5396160             -0.1107775              0.0708743
      3.5999336             -0.1480263              0.3397528
      1.0137618              1.1307670              0.7271586
SP   1   1.00
      0.2700058              1.0000000              1.0000000
D    1   1.00
      2.5840000              1.0000000
D    1   1.00
      0.6460000              1.0000000
F    1   1.00
      1.4000000              1.0000000
****
F     0
S    6   1.00
   7001.7130900              0.0018196169
   1051.3660900              0.0139160796
    239.2856900              0.0684053245
     67.3974453              0.233185760
     21.5199573              0.471267439
      7.40310130             0.356618546
SP   3   1.00
     20.8479528             -0.108506975            0.0716287243
      4.80830834            -0.146451658            0.3459121030
      1.34406986             1.128688580            0.7224699570
SP   1   1.00
      0.358151393            1.0000000              1.0000000
D    1   1.00
      3.5000000              1.0000000
D    1   1.00
      0.8750000              1.0000000
F    1   1.00
      1.8500000              1.0000000
****
Al     0
S    6   1.00
  13983.1000000              0.00194267
   2098.7500000              0.0148599
    477.7050000              0.0728494
    134.3600000              0.2468300
     42.8709000              0.4872580
     14.5189000              0.3234960
SP   6   1.00
    239.6680000             -0.00292619             0.00460285
     57.4419000             -0.0374080              0.0331990
     18.2859000             -0.1144870              0.1362820
      6.5991400              0.1156350              0.3304760
      2.4904900              0.6125950              0.4491460
      0.9445400              0.3937990              0.2657040
SP   3   1.00
      1.2779000             -0.2276060             -0.0175130
      0.3975900              0.00144583             0.2445330
      0.1600950              1.0927900              0.8049340
SP   1   1.00
      0.0556577              1.0000000              1.0000000
D    1   1.00
      0.6500000              1.0000000
D    1   1.00
      0.1625000              1.0000000
F    1   1.00
      0.2500000              1.0000000
****
Si     0
S    6   1.00
  16115.9000000              0.00195948
   2425.5800000              0.01492880
    553.8670000              0.07284780
    156.3400000              0.24613000
     50.0683000              0.48591400
     17.0178000              0.32500200
SP   6   1.00
    292.7180000             -0.00278094             0.00443826
     69.8731000             -0.03571460             0.03266790
     22.3363000             -0.11498500             0.13472100
      8.1503900              0.09356340             0.32867800
      3.1345800              0.60301700             0.44964000
      1.2254300              0.41895900             0.26137200
SP   3   1.00
      1.7273800             -0.24463000            -0.01779510
      0.5729220              0.00431572             0.25353900
      0.2221920              1.09818000             0.80066900
SP   1   1.00
      0.0778369              1.00000000             1.00000000
D    1   1.00
      0.9000000              1.0000000
D    1   1.00
      0.2250000              1.0000000
F    1   1.00
      0.3200000              1.0000000
****
P     0
S    6   1.00
  19413.3000000              0.0018516
   2909.4200000              0.0142062
    661.3640000              0.0699995
    185.7590000              0.2400790
     59.1943000              0.4847620
     20.0310000              0.3352000
SP   6   1.00
    339.4780000             -0.00278217             0.00456462
     81.0101000             -0.0360499              0.03369360
     25.8780000             -0.1166310              0.13975500
      9.4522100              0.0968328              0.33936200
      3.6656600              0.6144180              0.45092100
      1.4674600              0.4037980              0.23858600
SP   3   1.00
      2.1562300             -0.2529230             -0.01776530
      0.7489970              0.0328517              0.27405800
      0.2831450              1.0812500              0.78542100
SP   1   1.00
      0.0998317              1.0000000              1.00000000
D    1   1.00
      1.1000000              1.0000000
D    1   1.00
      0.2750000              1.0000000
F    1   1.00
      0.4500000              1.0000000
****
S     0
S    6   1.00
  21917.1000000              0.0018690
   3301.4900000              0.0142300
    754.1460000              0.0696960
    212.7110000              0.2384870
     67.9896000              0.4833070
     23.0515000              0.3380740
SP   6   1.00
    423.7350000             -0.0023767              0.0040610
    100.7100000             -0.0316930              0.0306810
     32.1599000             -0.1133170              0.1304520
     11.8079000              0.0560900              0.3272050
      4.6311000              0.5922550              0.4528510
      1.8702500              0.4550060              0.2560420
SP   3   1.00
      2.6158400             -0.2503740             -0.0145110
      0.9221670              0.0669570              0.3102630
      0.3412870              1.0545100              0.7544830
SP   1   1.00
      0.1171670              1.0000000              1.0000000
D    1   1.00
      1.3000000              1.0000000
D    1   1.00
      0.3250000              1.0000000
F    1   1.00
      0.5500000              1.0000000
****
Cl     0
S    6   1.00
  25180.1000000              0.0018330
   3780.3500000              0.0140340
    860.4740000              0.0690970
    242.1450000              0.2374520
     77.3349000              0.4830340
     26.2470000              0.3398560
SP   6   1.00
    491.7650000             -0.0022974              0.0039894
    116.9840000             -0.0307140              0.0303180
     37.4153000             -0.1125280              0.1298800
     13.7834000              0.0450160              0.3279510
      5.4521500              0.5893530              0.4535270
      2.2258800              0.4652060              0.2521540
SP   3   1.00
      3.1864900             -0.2518300             -0.0142990
      1.1442700              0.0615890              0.3235720
      0.4203770              1.0601800              0.7435070
SP   1   1.00
      0.1426570              1.0000000              1.0000000
D    1   1.00
      1.5000000              1.0000000
D    1   1.00
      0.3750000              1.0000000
F    1   1.00
      0.7000000              1.0000000
****
}

set {
reference uhf
freeze_core true
e_convergence 10
d_convergence 10
dft_spherical_points 1202
dft_radial_points 99
}

e = energy('b3lyp')

print_out('Grab this energy {0}'.format(e))
--------------------------------------------------------------------------

    Molecular point group: cs

    Geometry (in Bohr), charge = 0, multiplicity = 2:

       Center              X                  Y                   Z               Mass
    ------------   -----------------  -----------------  -----------------  -----------------
         C           -0.323244620174     0.001959335172     0.000000000000    12.000000000000
         C            0.061462451626    -1.399899154428    -2.426044603100    12.000000000000
         C            0.060150396026     2.798400179772     0.000000000000    12.000000000000
         C            0.061462451626    -1.399899154428     2.426044603100    12.000000000000
         H            2.088273672926    -1.647124937528    -2.846065929800     1.007825032230
         H           -0.760691219174    -0.388606310128    -4.030649409600     1.007825032230
         H           -0.768402748874    -3.289475173528    -2.350045461900     1.007825032230
         H            2.084281010326     3.288952282472     0.000000000000     1.007825032230
         H           -0.766834164874     3.677389187572     1.676636006500     1.007825032230
         H           -0.766834164874     3.677389187572    -1.676636006500     1.007825032230
         H            2.088273672926    -1.647124937528     2.846065929800     1.007825032230
         H           -0.768402748874    -3.289475173528     2.350045461900     1.007825032230
         H           -0.760691219174    -0.388606310128     4.030649409600     1.007825032230

  Charge       = 0
  Multiplicity = 2
  Basis Set: ANONYMOUS97D5B369
    Blend: 6-31G_2DFP_
  Basis Set: (ANONYMOUS97D5B369 AUX)
    Blend: DEF2-UNIVERSAL-JKFIT

    Orbital Energies [Eh]
    ---------------------

    Alpha Occupied:

       1Ap   -10.180290     1App  -10.167191     2Ap   -10.167162
       3Ap   -10.166850     4Ap    -0.798024     5Ap    -0.686339
       2App   -0.686053     6Ap    -0.530942     7Ap    -0.441135
       3App   -0.434812     8Ap    -0.434667     9Ap    -0.382506
       4App   -0.382416     5App   -0.363409    10Ap    -0.338307
       6App   -0.338009    11Ap    -0.168981

    Alpha Virtual:

      12Ap     0.076065     7App    0.134036    13Ap     0.134160
      14Ap     0.142481     8App    0.142507    15Ap     0.154985
      16Ap     0.178608     9App    0.178615    17Ap     0.203837
      10App    0.214678    11App    0.275891    18Ap     0.276563
      19Ap     0.399215    12App    0.399218    20Ap     0.403265
      13App    0.424010    21Ap     0.424079    22Ap     0.456775
      23Ap     0.495329    14App    0.495431    15App    0.512105
      24Ap     0.513921    16App    0.578591    25Ap     0.578952
      17App    0.591305    26Ap     0.591766    27Ap     0.602531
      28Ap     0.624642    18App    0.631541    19App    0.636216
      29Ap     0.636400    20App    0.663324    30Ap     0.663731
      31Ap     0.683816    21App    0.683859    32Ap     0.734863
      22App    0.825396    33Ap     0.825461    23App    0.854052
      24App    0.914852    34Ap     0.915119    25App    0.944169
      35Ap     0.944925    26App    0.961180    36Ap     0.961274
      37Ap     1.003285    38Ap     1.128117    27App    1.128234
      39Ap     1.142626    40Ap     1.162557    28App    1.162792
      41Ap     1.223754    29App    1.274437    42Ap     1.274797
      43Ap     1.279524    30App    1.324435    44Ap     1.324679
      45Ap     1.356334    31App    1.365887    46Ap     1.366495
      32App    1.391952    33App    1.403008    47Ap     1.403656
      34App    1.416832    48Ap     1.417360    35App    1.427666
      36App    1.492016    49Ap     1.498500    37App    1.542851
      50Ap     1.543124    51Ap     1.574323    38App    1.574771
      52Ap     1.669046    39App    1.739661    53Ap     1.740178
      54Ap     1.768290    40App    1.830550    55Ap     1.831385
      41App    1.972328    56Ap     2.018028    42App    2.019770
      57Ap     2.019852    43App    2.052097    58Ap     2.054069
      44App    2.738603    59Ap     2.738713    60Ap     2.791152
      45App    2.811509    46App    2.889649    61Ap     2.890413
      62Ap     2.895407    63Ap     2.929165    47App    2.929515
      48App    2.958944    64Ap     2.964077    49App    2.964619
      65Ap     3.034182    50App    3.070930    66Ap     3.071536
      51App    3.084753    52App    3.168840    67Ap     3.168903
      68Ap     3.181208    53App    3.284937    69Ap     3.285029
      54App    3.326965    70Ap     3.327841    71Ap     3.375520
      55App    3.489998    72Ap     3.490495    56App    3.514149
      73Ap     3.525661    57App    3.567797    74Ap     3.569484
      58App    3.575009    75Ap     3.665361    59App    3.665790
      76Ap     3.679107    60App    3.693700    77Ap     3.694360
      78Ap     3.775480    61App    3.778201    79Ap     3.788872
      62App    3.912841    80Ap     3.913819    81Ap     4.035011
      63App    4.110068    82Ap     4.112118    64App    4.147567
      83Ap     4.148675    84Ap     4.173927    65App    4.203250
      85Ap     4.203368    86Ap     4.204380    66App    4.211229
      67App    4.315324    87Ap     4.316344    68App    4.358341
      88Ap     4.422787    69App    4.423776    70App    4.441476
      71App    4.516419    89Ap     4.517931    72App    4.578329
      90Ap     4.579632    91Ap     4.617907    92Ap     4.710735
      93Ap     4.774809    73App    4.776003    74App    4.838236
      94Ap     4.961539    75App    5.001444    95Ap     5.002722
      96Ap     5.227501    97Ap     5.246414    76App    5.246649
      77App    5.354713    98Ap     5.356627    78App    5.480570

    Beta Occupied:

       1App  -10.167945     1Ap   -10.167927     2Ap   -10.167615
       3Ap   -10.166478     4Ap    -0.781334     5Ap    -0.684124
       2App   -0.683861     6Ap    -0.511959     3App   -0.431171
       7Ap    -0.431012     8Ap    -0.421790     9Ap    -0.376564
       4App   -0.376498     5App   -0.362389    10Ap    -0.333445
       6App   -0.333146

    Beta Virtual:

      11Ap    -0.025912    12Ap     0.077077     7App    0.134930
      13Ap     0.135063    14Ap     0.144343     8App    0.144390
      15Ap     0.163486     9App    0.182294    16Ap     0.182303
      10App    0.214909    17Ap     0.219170    11App    0.282229
      18Ap     0.282880    19Ap     0.400395    12App    0.400399
      20Ap     0.419710    13App    0.426810    21Ap     0.426905
      22Ap     0.468760    23Ap     0.497604    14App    0.497691
      15App    0.513849    24Ap     0.556234    16App    0.584127
      25Ap     0.584515    17App    0.597497    26Ap     0.597914
      27Ap     0.609948    28Ap     0.628055    18App    0.631703
      19App    0.639496    29Ap     0.639725    20App    0.666901
      30Ap     0.667285    31Ap     0.686475    21App    0.686493
      32Ap     0.757309    22App    0.830608    33Ap     0.830616
      23App    0.855418    24App    0.922816    34Ap     0.923091
      25App    0.946013    35Ap     0.953866    26App    0.966465
      36Ap     0.966619    37Ap     1.008515    38Ap     1.132087
      27App    1.132310    39Ap     1.156037    40Ap     1.167688
      28App    1.167789    41Ap     1.232669    29App    1.280061
      42Ap     1.280429    43Ap     1.285257    30App    1.329460
      44Ap     1.329678    45Ap     1.365760    31App    1.371105
      46Ap     1.371637    32App    1.393018    33App    1.406479
      47Ap     1.407181    34App    1.421889    48Ap     1.422405
      35App    1.427925    36App    1.493077    49Ap     1.508965
      37App    1.547312    50Ap     1.547523    51Ap     1.582221
      38App    1.582581    52Ap     1.673888    39App    1.745406
      53Ap     1.745950    54Ap     1.779110    40App    1.834423
      55Ap     1.835273    41App    1.973194    42App    2.026187
      56Ap     2.026298    57Ap     2.039467    43App    2.058805
      58Ap     2.060716    44App    2.746880    59Ap     2.747046
      45App    2.811920    60Ap     2.816252    46App    2.902354
      61Ap     2.903054    62Ap     2.925079    63Ap     2.931701
      47App    2.932022    48App    2.960004    64Ap     2.968670
      49App    2.969178    65Ap     3.042159    50App    3.080926
      66Ap     3.081449    51App    3.086577    52App    3.184428
      67Ap     3.184583    68Ap     3.188907    53App    3.289782
      69Ap     3.289879    54App    3.330771    70Ap     3.331633
      71Ap     3.383371    55App    3.492717    72Ap     3.493255
      56App    3.512516    73Ap     3.528672    57App    3.574857
      58App    3.581105    74Ap     3.582721    75Ap     3.670068
      59App    3.670253    76Ap     3.692382    60App    3.725582
      77Ap     3.725950    78Ap     3.780136    61App    3.782743
      79Ap     3.817341    62App    3.922664    80Ap     3.923555
      81Ap     4.045820    63App    4.116980    82Ap     4.119029
      64App    4.154790    83Ap     4.155765    84Ap     4.188040
      65App    4.209175    85Ap     4.210063    86Ap     4.211638
      66App    4.215723    67App    4.322641    87Ap     4.323722
      68App    4.361725    88Ap     4.431094    69App    4.432027
      70App    4.444366    71App    4.524283    89Ap     4.525772
      72App    4.588946    90Ap     4.590251    91Ap     4.625124
      92Ap     4.721083    93Ap     4.781802    73App    4.782914
      74App    4.841150    94Ap     4.966356    75App    5.005487
      95Ap     5.006803    96Ap     5.233234    97Ap     5.248196
      76App    5.248454    77App    5.361201    98Ap     5.363158
      78App    5.482899

    Final Occupation by Irrep:
             Ap   App
    DOCC [    10,    6 ]
    SOCC [     1,    0 ]

  @DF-UKS Final Energy:  -157.81308931356736

   => Energetics <=

    Nuclear Repulsion Energy =            125.4225856426409962
    One-Electron Energy =                -458.8039290969278454
    Two-Electron Energy =                 195.8752822293359372
    DFT Exchange-Correlation Energy =     -20.3070280886164802
    Empirical Dispersion Energy =           0.0000000000000000
    VV10 Nonlocal Energy =                  0.0000000000000000
    Total Energy =                       -157.8130893135673603

  UHF NO Occupations:
  HONO-2 :    9 Ap 1.9995993
  HONO-1 :   10 Ap 1.9989827
  HONO-0 :   11 Ap 1.0000000
  LUNO+0 :   12 Ap 0.0010173
  LUNO+1 :   13 Ap 0.0004007
  LUNO+2 :    7App 0.0001973
  LUNO+3 :   14 Ap 0.0001962

Computation Completed

Properties will be evaluated at   0.000000,   0.000000,   0.000000 [a0]

Properties computed using the SCF density matrix

  Nuclear Dipole Moment: [e a0]
     X:     0.8280      Y:    -0.0033      Z:     0.0000

  Electronic Dipole Moment: [e a0]
     X:    -0.7502      Y:     0.0033      Z:     0.0000

  Dipole Moment: [e a0]
     X:     0.0778      Y:    -0.0000      Z:     0.0000     Total:     0.0778

  Dipole Moment: [D]
     X:     0.1977      Y:    -0.0001      Z:     0.0000     Total:     0.1977

*** tstop() called on n065 at Fri Nov  5 13:28:05 2021
Module time:
	user time   =     536.56 seconds =       8.94 minutes
	system time =      11.79 seconds =       0.20 minutes
	total time  =        138 seconds =       2.30 minutes
Total time:
	user time   =     536.56 seconds =       8.94 minutes
	system time =      11.79 seconds =       0.20 minutes
	total time  =        138 seconds =       2.30 minutes
Grab this energy -157.81308931356736
    Psi4 stopped on: Friday, 05 November 2021 01:28PM
    Psi4 wall time for execution: 0:02:17.91

*** Psi4 exiting successfully. Buy a developer a beer!
