                               Psi4 1.4a2.dev629

  ==> Input File <==

--------------------------------------------------------------------------
import os
memory 14 GB

molecule {
 C   -0.3233390147    0.0051173496   -0.0000000000
 C    0.0611298173   -1.3998296593   -2.4256412217
 C    0.0610398129    2.8040861765   -0.0000000000
 C    0.0611298173   -1.3998296593    2.4256412217
 H    2.0867762160   -1.6450324375   -2.8476429242
 H   -0.7660407900   -0.3889353235   -4.0250580199
 H   -0.7648578842   -3.2929943850   -2.3501413352
 H    2.0871140059    3.2868215936    0.0000000000
 H   -0.7657186994    3.6787670886    1.6770405529
 H   -0.7657186994    3.6787670886   -1.6770405529
 H    2.0867762160   -1.6450324375    2.8476429242
 H   -0.7648578842   -3.2929943850    2.3501413352
 H   -0.7660407900   -0.3889353235    4.0250580199
units bohr
0 2
}

basis {

assign 6-31g_2dfp_

[ 6-31g_2dfp_ ]

spherical

!----------------------------------------------------------------------
! Basis Set Exchange
! Version v0.8.13
! https://www.basissetexchange.org
!----------------------------------------------------------------------
!   Basis set: 6-31G(2df,p)
! Description: 6-31G(2df,p)
!        Role: orbital
!     Version: 0  (Data from the original Basis Set Exchange)
!----------------------------------------------------------------------

****
H     0
S    3   1.00
     18.7311370              0.03349460
      2.8253937              0.23472695
      0.6401217              0.81375733
S    1   1.00
      0.1612778              1.00000000
P    1   1.00
      1.5000000              1.0000000
P    1   1.00
      0.3750000              1.0000000
****
B     0
S    6   1.00
   2068.8823000              0.0018663
    310.6495700              0.0142515
     70.6830330              0.0695516
     19.8610800              0.2325729
      6.2993048              0.4670787
      2.1270270              0.3634314
SP   3   1.00
      4.7279710             -0.1303938              0.0745976
      1.1903377             -0.1307889              0.3078467
      0.3594117              1.1309444              0.7434568
SP   1   1.00
      0.1267512              1.0000000              1.0000000
D    1   1.00
      0.8020000              1.0000000
D    1   1.00
      0.2005000              1.0000000
F    1   1.00
      0.5000000              1.0000000
****
C     0
S    6   1.00
   3047.5249000              0.0018347
    457.3695100              0.0140373
    103.9486900              0.0688426
     29.2101550              0.2321844
      9.2866630              0.4679413
      3.1639270              0.3623120
SP   3   1.00
      7.8682724             -0.1193324              0.0689991
      1.8812885             -0.1608542              0.3164240
      0.5442493              1.1434564              0.7443083
SP   1   1.00
      0.1687144              1.0000000              1.0000000
D    1   1.00
      1.2520000              1.0000000
D    1   1.00
      0.3130000              1.0000000
F    1   1.00
      0.8000000              1.0000000
****
N     0
S    6   1.00
   4173.5110000              0.0018348
    627.4579000              0.0139950
    142.9021000              0.0685870
     40.2343300              0.2322410
     12.8202100              0.4690700
      4.3904370              0.3604550
SP   3   1.00
     11.6263580             -0.1149610              0.0675800
      2.7162800             -0.1691180              0.3239070
      0.7722180              1.1458520              0.7408950
SP   1   1.00
      0.2120313              1.0000000              1.0000000
D    1   1.00
      1.8260000              1.0000000
D    1   1.00
      0.4565000              1.0000000
F    1   1.00
      1.0000000              1.0000000
****
O     0
S    6   1.00
   5484.6717000              0.0018311
    825.2349500              0.0139501
    188.0469600              0.0684451
     52.9645000              0.2327143
     16.8975700              0.4701930
      5.7996353              0.3585209
SP   3   1.00
     15.5396160             -0.1107775              0.0708743
      3.5999336             -0.1480263              0.3397528
      1.0137618              1.1307670              0.7271586
SP   1   1.00
      0.2700058              1.0000000              1.0000000
D    1   1.00
      2.5840000              1.0000000
D    1   1.00
      0.6460000              1.0000000
F    1   1.00
      1.4000000              1.0000000
****
F     0
S    6   1.00
   7001.7130900              0.0018196169
   1051.3660900              0.0139160796
    239.2856900              0.0684053245
     67.3974453              0.233185760
     21.5199573              0.471267439
      7.40310130             0.356618546
SP   3   1.00
     20.8479528             -0.108506975            0.0716287243
      4.80830834            -0.146451658            0.3459121030
      1.34406986             1.128688580            0.7224699570
SP   1   1.00
      0.358151393            1.0000000              1.0000000
D    1   1.00
      3.5000000              1.0000000
D    1   1.00
      0.8750000              1.0000000
F    1   1.00
      1.8500000              1.0000000
****
Al     0
S    6   1.00
  13983.1000000              0.00194267
   2098.7500000              0.0148599
    477.7050000              0.0728494
    134.3600000              0.2468300
     42.8709000              0.4872580
     14.5189000              0.3234960
SP   6   1.00
    239.6680000             -0.00292619             0.00460285
     57.4419000             -0.0374080              0.0331990
     18.2859000             -0.1144870              0.1362820
      6.5991400              0.1156350              0.3304760
      2.4904900              0.6125950              0.4491460
      0.9445400              0.3937990              0.2657040
SP   3   1.00
      1.2779000             -0.2276060             -0.0175130
      0.3975900              0.00144583             0.2445330
      0.1600950              1.0927900              0.8049340
SP   1   1.00
      0.0556577              1.0000000              1.0000000
D    1   1.00
      0.6500000              1.0000000
D    1   1.00
      0.1625000              1.0000000
F    1   1.00
      0.2500000              1.0000000
****
Si     0
S    6   1.00
  16115.9000000              0.00195948
   2425.5800000              0.01492880
    553.8670000              0.07284780
    156.3400000              0.24613000
     50.0683000              0.48591400
     17.0178000              0.32500200
SP   6   1.00
    292.7180000             -0.00278094             0.00443826
     69.8731000             -0.03571460             0.03266790
     22.3363000             -0.11498500             0.13472100
      8.1503900              0.09356340             0.32867800
      3.1345800              0.60301700             0.44964000
      1.2254300              0.41895900             0.26137200
SP   3   1.00
      1.7273800             -0.24463000            -0.01779510
      0.5729220              0.00431572             0.25353900
      0.2221920              1.09818000             0.80066900
SP   1   1.00
      0.0778369              1.00000000             1.00000000
D    1   1.00
      0.9000000              1.0000000
D    1   1.00
      0.2250000              1.0000000
F    1   1.00
      0.3200000              1.0000000
****
P     0
S    6   1.00
  19413.3000000              0.0018516
   2909.4200000              0.0142062
    661.3640000              0.0699995
    185.7590000              0.2400790
     59.1943000              0.4847620
     20.0310000              0.3352000
SP   6   1.00
    339.4780000             -0.00278217             0.00456462
     81.0101000             -0.0360499              0.03369360
     25.8780000             -0.1166310              0.13975500
      9.4522100              0.0968328              0.33936200
      3.6656600              0.6144180              0.45092100
      1.4674600              0.4037980              0.23858600
SP   3   1.00
      2.1562300             -0.2529230             -0.01776530
      0.7489970              0.0328517              0.27405800
      0.2831450              1.0812500              0.78542100
SP   1   1.00
      0.0998317              1.0000000              1.00000000
D    1   1.00
      1.1000000              1.0000000
D    1   1.00
      0.2750000              1.0000000
F    1   1.00
      0.4500000              1.0000000
****
S     0
S    6   1.00
  21917.1000000              0.0018690
   3301.4900000              0.0142300
    754.1460000              0.0696960
    212.7110000              0.2384870
     67.9896000              0.4833070
     23.0515000              0.3380740
SP   6   1.00
    423.7350000             -0.0023767              0.0040610
    100.7100000             -0.0316930              0.0306810
     32.1599000             -0.1133170              0.1304520
     11.8079000              0.0560900              0.3272050
      4.6311000              0.5922550              0.4528510
      1.8702500              0.4550060              0.2560420
SP   3   1.00
      2.6158400             -0.2503740             -0.0145110
      0.9221670              0.0669570              0.3102630
      0.3412870              1.0545100              0.7544830
SP   1   1.00
      0.1171670              1.0000000              1.0000000
D    1   1.00
      1.3000000              1.0000000
D    1   1.00
      0.3250000              1.0000000
F    1   1.00
      0.5500000              1.0000000
****
Cl     0
S    6   1.00
  25180.1000000              0.0018330
   3780.3500000              0.0140340
    860.4740000              0.0690970
    242.1450000              0.2374520
     77.3349000              0.4830340
     26.2470000              0.3398560
SP   6   1.00
    491.7650000             -0.0022974              0.0039894
    116.9840000             -0.0307140              0.0303180
     37.4153000             -0.1125280              0.1298800
     13.7834000              0.0450160              0.3279510
      5.4521500              0.5893530              0.4535270
      2.2258800              0.4652060              0.2521540
SP   3   1.00
      3.1864900             -0.2518300             -0.0142990
      1.1442700              0.0615890              0.3235720
      0.4203770              1.0601800              0.7435070
SP   1   1.00
      0.1426570              1.0000000              1.0000000
D    1   1.00
      1.5000000              1.0000000
D    1   1.00
      0.3750000              1.0000000
F    1   1.00
      0.7000000              1.0000000
****
}

set {
reference uhf
freeze_core true
e_convergence 10
d_convergence 10
dft_spherical_points 1202
dft_radial_points 99
}

e = energy('b3lyp')

print_out('Grab this energy {0}'.format(e))
--------------------------------------------------------------------------

    Molecular point group: cs

    Geometry (in Bohr), charge = 0, multiplicity = 2:

       Center              X                  Y                   Z               Mass
    ------------   -----------------  -----------------  -----------------  -----------------
         C           -0.323339095145     0.003279495856     0.000000000000    12.000000000000
         C            0.061129736855    -1.401667513044    -2.425641221700    12.000000000000
         C            0.061039732455     2.802248322756     0.000000000000    12.000000000000
         C            0.061129736855    -1.401667513044     2.425641221700    12.000000000000
         H            2.086776135555    -1.646870291244    -2.847642924200     1.007825032230
         H           -0.766040870445    -0.390773177244    -4.025058019900     1.007825032230
         H           -0.764857964645    -3.294832238744    -2.350141335200     1.007825032230
         H            2.087113925455     3.284983739856     0.000000000000     1.007825032230
         H           -0.765718779845     3.676929234856     1.677040552900     1.007825032230
         H           -0.765718779845     3.676929234856    -1.677040552900     1.007825032230
         H            2.086776135555    -1.646870291244     2.847642924200     1.007825032230
         H           -0.764857964645    -3.294832238744     2.350141335200     1.007825032230
         H           -0.766040870445    -0.390773177244     4.025058019900     1.007825032230

  Charge       = 0
  Multiplicity = 2
  Basis Set: ANONYMOUSFAF35DE7
    Blend: 6-31G_2DFP_
  Basis Set: (ANONYMOUSFAF35DE7 AUX)
    Blend: DEF2-UNIVERSAL-JKFIT

    Orbital Energies [Eh]
    ---------------------

    Alpha Occupied:

       1Ap   -10.180342     1App  -10.167068     2Ap   -10.167042
       3Ap   -10.166935     4Ap    -0.797767     5Ap    -0.686398
       2App   -0.685974     6Ap    -0.530775     7Ap    -0.441129
       3App   -0.434968     8Ap    -0.434371     9Ap    -0.382805
       4App   -0.382394     5App   -0.363611    10Ap    -0.338311
       6App   -0.337684    11Ap    -0.168961

    Alpha Virtual:

      12Ap     0.076073     7App    0.134153    13Ap     0.134159
       8App    0.142516    14Ap     0.142739    15Ap     0.154879
       9App    0.178689    16Ap     0.178867    17Ap     0.203546
      10App    0.214803    11App    0.275920    18Ap     0.276048
      12App    0.399117    19Ap     0.399341    20Ap     0.403344
      21Ap     0.424054    13App    0.424143    22Ap     0.456593
      14App    0.495364    23Ap     0.495415    15App    0.512160
      24Ap     0.513978    16App    0.578664    25Ap     0.578971
      17App    0.591578    26Ap     0.591695    27Ap     0.602572
      28Ap     0.624758    18App    0.631768    29Ap     0.636241
      19App    0.636266    30Ap     0.663283    20App    0.663540
      31Ap     0.683822    21App    0.683882    32Ap     0.734993
      22App    0.825244    33Ap     0.825571    23App    0.853916
      34Ap     0.914891    24App    0.915152    25App    0.944126
      35Ap     0.944620    26App    0.961077    36Ap     0.961509
      37Ap     1.003451    27App    1.127947    38Ap     1.128186
      39Ap     1.142323    28App    1.163170    40Ap     1.163356
      41Ap     1.223333    42Ap     1.273696    29App    1.275266
      43Ap     1.279384    30App    1.324326    44Ap     1.324390
      45Ap     1.355988    31App    1.365934    46Ap     1.366181
      32App    1.392458    33App    1.403820    47Ap     1.404275
      48Ap     1.416636    34App    1.417572    35App    1.427915
      36App    1.491492    49Ap     1.499081    50Ap     1.542761
      37App    1.542894    51Ap     1.574230    38App    1.574665
      52Ap     1.669824    39App    1.739083    53Ap     1.739761
      54Ap     1.768305    40App    1.830625    55Ap     1.832166
      41App    1.971739    56Ap     2.017905    57Ap     2.018347
      42App    2.020158    58Ap     2.052494    43App    2.052790
      44App    2.738127    59Ap     2.738847    60Ap     2.790923
      45App    2.811423    46App    2.889473    61Ap     2.890428
      62Ap     2.894944    47App    2.929170    63Ap     2.929819
      48App    2.958994    64Ap     2.964137    49App    2.964618
      65Ap     3.034003    50App    3.070638    66Ap     3.071937
      51App    3.084353    67Ap     3.168513    52App    3.169046
      68Ap     3.180592    53App    3.285028    69Ap     3.285605
      70Ap     3.326584    54App    3.327729    71Ap     3.375612
      55App    3.489953    72Ap     3.490351    56App    3.513997
      73Ap     3.525343    74Ap     3.568089    57App    3.568697
      58App    3.575157    59App    3.666012    75Ap     3.666717
      76Ap     3.679658    60App    3.694014    77Ap     3.694250
      61App    3.776266    78Ap     3.777314    79Ap     3.789155
      80Ap     3.911949    62App    3.912514    81Ap     4.034436
      63App    4.111198    82Ap     4.111526    64App    4.147446
      83Ap     4.148823    84Ap     4.173242    85Ap     4.202595
      65App    4.203048    86Ap     4.203170    66App    4.210859
      87Ap     4.315806    67App    4.316123    68App    4.358960
      88Ap     4.423583    69App    4.425140    70App    4.443623
      89Ap     4.516318    71App    4.517379    90Ap     4.577903
      72App    4.578429    91Ap     4.617729    92Ap     4.709450
      73App    4.773693    93Ap     4.775481    74App    4.836921
      94Ap     4.962723    75App    5.002499    95Ap     5.003551
      96Ap     5.228038    97Ap     5.246649    76App    5.246975
      77App    5.355009    98Ap     5.355994    78App    5.479340

    Beta Occupied:

       1App  -10.167821     1Ap   -10.167805     2Ap   -10.167698
       3Ap   -10.166520     4Ap    -0.781092     5Ap    -0.684195
       2App   -0.683783     6Ap    -0.511746     3App   -0.431337
       7Ap    -0.430750     8Ap    -0.421820     9Ap    -0.376868
       4App   -0.376500     5App   -0.362594    10Ap    -0.333443
       6App   -0.332799

    Beta Virtual:

      11Ap    -0.025742    12Ap     0.077081    13Ap     0.135045
       7App    0.135047     8App    0.144380    14Ap     0.144615
      15Ap     0.163338     9App    0.182361    16Ap     0.182538
      10App    0.215033    17Ap     0.218928    11App    0.282293
      18Ap     0.282371    12App    0.400286    19Ap     0.400511
      20Ap     0.419791    21Ap     0.426875    13App    0.426944
      22Ap     0.468501    14App    0.497628    23Ap     0.497672
      15App    0.513896    24Ap     0.556323    16App    0.584196
      25Ap     0.584540    17App    0.597748    26Ap     0.597883
      27Ap     0.609997    28Ap     0.628132    18App    0.631927
      19App    0.639530    29Ap     0.639546    30Ap     0.666847
      20App    0.667103    31Ap     0.686443    21App    0.686531
      32Ap     0.757517    22App    0.830412    33Ap     0.830740
      23App    0.855269    34Ap     0.922833    24App    0.923152
      25App    0.945963    35Ap     0.953547    26App    0.966378
      36Ap     0.966822    37Ap     1.008691    27App    1.131994
      38Ap     1.132239    39Ap     1.155657    28App    1.168267
      40Ap     1.168406    41Ap     1.232304    42Ap     1.279349
      29App    1.280815    43Ap     1.285131    30App    1.329313
      44Ap     1.329382    45Ap     1.365405    31App    1.371198
      46Ap     1.371403    32App    1.393515    33App    1.407283
      47Ap     1.407744    48Ap     1.421713    34App    1.422595
      35App    1.428186    36App    1.492540    49Ap     1.509525
      50Ap     1.547165    37App    1.547305    51Ap     1.582125
      38App    1.582514    52Ap     1.674671    39App    1.744837
      53Ap     1.745531    54Ap     1.779084    40App    1.834475
      55Ap     1.836027    41App    1.972598    56Ap     2.024349
      42App    2.026555    57Ap     2.039684    58Ap     2.059195
      43App    2.059518    44App    2.746454    59Ap     2.747191
      45App    2.811835    60Ap     2.816059    46App    2.902225
      61Ap     2.903054    62Ap     2.924649    47App    2.931582
      63Ap     2.932371    48App    2.960056    64Ap     2.968669
      49App    2.969174    65Ap     3.041938    50App    3.080629
      66Ap     3.081762    51App    3.086171    67Ap     3.184332
      52App    3.184723    68Ap     3.188280    53App    3.289841
      69Ap     3.290389    70Ap     3.330395    54App    3.331527
      71Ap     3.383430    55App    3.492696    72Ap     3.493068
      56App    3.512365    73Ap     3.528388    57App    3.574989
      74Ap     3.581459    58App    3.582033    59App    3.670650
      75Ap     3.671576    76Ap     3.692962    77Ap     3.725750
      60App    3.725764    61App    3.780843    78Ap     3.781814
      79Ap     3.817670    80Ap     3.921821    62App    3.922283
      81Ap     4.045322    63App    4.118160    82Ap     4.118199
      64App    4.154582    83Ap     4.156099    84Ap     4.187304
      85Ap     4.209006    65App    4.209006    86Ap     4.210644
      66App    4.215331    87Ap     4.323281    67App    4.323526
      68App    4.362324    88Ap     4.431827    69App    4.433250
      70App    4.446584    89Ap     4.524161    71App    4.525116
      90Ap     4.588477    72App    4.589043    91Ap     4.624935
      92Ap     4.719796    73App    4.780629    93Ap     4.782452
      74App    4.839837    94Ap     4.967514    75App    5.006538
      95Ap     5.007594    96Ap     5.233754    97Ap     5.248435
      76App    5.248757    77App    5.361484    98Ap     5.362479
      78App    5.481662

    Final Occupation by Irrep:
             Ap   App
    DOCC [    10,    6 ]
    SOCC [     1,    0 ]

  @DF-UKS Final Energy:  -157.81306725362717

   => Energetics <=

    Nuclear Repulsion Energy =            125.3946086851528179
    One-Electron Energy =                -458.7488776077441344
    Two-Electron Energy =                 195.8483440775715394
    DFT Exchange-Correlation Energy =     -20.3071424086074082
    Empirical Dispersion Energy =           0.0000000000000000
    VV10 Nonlocal Energy =                  0.0000000000000000
    Total Energy =                       -157.8130672536271675

  UHF NO Occupations:
  HONO-2 :    9 Ap 1.9996009
  HONO-1 :   10 Ap 1.9989805
  HONO-0 :   11 Ap 1.0000000
  LUNO+0 :   12 Ap 0.0010195
  LUNO+1 :   13 Ap 0.0003991
  LUNO+2 :    7App 0.0001982
  LUNO+3 :   14 Ap 0.0001969

Computation Completed

Properties will be evaluated at   0.000000,   0.000000,   0.000000 [a0]

Properties computed using the SCF density matrix

  Nuclear Dipole Moment: [e a0]
     X:     0.8272      Y:    -0.0130      Z:     0.0000

  Electronic Dipole Moment: [e a0]
     X:    -0.7493      Y:     0.0142      Z:     0.0000

  Dipole Moment: [e a0]
     X:     0.0779      Y:     0.0013      Z:     0.0000     Total:     0.0779

  Dipole Moment: [D]
     X:     0.1980      Y:     0.0033      Z:     0.0000     Total:     0.1981

*** tstop() called on n083 at Fri Nov  5 12:55:52 2021
Module time:
	user time   =     493.11 seconds =       8.22 minutes
	system time =       4.69 seconds =       0.08 minutes
	total time  =        125 seconds =       2.08 minutes
Total time:
	user time   =     493.11 seconds =       8.22 minutes
	system time =       4.69 seconds =       0.08 minutes
	total time  =        125 seconds =       2.08 minutes
Grab this energy -157.81306725362717
    Psi4 stopped on: Friday, 05 November 2021 12:55PM
    Psi4 wall time for execution: 0:02:05.21

*** Psi4 exiting successfully. Buy a developer a beer!
