                               Psi4 1.4a2.dev629

  ==> Input File <==

--------------------------------------------------------------------------
import os
memory 14 GB

molecule {
 C   -0.3233410361   -0.0004993188   -0.0019984476
 C    0.0603171213   -1.4003244072   -2.4259108579
 C    0.0623950918    2.8016623439   -0.0011573566
 C    0.0605860942   -1.4020541704    2.4266027978
 H    2.0891904019   -1.6403460137   -2.8447313229
 H   -0.7676437131   -0.3919883370   -4.0272684195
 H   -0.7643607590   -3.2886915973   -2.3474408208
 H    2.0826711723    3.2885902304   -0.0040876415
 H   -0.7623584877    3.6745704897    1.6804117790
 H   -0.7651091865    3.6858347643   -1.6788266529
 H    2.0888025830   -1.6478712236    2.8495702404
 H   -0.7666094484   -3.2917670106    2.3517085963
 H   -0.7671477105   -0.3871400631    4.0231281061
units bohr
0 2
}

basis {

assign 6-31g_2dfp_

[ 6-31g_2dfp_ ]

spherical

!----------------------------------------------------------------------
! Basis Set Exchange
! Version v0.8.13
! https://www.basissetexchange.org
!----------------------------------------------------------------------
!   Basis set: 6-31G(2df,p)
! Description: 6-31G(2df,p)
!        Role: orbital
!     Version: 0  (Data from the original Basis Set Exchange)
!----------------------------------------------------------------------

****
H     0
S    3   1.00
     18.7311370              0.03349460
      2.8253937              0.23472695
      0.6401217              0.81375733
S    1   1.00
      0.1612778              1.00000000
P    1   1.00
      1.5000000              1.0000000
P    1   1.00
      0.3750000              1.0000000
****
B     0
S    6   1.00
   2068.8823000              0.0018663
    310.6495700              0.0142515
     70.6830330              0.0695516
     19.8610800              0.2325729
      6.2993048              0.4670787
      2.1270270              0.3634314
SP   3   1.00
      4.7279710             -0.1303938              0.0745976
      1.1903377             -0.1307889              0.3078467
      0.3594117              1.1309444              0.7434568
SP   1   1.00
      0.1267512              1.0000000              1.0000000
D    1   1.00
      0.8020000              1.0000000
D    1   1.00
      0.2005000              1.0000000
F    1   1.00
      0.5000000              1.0000000
****
C     0
S    6   1.00
   3047.5249000              0.0018347
    457.3695100              0.0140373
    103.9486900              0.0688426
     29.2101550              0.2321844
      9.2866630              0.4679413
      3.1639270              0.3623120
SP   3   1.00
      7.8682724             -0.1193324              0.0689991
      1.8812885             -0.1608542              0.3164240
      0.5442493              1.1434564              0.7443083
SP   1   1.00
      0.1687144              1.0000000              1.0000000
D    1   1.00
      1.2520000              1.0000000
D    1   1.00
      0.3130000              1.0000000
F    1   1.00
      0.8000000              1.0000000
****
N     0
S    6   1.00
   4173.5110000              0.0018348
    627.4579000              0.0139950
    142.9021000              0.0685870
     40.2343300              0.2322410
     12.8202100              0.4690700
      4.3904370              0.3604550
SP   3   1.00
     11.6263580             -0.1149610              0.0675800
      2.7162800             -0.1691180              0.3239070
      0.7722180              1.1458520              0.7408950
SP   1   1.00
      0.2120313              1.0000000              1.0000000
D    1   1.00
      1.8260000              1.0000000
D    1   1.00
      0.4565000              1.0000000
F    1   1.00
      1.0000000              1.0000000
****
O     0
S    6   1.00
   5484.6717000              0.0018311
    825.2349500              0.0139501
    188.0469600              0.0684451
     52.9645000              0.2327143
     16.8975700              0.4701930
      5.7996353              0.3585209
SP   3   1.00
     15.5396160             -0.1107775              0.0708743
      3.5999336             -0.1480263              0.3397528
      1.0137618              1.1307670              0.7271586
SP   1   1.00
      0.2700058              1.0000000              1.0000000
D    1   1.00
      2.5840000              1.0000000
D    1   1.00
      0.6460000              1.0000000
F    1   1.00
      1.4000000              1.0000000
****
F     0
S    6   1.00
   7001.7130900              0.0018196169
   1051.3660900              0.0139160796
    239.2856900              0.0684053245
     67.3974453              0.233185760
     21.5199573              0.471267439
      7.40310130             0.356618546
SP   3   1.00
     20.8479528             -0.108506975            0.0716287243
      4.80830834            -0.146451658            0.3459121030
      1.34406986             1.128688580            0.7224699570
SP   1   1.00
      0.358151393            1.0000000              1.0000000
D    1   1.00
      3.5000000              1.0000000
D    1   1.00
      0.8750000              1.0000000
F    1   1.00
      1.8500000              1.0000000
****
Al     0
S    6   1.00
  13983.1000000              0.00194267
   2098.7500000              0.0148599
    477.7050000              0.0728494
    134.3600000              0.2468300
     42.8709000              0.4872580
     14.5189000              0.3234960
SP   6   1.00
    239.6680000             -0.00292619             0.00460285
     57.4419000             -0.0374080              0.0331990
     18.2859000             -0.1144870              0.1362820
      6.5991400              0.1156350              0.3304760
      2.4904900              0.6125950              0.4491460
      0.9445400              0.3937990              0.2657040
SP   3   1.00
      1.2779000             -0.2276060             -0.0175130
      0.3975900              0.00144583             0.2445330
      0.1600950              1.0927900              0.8049340
SP   1   1.00
      0.0556577              1.0000000              1.0000000
D    1   1.00
      0.6500000              1.0000000
D    1   1.00
      0.1625000              1.0000000
F    1   1.00
      0.2500000              1.0000000
****
Si     0
S    6   1.00
  16115.9000000              0.00195948
   2425.5800000              0.01492880
    553.8670000              0.07284780
    156.3400000              0.24613000
     50.0683000              0.48591400
     17.0178000              0.32500200
SP   6   1.00
    292.7180000             -0.00278094             0.00443826
     69.8731000             -0.03571460             0.03266790
     22.3363000             -0.11498500             0.13472100
      8.1503900              0.09356340             0.32867800
      3.1345800              0.60301700             0.44964000
      1.2254300              0.41895900             0.26137200
SP   3   1.00
      1.7273800             -0.24463000            -0.01779510
      0.5729220              0.00431572             0.25353900
      0.2221920              1.09818000             0.80066900
SP   1   1.00
      0.0778369              1.00000000             1.00000000
D    1   1.00
      0.9000000              1.0000000
D    1   1.00
      0.2250000              1.0000000
F    1   1.00
      0.3200000              1.0000000
****
P     0
S    6   1.00
  19413.3000000              0.0018516
   2909.4200000              0.0142062
    661.3640000              0.0699995
    185.7590000              0.2400790
     59.1943000              0.4847620
     20.0310000              0.3352000
SP   6   1.00
    339.4780000             -0.00278217             0.00456462
     81.0101000             -0.0360499              0.03369360
     25.8780000             -0.1166310              0.13975500
      9.4522100              0.0968328              0.33936200
      3.6656600              0.6144180              0.45092100
      1.4674600              0.4037980              0.23858600
SP   3   1.00
      2.1562300             -0.2529230             -0.01776530
      0.7489970              0.0328517              0.27405800
      0.2831450              1.0812500              0.78542100
SP   1   1.00
      0.0998317              1.0000000              1.00000000
D    1   1.00
      1.1000000              1.0000000
D    1   1.00
      0.2750000              1.0000000
F    1   1.00
      0.4500000              1.0000000
****
S     0
S    6   1.00
  21917.1000000              0.0018690
   3301.4900000              0.0142300
    754.1460000              0.0696960
    212.7110000              0.2384870
     67.9896000              0.4833070
     23.0515000              0.3380740
SP   6   1.00
    423.7350000             -0.0023767              0.0040610
    100.7100000             -0.0316930              0.0306810
     32.1599000             -0.1133170              0.1304520
     11.8079000              0.0560900              0.3272050
      4.6311000              0.5922550              0.4528510
      1.8702500              0.4550060              0.2560420
SP   3   1.00
      2.6158400             -0.2503740             -0.0145110
      0.9221670              0.0669570              0.3102630
      0.3412870              1.0545100              0.7544830
SP   1   1.00
      0.1171670              1.0000000              1.0000000
D    1   1.00
      1.3000000              1.0000000
D    1   1.00
      0.3250000              1.0000000
F    1   1.00
      0.5500000              1.0000000
****
Cl     0
S    6   1.00
  25180.1000000              0.0018330
   3780.3500000              0.0140340
    860.4740000              0.0690970
    242.1450000              0.2374520
     77.3349000              0.4830340
     26.2470000              0.3398560
SP   6   1.00
    491.7650000             -0.0022974              0.0039894
    116.9840000             -0.0307140              0.0303180
     37.4153000             -0.1125280              0.1298800
     13.7834000              0.0450160              0.3279510
      5.4521500              0.5893530              0.4535270
      2.2258800              0.4652060              0.2521540
SP   3   1.00
      3.1864900             -0.2518300             -0.0142990
      1.1442700              0.0615890              0.3235720
      0.4203770              1.0601800              0.7435070
SP   1   1.00
      0.1426570              1.0000000              1.0000000
D    1   1.00
      1.5000000              1.0000000
D    1   1.00
      0.3750000              1.0000000
F    1   1.00
      0.7000000              1.0000000
****
}

set {
reference uhf
freeze_core true
e_convergence 10
d_convergence 10
dft_spherical_points 1202
dft_radial_points 99
}

e = energy('b3lyp')

print_out('Grab this energy {0}'.format(e))
--------------------------------------------------------------------------

    Molecular point group: c1

    Geometry (in Bohr), charge = 0, multiplicity = 2:

       Center              X                  Y                   Z               Mass
    ------------   -----------------  -----------------  -----------------  -----------------
         C           -0.323340507593    -0.000264765275    -0.001523889588    12.000000000000
         C            0.060317649807    -1.400089853675    -2.425436299888    12.000000000000
         C            0.062395620307     2.801896897425    -0.000682798588    12.000000000000
         C            0.060586622707    -1.401819616875     2.427077355812    12.000000000000
         H            2.089190930407    -1.640111460175    -2.844256764888     1.007825032230
         H           -0.767643184593    -0.391753783475    -4.026793861488     1.007825032230
         H           -0.764360230493    -3.288457043775    -2.346966262788     1.007825032230
         H            2.082671700807     3.288824783925    -0.003613083488     1.007825032230
         H           -0.762357959193     3.674805043225     1.680886337012     1.007825032230
         H           -0.765108657993     3.686069317825    -1.678352094888     1.007825032230
         H            2.088803111507    -1.647636670075     2.850044798412     1.007825032230
         H           -0.766608919893    -3.291532457075     2.352183154312     1.007825032230
         H           -0.767147181993    -0.386905509575     4.023602664112     1.007825032230

  Charge       = 0
  Multiplicity = 2
  Basis Set: ANONYMOUS0A41D602
    Blend: 6-31G_2DFP_
  Basis Set: (ANONYMOUS0A41D602 AUX)
    Blend: DEF2-UNIVERSAL-JKFIT

    Orbital Energies [Eh]
    ---------------------

    Alpha Occupied:

       1A    -10.180342     2A    -10.167187     3A    -10.166990
       4A    -10.166867     5A     -0.797767     6A     -0.686309
       7A     -0.686066     8A     -0.530777     9A     -0.441131
      10A     -0.434738    11A     -0.434599    12A     -0.382641
      13A     -0.382555    14A     -0.363611    15A     -0.338072
      16A     -0.337924    17A     -0.168961

    Alpha Virtual:

      18A      0.076071    19A      0.133986    20A      0.134322
      21A      0.142537    22A      0.142712    23A      0.154881
      24A      0.178685    25A      0.178873    26A      0.203549
      27A      0.214805    28A      0.275707    29A      0.276264
      30A      0.399175    31A      0.399274    32A      0.403352
      33A      0.423997    34A      0.424199    35A      0.456592
      36A      0.495230    37A      0.495547    38A      0.512160
      39A      0.513981    40A      0.578480    41A      0.579150
      42A      0.591293    43A      0.591962    44A      0.602585
      45A      0.624758    46A      0.631756    47A      0.636162
      48A      0.636360    49A      0.663040    50A      0.663795
      51A      0.683680    52A      0.684030    53A      0.734995
      54A      0.825186    55A      0.825618    56A      0.853921
      57A      0.914758    58A      0.915279    59A      0.944122
      60A      0.944609    61A      0.960604    62A      0.961995
      63A      1.003462    64A      1.127882    65A      1.128320
      66A      1.142213    67A      1.163119    68A      1.163444
      69A      1.223327    70A      1.274277    71A      1.274684
      72A      1.279366    73A      1.324310    74A      1.324404
      75A      1.355962    76A      1.365882    77A      1.366214
      78A      1.392453    79A      1.403493    80A      1.404628
      81A      1.416466    82A      1.417769    83A      1.427911
      84A      1.491490    85A      1.499076    86A      1.542292
      87A      1.543385    88A      1.574284    89A      1.574604
      90A      1.669826    91A      1.739017    92A      1.739783
      93A      1.768349    94A      1.830459    95A      1.832341
      96A      1.971714    97A      2.017859    98A      2.018886
      99A      2.019654   100A      2.051409   101A      2.053901
     102A      2.737986   103A      2.738981   104A      2.790930
     105A      2.811414   106A      2.889698   107A      2.890145
     108A      2.895019   109A      2.929476   110A      2.929520
     111A      2.958997   112A      2.964020   113A      2.964730
     114A      3.034017   115A      3.071139   116A      3.071418
     117A      3.084365   118A      3.168477   119A      3.169090
     120A      3.180599   121A      3.284987   122A      3.285644
     123A      3.326762   124A      3.327551   125A      3.375628
     126A      3.489916   127A      3.490373   128A      3.514023
     129A      3.525304   130A      3.567984   131A      3.568729
     132A      3.575249   133A      3.665632   134A      3.667099
     135A      3.679618   136A      3.693717   137A      3.694594
     138A      3.775566   139A      3.778043   140A      3.789161
     141A      3.911946   142A      3.912524   143A      4.034433
     144A      4.110005   145A      4.112688   146A      4.147058
     147A      4.149101   148A      4.173270   149A      4.201716
     150A      4.203265   151A      4.203771   152A      4.210934
     153A      4.314825   154A      4.317110   155A      4.359034
     156A      4.424048   157A      4.424888   158A      4.443444
     159A      4.516016   160A      4.517661   161A      4.577916
     162A      4.578585   163A      4.617552   164A      4.709455
     165A      4.773462   166A      4.775726   167A      4.836948
     168A      4.962863   169A      5.002128   170A      5.003770
     171A      5.228004   172A      5.244683   173A      5.248929
     174A      5.354108   175A      5.356960   176A      5.479384

    Beta Occupied:

       1A    -10.167947     2A    -10.167747     3A    -10.167630
       4A    -10.166519     5A     -0.781092     6A     -0.684105
       7A     -0.683876     8A     -0.511749     9A     -0.431111
      10A     -0.430981    11A     -0.421816    12A     -0.376739
      13A     -0.376628    14A     -0.362595    15A     -0.333188
      16A     -0.333054

    Beta Virtual:

      17A     -0.025743    18A      0.077080    19A      0.134887
      20A      0.135202    21A      0.144423    22A      0.144568
      23A      0.163338    24A      0.182344    25A      0.182556
      26A      0.215034    27A      0.218931    28A      0.282064
      29A      0.282603    30A      0.400348    31A      0.400447
      32A      0.419788    33A      0.426809    34A      0.427012
      35A      0.468499    36A      0.497486    37A      0.497814
      38A      0.513895    39A      0.556325    40A      0.584036
      41A      0.584693    42A      0.597477    43A      0.598141
      44A      0.610004    45A      0.628136    46A      0.631921
      47A      0.639429    48A      0.639654    49A      0.666636
      50A      0.667329    51A      0.686328    52A      0.686652
      53A      0.757518    54A      0.830332    55A      0.830808
      56A      0.855275    57A      0.922758    58A      0.923220
      59A      0.945961    60A      0.953533    61A      0.965961
      62A      0.967256    63A      1.008703    64A      1.131839
      65A      1.132420    66A      1.155589    67A      1.168194
      68A      1.168517    69A      1.232299    70A      1.279867
      71A      1.280286    72A      1.285122    73A      1.329299
      74A      1.329393    75A      1.365373    76A      1.371156
      77A      1.371428    78A      1.393514    79A      1.406908
      80A      1.408144    81A      1.421505    82A      1.422832
      83A      1.428180    84A      1.492539    85A      1.509519
      86A      1.546711    87A      1.547778    88A      1.582172
      89A      1.582461    90A      1.674672    91A      1.744771
      92A      1.745560    93A      1.779121    94A      1.834310
      95A      1.836203    96A      1.972575    97A      2.024963
      98A      2.025919    99A      2.039688   100A      2.058137
     101A      2.060608   102A      2.746339   103A      2.747301
     104A      2.811827   105A      2.816063   106A      2.902437
     107A      2.902842   108A      2.924664   109A      2.931942
     110A      2.932015   111A      2.960059   112A      2.968560
     113A      2.969285   114A      3.041951   115A      3.080990
     116A      3.081365   117A      3.086202   118A      3.184111
     119A      3.184950   120A      3.188288   121A      3.289770
     122A      3.290457   123A      3.330569   124A      3.331354
     125A      3.383445   126A      3.492683   127A      3.493065
     128A      3.512393   129A      3.528357   130A      3.574896
     131A      3.581464   132A      3.582126   133A      3.670366
     134A      3.671901   135A      3.692918   136A      3.725586
     137A      3.725945   138A      3.780140   139A      3.782527
     140A      3.817703   141A      3.921769   142A      3.922333
     143A      4.045319   144A      4.116934   145A      4.119391
     146A      4.154271   147A      4.156320   148A      4.187312
     149A      4.208009   150A      4.209742   151A      4.210850
     152A      4.215413   153A      4.322248   154A      4.324557
     155A      4.362403   156A      4.432287   157A      4.433077
     158A      4.446330   159A      4.523809   160A      4.525447
     161A      4.588516   162A      4.589183   163A      4.624750
     164A      4.719799   165A      4.780456   166A      4.782640
     167A      4.839867   168A      4.967658   169A      5.006180
     170A      5.007798   171A      5.233718   172A      5.246477
     173A      5.250706   174A      5.360570   175A      5.363459
     176A      5.481705

    Final Occupation by Irrep:
              A
    DOCC [    16 ]
    SOCC [     1 ]

  @DF-UKS Final Energy:  -157.81305842837898

   => Energetics <=

    Nuclear Repulsion Energy =            125.3946573694291260
    One-Electron Energy =                -458.7489459656819690
    Two-Electron Energy =                 195.8483764527029791
    DFT Exchange-Correlation Energy =     -20.3071462848291269
    Empirical Dispersion Energy =           0.0000000000000000
    VV10 Nonlocal Energy =                  0.0000000000000000
    Total Energy =                       -157.8130584283789801

  UHF NO Occupations:
  HONO-2 :   15  A 1.9996008
  HONO-1 :   16  A 1.9989804
  HONO-0 :   17  A 1.0000000
  LUNO+0 :   18  A 0.0010196
  LUNO+1 :   19  A 0.0003992
  LUNO+2 :   20  A 0.0001979
  LUNO+3 :   21  A 0.0001972

Computation Completed

Properties will be evaluated at   0.000000,   0.000000,   0.000000 [a0]

Properties computed using the SCF density matrix

  Nuclear Dipole Moment: [e a0]
     X:     0.8272      Y:     0.0016      Z:     0.0033

  Electronic Dipole Moment: [e a0]
     X:    -0.7493      Y:    -0.0023      Z:    -0.0034

  Dipole Moment: [e a0]
     X:     0.0779      Y:    -0.0007      Z:    -0.0000     Total:     0.0779

  Dipole Moment: [D]
     X:     0.1980      Y:    -0.0017      Z:    -0.0001     Total:     0.1980

*** tstop() called on n079 at Fri Nov  5 14:18:23 2021
Module time:
	user time   =     495.29 seconds =       8.25 minutes
	system time =       4.46 seconds =       0.07 minutes
	total time  =        126 seconds =       2.10 minutes
Total time:
	user time   =     495.29 seconds =       8.25 minutes
	system time =       4.46 seconds =       0.07 minutes
	total time  =        126 seconds =       2.10 minutes
Grab this energy -157.81305842837898
    Psi4 stopped on: Friday, 05 November 2021 02:18PM
    Psi4 wall time for execution: 0:02:05.74

*** Psi4 exiting successfully. Buy a developer a beer!
