                               Psi4 1.4a2.dev629

  ==> Input File <==

--------------------------------------------------------------------------
import os
memory 14 GB

molecule {
 C   -0.3246653576   -0.0000020930    0.0000000000
 C    0.0602185860   -1.4036771936   -2.4312295790
 C    0.0600984905    2.8073585260   -0.0000000000
 C    0.0602185860   -1.4036771936    2.4312295790
 H    2.0905412416   -1.6476053090   -2.8535152632
 H   -0.7665259851   -0.3927975294   -4.0294774820
 H   -0.7666885237   -3.2931715929   -2.3549487956
 H    2.0904022306    3.2951174953   -0.0000000000
 H   -0.7667669389    3.6860025040    1.6745346327
 H   -0.7667669389    3.6860025040   -1.6745346327
 H    2.0905412416   -1.6476053090    2.8535152632
 H   -0.7666885237   -3.2931715929    2.3549487956
 H   -0.7665259851   -0.3927975294    4.0294774820
units bohr
0 2
}

basis {

assign 6-31g_2dfp_

[ 6-31g_2dfp_ ]

spherical

!----------------------------------------------------------------------
! Basis Set Exchange
! Version v0.8.13
! https://www.basissetexchange.org
!----------------------------------------------------------------------
!   Basis set: 6-31G(2df,p)
! Description: 6-31G(2df,p)
!        Role: orbital
!     Version: 0  (Data from the original Basis Set Exchange)
!----------------------------------------------------------------------

****
H     0
S    3   1.00
     18.7311370              0.03349460
      2.8253937              0.23472695
      0.6401217              0.81375733
S    1   1.00
      0.1612778              1.00000000
P    1   1.00
      1.5000000              1.0000000
P    1   1.00
      0.3750000              1.0000000
****
B     0
S    6   1.00
   2068.8823000              0.0018663
    310.6495700              0.0142515
     70.6830330              0.0695516
     19.8610800              0.2325729
      6.2993048              0.4670787
      2.1270270              0.3634314
SP   3   1.00
      4.7279710             -0.1303938              0.0745976
      1.1903377             -0.1307889              0.3078467
      0.3594117              1.1309444              0.7434568
SP   1   1.00
      0.1267512              1.0000000              1.0000000
D    1   1.00
      0.8020000              1.0000000
D    1   1.00
      0.2005000              1.0000000
F    1   1.00
      0.5000000              1.0000000
****
C     0
S    6   1.00
   3047.5249000              0.0018347
    457.3695100              0.0140373
    103.9486900              0.0688426
     29.2101550              0.2321844
      9.2866630              0.4679413
      3.1639270              0.3623120
SP   3   1.00
      7.8682724             -0.1193324              0.0689991
      1.8812885             -0.1608542              0.3164240
      0.5442493              1.1434564              0.7443083
SP   1   1.00
      0.1687144              1.0000000              1.0000000
D    1   1.00
      1.2520000              1.0000000
D    1   1.00
      0.3130000              1.0000000
F    1   1.00
      0.8000000              1.0000000
****
N     0
S    6   1.00
   4173.5110000              0.0018348
    627.4579000              0.0139950
    142.9021000              0.0685870
     40.2343300              0.2322410
     12.8202100              0.4690700
      4.3904370              0.3604550
SP   3   1.00
     11.6263580             -0.1149610              0.0675800
      2.7162800             -0.1691180              0.3239070
      0.7722180              1.1458520              0.7408950
SP   1   1.00
      0.2120313              1.0000000              1.0000000
D    1   1.00
      1.8260000              1.0000000
D    1   1.00
      0.4565000              1.0000000
F    1   1.00
      1.0000000              1.0000000
****
O     0
S    6   1.00
   5484.6717000              0.0018311
    825.2349500              0.0139501
    188.0469600              0.0684451
     52.9645000              0.2327143
     16.8975700              0.4701930
      5.7996353              0.3585209
SP   3   1.00
     15.5396160             -0.1107775              0.0708743
      3.5999336             -0.1480263              0.3397528
      1.0137618              1.1307670              0.7271586
SP   1   1.00
      0.2700058              1.0000000              1.0000000
D    1   1.00
      2.5840000              1.0000000
D    1   1.00
      0.6460000              1.0000000
F    1   1.00
      1.4000000              1.0000000
****
F     0
S    6   1.00
   7001.7130900              0.0018196169
   1051.3660900              0.0139160796
    239.2856900              0.0684053245
     67.3974453              0.233185760
     21.5199573              0.471267439
      7.40310130             0.356618546
SP   3   1.00
     20.8479528             -0.108506975            0.0716287243
      4.80830834            -0.146451658            0.3459121030
      1.34406986             1.128688580            0.7224699570
SP   1   1.00
      0.358151393            1.0000000              1.0000000
D    1   1.00
      3.5000000              1.0000000
D    1   1.00
      0.8750000              1.0000000
F    1   1.00
      1.8500000              1.0000000
****
Al     0
S    6   1.00
  13983.1000000              0.00194267
   2098.7500000              0.0148599
    477.7050000              0.0728494
    134.3600000              0.2468300
     42.8709000              0.4872580
     14.5189000              0.3234960
SP   6   1.00
    239.6680000             -0.00292619             0.00460285
     57.4419000             -0.0374080              0.0331990
     18.2859000             -0.1144870              0.1362820
      6.5991400              0.1156350              0.3304760
      2.4904900              0.6125950              0.4491460
      0.9445400              0.3937990              0.2657040
SP   3   1.00
      1.2779000             -0.2276060             -0.0175130
      0.3975900              0.00144583             0.2445330
      0.1600950              1.0927900              0.8049340
SP   1   1.00
      0.0556577              1.0000000              1.0000000
D    1   1.00
      0.6500000              1.0000000
D    1   1.00
      0.1625000              1.0000000
F    1   1.00
      0.2500000              1.0000000
****
Si     0
S    6   1.00
  16115.9000000              0.00195948
   2425.5800000              0.01492880
    553.8670000              0.07284780
    156.3400000              0.24613000
     50.0683000              0.48591400
     17.0178000              0.32500200
SP   6   1.00
    292.7180000             -0.00278094             0.00443826
     69.8731000             -0.03571460             0.03266790
     22.3363000             -0.11498500             0.13472100
      8.1503900              0.09356340             0.32867800
      3.1345800              0.60301700             0.44964000
      1.2254300              0.41895900             0.26137200
SP   3   1.00
      1.7273800             -0.24463000            -0.01779510
      0.5729220              0.00431572             0.25353900
      0.2221920              1.09818000             0.80066900
SP   1   1.00
      0.0778369              1.00000000             1.00000000
D    1   1.00
      0.9000000              1.0000000
D    1   1.00
      0.2250000              1.0000000
F    1   1.00
      0.3200000              1.0000000
****
P     0
S    6   1.00
  19413.3000000              0.0018516
   2909.4200000              0.0142062
    661.3640000              0.0699995
    185.7590000              0.2400790
     59.1943000              0.4847620
     20.0310000              0.3352000
SP   6   1.00
    339.4780000             -0.00278217             0.00456462
     81.0101000             -0.0360499              0.03369360
     25.8780000             -0.1166310              0.13975500
      9.4522100              0.0968328              0.33936200
      3.6656600              0.6144180              0.45092100
      1.4674600              0.4037980              0.23858600
SP   3   1.00
      2.1562300             -0.2529230             -0.01776530
      0.7489970              0.0328517              0.27405800
      0.2831450              1.0812500              0.78542100
SP   1   1.00
      0.0998317              1.0000000              1.00000000
D    1   1.00
      1.1000000              1.0000000
D    1   1.00
      0.2750000              1.0000000
F    1   1.00
      0.4500000              1.0000000
****
S     0
S    6   1.00
  21917.1000000              0.0018690
   3301.4900000              0.0142300
    754.1460000              0.0696960
    212.7110000              0.2384870
     67.9896000              0.4833070
     23.0515000              0.3380740
SP   6   1.00
    423.7350000             -0.0023767              0.0040610
    100.7100000             -0.0316930              0.0306810
     32.1599000             -0.1133170              0.1304520
     11.8079000              0.0560900              0.3272050
      4.6311000              0.5922550              0.4528510
      1.8702500              0.4550060              0.2560420
SP   3   1.00
      2.6158400             -0.2503740             -0.0145110
      0.9221670              0.0669570              0.3102630
      0.3412870              1.0545100              0.7544830
SP   1   1.00
      0.1171670              1.0000000              1.0000000
D    1   1.00
      1.3000000              1.0000000
D    1   1.00
      0.3250000              1.0000000
F    1   1.00
      0.5500000              1.0000000
****
Cl     0
S    6   1.00
  25180.1000000              0.0018330
   3780.3500000              0.0140340
    860.4740000              0.0690970
    242.1450000              0.2374520
     77.3349000              0.4830340
     26.2470000              0.3398560
SP   6   1.00
    491.7650000             -0.0022974              0.0039894
    116.9840000             -0.0307140              0.0303180
     37.4153000             -0.1125280              0.1298800
     13.7834000              0.0450160              0.3279510
      5.4521500              0.5893530              0.4535270
      2.2258800              0.4652060              0.2521540
SP   3   1.00
      3.1864900             -0.2518300             -0.0142990
      1.1442700              0.0615890              0.3235720
      0.4203770              1.0601800              0.7435070
SP   1   1.00
      0.1426570              1.0000000              1.0000000
D    1   1.00
      1.5000000              1.0000000
D    1   1.00
      0.3750000              1.0000000
F    1   1.00
      0.7000000              1.0000000
****
}

set {
reference uhf
freeze_core true
e_convergence 10
d_convergence 10
dft_spherical_points 1202
dft_radial_points 99
}

e = energy('b3lyp')

print_out('Grab this energy {0}'.format(e))
--------------------------------------------------------------------------

    Molecular point group: cs

    Geometry (in Bohr), charge = 0, multiplicity = 2:

       Center              X                  Y                   Z               Mass
    ------------   -----------------  -----------------  -----------------  -----------------
         C           -0.323877649948    -0.000002057676     0.000000000000    12.000000000000
         C            0.061006293652    -1.403677158276    -2.431229579000    12.000000000000
         C            0.060886198152     2.807358561324     0.000000000000    12.000000000000
         C            0.061006293652    -1.403677158276     2.431229579000    12.000000000000
         H            2.091328949252    -1.647605273676    -2.853515263200     1.007825032230
         H           -0.765738277448    -0.392797494076    -4.029477482000     1.007825032230
         H           -0.765900816048    -3.293171557576    -2.354948795600     1.007825032230
         H            2.091189938252     3.295117530624     0.000000000000     1.007825032230
         H           -0.765979231248     3.686002539324     1.674534632700     1.007825032230
         H           -0.765979231248     3.686002539324    -1.674534632700     1.007825032230
         H            2.091328949252    -1.647605273676     2.853515263200     1.007825032230
         H           -0.765900816048    -3.293171557576     2.354948795600     1.007825032230
         H           -0.765738277448    -0.392797494076     4.029477482000     1.007825032230

  Charge       = 0
  Multiplicity = 2
  Basis Set: ANONYMOUS0BE391EE
    Blend: 6-31G_2DFP_
  Basis Set: (ANONYMOUS0BE391EE AUX)
    Blend: DEF2-UNIVERSAL-JKFIT

    Orbital Energies [Eh]
    ---------------------

    Alpha Occupied:

       1Ap   -10.181171     2Ap   -10.167395     1App  -10.167394
       3Ap   -10.167349     4Ap    -0.796684     5Ap    -0.685883
       2App   -0.685883     6Ap    -0.530771     7Ap    -0.440432
       3App   -0.434238     8Ap    -0.434237     9Ap    -0.382388
       4App   -0.382386     5App   -0.363907     6App   -0.337865
      10Ap    -0.337865    11Ap    -0.169322

    Alpha Virtual:

      12Ap     0.076187    13Ap     0.134101     7App    0.134102
      14Ap     0.142507     8App    0.142507    15Ap     0.154650
      16Ap     0.178428     9App    0.178428    17Ap     0.202394
      10App    0.214731    11App    0.275428    18Ap     0.275430
      19Ap     0.399128    12App    0.399132    20Ap     0.403455
      13App    0.424570    21Ap     0.424570    22Ap     0.455963
      23Ap     0.495343    14App    0.495344    15App    0.511708
      24Ap     0.513418    25Ap     0.577949    16App    0.577957
      17App    0.590821    26Ap     0.590823    27Ap     0.601367
      28Ap     0.624867    18App    0.631809    19App    0.635826
      29Ap     0.635830    30Ap     0.662439    20App    0.662440
      31Ap     0.683663    21App    0.683664    32Ap     0.735258
      22App    0.825525    33Ap     0.825528    23App    0.852635
      24App    0.914075    34Ap     0.914081    25App    0.943086
      35Ap     0.945314    26App    0.960232    36Ap     0.960249
      37Ap     1.002149    38Ap     1.127464    27App    1.127476
      39Ap     1.141162    40Ap     1.162747    28App    1.162759
      41Ap     1.222856    42Ap     1.273346    29App    1.273349
      43Ap     1.278680    30App    1.323804    44Ap     1.323807
      45Ap     1.356334    31App    1.364152    46Ap     1.364157
      32App    1.390883    47Ap     1.403264    33App    1.403266
      34App    1.417755    48Ap     1.417761    35App    1.426276
      36App    1.490285    49Ap     1.497584    37App    1.541730
      50Ap     1.541732    51Ap     1.573644    38App    1.573646
      52Ap     1.671153    53Ap     1.737940    39App    1.737952
      54Ap     1.764955    40App    1.831589    55Ap     1.831590
      41App    1.971370    56Ap     2.015921    57Ap     2.017931
      42App    2.017934    58Ap     2.046929    43App    2.046931
      44App    2.738197    59Ap     2.738198    60Ap     2.789370
      45App    2.809155    61Ap     2.888414    46App    2.888420
      62Ap     2.893073    63Ap     2.929533    47App    2.929541
      48App    2.958628    64Ap     2.964248    49App    2.964262
      65Ap     3.033341    50App    3.070322    66Ap     3.070335
      51App    3.084194    67Ap     3.167801    52App    3.167808
      68Ap     3.178688    53App    3.284687    69Ap     3.284688
      70Ap     3.327357    54App    3.327363    71Ap     3.377155
      55App    3.488142    72Ap     3.488162    56App    3.512012
      73Ap     3.524159    57App    3.568060    74Ap     3.568080
      58App    3.572213    75Ap     3.666056    59App    3.666065
      76Ap     3.678340    60App    3.692867    77Ap     3.692883
      78Ap     3.772736    61App    3.772762    79Ap     3.787637
      80Ap     3.910696    62App    3.910702    81Ap     4.033045
      82Ap     4.108421    63App    4.108426    83Ap     4.146835
      64App    4.146843    84Ap     4.170262    85Ap     4.201247
      65App    4.201572    86Ap     4.201575    66App    4.208062
      87Ap     4.313980    67App    4.313999    68App    4.357688
      88Ap     4.421683    69App    4.421686    70App    4.441272
      71App    4.513214    89Ap     4.513214    72App    4.575402
      90Ap     4.575414    91Ap     4.610122    92Ap     4.704169
      93Ap     4.768291    73App    4.768299    74App    4.834295
      94Ap     4.960154    75App    5.000040    95Ap     5.000051
      96Ap     5.224306    76App    5.248396    97Ap     5.248396
      98Ap     5.350946    77App    5.350959    78App    5.475622

    Beta Occupied:

       1Ap   -10.168147     1App  -10.168146     2Ap   -10.168130
       3Ap   -10.167323     4Ap    -0.780039     5Ap    -0.683718
       2App   -0.683718     6Ap    -0.511690     3App   -0.430651
       7Ap    -0.430651     8Ap    -0.421168     9Ap    -0.376485
       4App   -0.376483     5App   -0.362912     6App   -0.332980
      10Ap    -0.332980

    Beta Virtual:

      11Ap    -0.025903    12Ap     0.077201    13Ap     0.135071
       7App    0.135072    14Ap     0.144320     8App    0.144321
      15Ap     0.163085    16Ap     0.182044     9App    0.182045
      10App    0.214946    17Ap     0.217955    11App    0.281850
      18Ap     0.281852    19Ap     0.400267    12App    0.400271
      20Ap     0.420094    13App    0.427390    21Ap     0.427390
      22Ap     0.467418    23Ap     0.497598    14App    0.497599
      15App    0.513435    24Ap     0.555797    25Ap     0.583519
      16App    0.583527    17App    0.597052    26Ap     0.597053
      27Ap     0.608872    28Ap     0.628062    18App    0.631954
      19App    0.639003    29Ap     0.639007    30Ap     0.666072
      20App    0.666073    31Ap     0.686209    21App    0.686211
      32Ap     0.757955    22App    0.830699    33Ap     0.830701
      23App    0.853960    24App    0.922050    34Ap     0.922056
      25App    0.944912    35Ap     0.954384    26App    0.965480
      36Ap     0.965496    37Ap     1.007426    38Ap     1.131529
      27App    1.131541    39Ap     1.154609    40Ap     1.167793
      28App    1.167805    41Ap     1.231672    42Ap     1.278881
      29App    1.278885    43Ap     1.284442    30App    1.328844
      44Ap     1.328846    45Ap     1.365704    31App    1.369470
      46Ap     1.369474    32App    1.391947    47Ap     1.406710
      33App    1.406713    34App    1.422714    48Ap     1.422721
      35App    1.426518    36App    1.491308    49Ap     1.507972
      50Ap     1.546226    37App    1.546226    38App    1.581432
      51Ap     1.581432    52Ap     1.676043    53Ap     1.743694
      39App    1.743705    54Ap     1.775700    40App    1.835428
      55Ap     1.835429    41App    1.972212    56Ap     2.024166
      42App    2.024168    57Ap     2.037222    58Ap     2.053755
      43App    2.053757    44App    2.746637    59Ap     2.746638
      45App    2.809564    60Ap     2.814488    61Ap     2.901290
      46App    2.901296    62Ap     2.922523    63Ap     2.931858
      47App    2.931866    48App    2.959674    64Ap     2.968699
      49App    2.968713    65Ap     3.041401    50App    3.080134
      66Ap     3.080146    51App    3.085991    67Ap     3.183681
      52App    3.183685    68Ap     3.186400    53App    3.289344
      69Ap     3.289344    70Ap     3.331199    54App    3.331205
      71Ap     3.384966    55App    3.490849    72Ap     3.490869
      56App    3.510384    73Ap     3.527242    57App    3.572046
      58App    3.581553    74Ap     3.581575    75Ap     3.670803
      59App    3.670815    76Ap     3.691623    60App    3.724686
      77Ap     3.724702    78Ap     3.777157    61App    3.777183
      79Ap     3.816341    80Ap     3.920561    62App    3.920568
      81Ap     4.044067    82Ap     4.115515    63App    4.115517
      83Ap     4.153849    64App    4.153857    84Ap     4.184235
      65App    4.207633    85Ap     4.207637    86Ap     4.209091
      66App    4.212581    87Ap     4.321324    67App    4.321343
      68App    4.361026    88Ap     4.429793    69App    4.429795
      70App    4.444086    71App    4.520912    89Ap     4.520913
      72App    4.585942    90Ap     4.585954    91Ap     4.617239
      92Ap     4.714546    93Ap     4.775191    73App    4.775199
      74App    4.837202    94Ap     4.964938    75App    5.004066
      95Ap     5.004078    96Ap     5.229948    76App    5.250155
      97Ap     5.250155    98Ap     5.357344    77App    5.357357
      78App    5.477908

    Final Occupation by Irrep:
             Ap   App
    DOCC [    10,    6 ]
    SOCC [     1,    0 ]

  @DF-UKS Final Energy:  -157.81306048285467

   => Energetics <=

    Nuclear Repulsion Energy =            125.2083411821228083
    One-Electron Energy =                -458.3818977685659206
    Two-Electron Energy =                 195.6637409068112845
    DFT Exchange-Correlation Energy =     -20.3032448032228245
    Empirical Dispersion Energy =           0.0000000000000000
    VV10 Nonlocal Energy =                  0.0000000000000000
    Total Energy =                       -157.8130604828546666

  UHF NO Occupations:
  HONO-2 :    9 Ap 1.9996002
  HONO-1 :   10 Ap 1.9989726
  HONO-0 :   11 Ap 1.0000000
  LUNO+0 :   12 Ap 0.0010274
  LUNO+1 :   13 Ap 0.0003998
  LUNO+2 :    7App 0.0001997
  LUNO+3 :   14 Ap 0.0001997

Computation Completed

Properties will be evaluated at   0.000000,   0.000000,   0.000000 [a0]

Properties computed using the SCF density matrix

  Nuclear Dipole Moment: [e a0]
     X:     0.8327      Y:    -0.0000      Z:     0.0000

  Electronic Dipole Moment: [e a0]
     X:    -0.7572      Y:     0.0000      Z:     0.0000

  Dipole Moment: [e a0]
     X:     0.0756      Y:    -0.0000      Z:     0.0000     Total:     0.0756

  Dipole Moment: [D]
     X:     0.1921      Y:    -0.0000      Z:     0.0000     Total:     0.1921

*** tstop() called on n089 at Fri Nov  5 14:53:55 2021
Module time:
	user time   =     503.62 seconds =       8.39 minutes
	system time =       4.63 seconds =       0.08 minutes
	total time  =        128 seconds =       2.13 minutes
Total time:
	user time   =     503.62 seconds =       8.39 minutes
	system time =       4.63 seconds =       0.08 minutes
	total time  =        128 seconds =       2.13 minutes
Grab this energy -157.81306048285467
    Psi4 stopped on: Friday, 05 November 2021 02:53PM
    Psi4 wall time for execution: 0:02:07.80

*** Psi4 exiting successfully. Buy a developer a beer!
