                               Psi4 1.4a2.dev629

  ==> Input File <==

--------------------------------------------------------------------------
import os
memory 14 GB

molecule {
 C   -0.3201721533    0.0004290906   -0.0000000000
 C    0.0623126752   -1.3997733300   -2.4268720545
 C    0.0626548058    2.8014712634   -0.0000000000
 C    0.0623126752   -1.3997733300    2.4268720545
 H    2.0870636824   -1.6413418091   -2.8487191086
 H   -0.7638262567   -0.3905238831   -4.0236096776
 H   -0.7695479055   -3.2935926506   -2.3493351841
 H    2.0855547585    3.2878466913   -0.0000000000
 H   -0.7663248392    3.6803459933    1.6770138522
 H   -0.7663248392    3.6803459933   -1.6770138522
 H    2.0870636824   -1.6413418091    2.8487191086
 H   -0.7695479055   -3.2935926506    2.3493351841
 H   -0.7638262567   -0.3905238831    4.0236096776
units bohr
0 2
}

basis {

assign 6-31g_2dfp_

[ 6-31g_2dfp_ ]

spherical

!----------------------------------------------------------------------
! Basis Set Exchange
! Version v0.8.13
! https://www.basissetexchange.org
!----------------------------------------------------------------------
!   Basis set: 6-31G(2df,p)
! Description: 6-31G(2df,p)
!        Role: orbital
!     Version: 0  (Data from the original Basis Set Exchange)
!----------------------------------------------------------------------

****
H     0
S    3   1.00
     18.7311370              0.03349460
      2.8253937              0.23472695
      0.6401217              0.81375733
S    1   1.00
      0.1612778              1.00000000
P    1   1.00
      1.5000000              1.0000000
P    1   1.00
      0.3750000              1.0000000
****
B     0
S    6   1.00
   2068.8823000              0.0018663
    310.6495700              0.0142515
     70.6830330              0.0695516
     19.8610800              0.2325729
      6.2993048              0.4670787
      2.1270270              0.3634314
SP   3   1.00
      4.7279710             -0.1303938              0.0745976
      1.1903377             -0.1307889              0.3078467
      0.3594117              1.1309444              0.7434568
SP   1   1.00
      0.1267512              1.0000000              1.0000000
D    1   1.00
      0.8020000              1.0000000
D    1   1.00
      0.2005000              1.0000000
F    1   1.00
      0.5000000              1.0000000
****
C     0
S    6   1.00
   3047.5249000              0.0018347
    457.3695100              0.0140373
    103.9486900              0.0688426
     29.2101550              0.2321844
      9.2866630              0.4679413
      3.1639270              0.3623120
SP   3   1.00
      7.8682724             -0.1193324              0.0689991
      1.8812885             -0.1608542              0.3164240
      0.5442493              1.1434564              0.7443083
SP   1   1.00
      0.1687144              1.0000000              1.0000000
D    1   1.00
      1.2520000              1.0000000
D    1   1.00
      0.3130000              1.0000000
F    1   1.00
      0.8000000              1.0000000
****
N     0
S    6   1.00
   4173.5110000              0.0018348
    627.4579000              0.0139950
    142.9021000              0.0685870
     40.2343300              0.2322410
     12.8202100              0.4690700
      4.3904370              0.3604550
SP   3   1.00
     11.6263580             -0.1149610              0.0675800
      2.7162800             -0.1691180              0.3239070
      0.7722180              1.1458520              0.7408950
SP   1   1.00
      0.2120313              1.0000000              1.0000000
D    1   1.00
      1.8260000              1.0000000
D    1   1.00
      0.4565000              1.0000000
F    1   1.00
      1.0000000              1.0000000
****
O     0
S    6   1.00
   5484.6717000              0.0018311
    825.2349500              0.0139501
    188.0469600              0.0684451
     52.9645000              0.2327143
     16.8975700              0.4701930
      5.7996353              0.3585209
SP   3   1.00
     15.5396160             -0.1107775              0.0708743
      3.5999336             -0.1480263              0.3397528
      1.0137618              1.1307670              0.7271586
SP   1   1.00
      0.2700058              1.0000000              1.0000000
D    1   1.00
      2.5840000              1.0000000
D    1   1.00
      0.6460000              1.0000000
F    1   1.00
      1.4000000              1.0000000
****
F     0
S    6   1.00
   7001.7130900              0.0018196169
   1051.3660900              0.0139160796
    239.2856900              0.0684053245
     67.3974453              0.233185760
     21.5199573              0.471267439
      7.40310130             0.356618546
SP   3   1.00
     20.8479528             -0.108506975            0.0716287243
      4.80830834            -0.146451658            0.3459121030
      1.34406986             1.128688580            0.7224699570
SP   1   1.00
      0.358151393            1.0000000              1.0000000
D    1   1.00
      3.5000000              1.0000000
D    1   1.00
      0.8750000              1.0000000
F    1   1.00
      1.8500000              1.0000000
****
Al     0
S    6   1.00
  13983.1000000              0.00194267
   2098.7500000              0.0148599
    477.7050000              0.0728494
    134.3600000              0.2468300
     42.8709000              0.4872580
     14.5189000              0.3234960
SP   6   1.00
    239.6680000             -0.00292619             0.00460285
     57.4419000             -0.0374080              0.0331990
     18.2859000             -0.1144870              0.1362820
      6.5991400              0.1156350              0.3304760
      2.4904900              0.6125950              0.4491460
      0.9445400              0.3937990              0.2657040
SP   3   1.00
      1.2779000             -0.2276060             -0.0175130
      0.3975900              0.00144583             0.2445330
      0.1600950              1.0927900              0.8049340
SP   1   1.00
      0.0556577              1.0000000              1.0000000
D    1   1.00
      0.6500000              1.0000000
D    1   1.00
      0.1625000              1.0000000
F    1   1.00
      0.2500000              1.0000000
****
Si     0
S    6   1.00
  16115.9000000              0.00195948
   2425.5800000              0.01492880
    553.8670000              0.07284780
    156.3400000              0.24613000
     50.0683000              0.48591400
     17.0178000              0.32500200
SP   6   1.00
    292.7180000             -0.00278094             0.00443826
     69.8731000             -0.03571460             0.03266790
     22.3363000             -0.11498500             0.13472100
      8.1503900              0.09356340             0.32867800
      3.1345800              0.60301700             0.44964000
      1.2254300              0.41895900             0.26137200
SP   3   1.00
      1.7273800             -0.24463000            -0.01779510
      0.5729220              0.00431572             0.25353900
      0.2221920              1.09818000             0.80066900
SP   1   1.00
      0.0778369              1.00000000             1.00000000
D    1   1.00
      0.9000000              1.0000000
D    1   1.00
      0.2250000              1.0000000
F    1   1.00
      0.3200000              1.0000000
****
P     0
S    6   1.00
  19413.3000000              0.0018516
   2909.4200000              0.0142062
    661.3640000              0.0699995
    185.7590000              0.2400790
     59.1943000              0.4847620
     20.0310000              0.3352000
SP   6   1.00
    339.4780000             -0.00278217             0.00456462
     81.0101000             -0.0360499              0.03369360
     25.8780000             -0.1166310              0.13975500
      9.4522100              0.0968328              0.33936200
      3.6656600              0.6144180              0.45092100
      1.4674600              0.4037980              0.23858600
SP   3   1.00
      2.1562300             -0.2529230             -0.01776530
      0.7489970              0.0328517              0.27405800
      0.2831450              1.0812500              0.78542100
SP   1   1.00
      0.0998317              1.0000000              1.00000000
D    1   1.00
      1.1000000              1.0000000
D    1   1.00
      0.2750000              1.0000000
F    1   1.00
      0.4500000              1.0000000
****
S     0
S    6   1.00
  21917.1000000              0.0018690
   3301.4900000              0.0142300
    754.1460000              0.0696960
    212.7110000              0.2384870
     67.9896000              0.4833070
     23.0515000              0.3380740
SP   6   1.00
    423.7350000             -0.0023767              0.0040610
    100.7100000             -0.0316930              0.0306810
     32.1599000             -0.1133170              0.1304520
     11.8079000              0.0560900              0.3272050
      4.6311000              0.5922550              0.4528510
      1.8702500              0.4550060              0.2560420
SP   3   1.00
      2.6158400             -0.2503740             -0.0145110
      0.9221670              0.0669570              0.3102630
      0.3412870              1.0545100              0.7544830
SP   1   1.00
      0.1171670              1.0000000              1.0000000
D    1   1.00
      1.3000000              1.0000000
D    1   1.00
      0.3250000              1.0000000
F    1   1.00
      0.5500000              1.0000000
****
Cl     0
S    6   1.00
  25180.1000000              0.0018330
   3780.3500000              0.0140340
    860.4740000              0.0690970
    242.1450000              0.2374520
     77.3349000              0.4830340
     26.2470000              0.3398560
SP   6   1.00
    491.7650000             -0.0022974              0.0039894
    116.9840000             -0.0307140              0.0303180
     37.4153000             -0.1125280              0.1298800
     13.7834000              0.0450160              0.3279510
      5.4521500              0.5893530              0.4535270
      2.2258800              0.4652060              0.2521540
SP   3   1.00
      3.1864900             -0.2518300             -0.0142990
      1.1442700              0.0615890              0.3235720
      0.4203770              1.0601800              0.7435070
SP   1   1.00
      0.1426570              1.0000000              1.0000000
D    1   1.00
      1.5000000              1.0000000
D    1   1.00
      0.3750000              1.0000000
F    1   1.00
      0.7000000              1.0000000
****
}

set {
reference uhf
freeze_core true
e_convergence 10
d_convergence 10
dft_spherical_points 1202
dft_radial_points 99
}

e = energy('b3lyp')

print_out('Grab this energy {0}'.format(e))
--------------------------------------------------------------------------

    Molecular point group: cs

    Geometry (in Bohr), charge = 0, multiplicity = 2:

       Center              X                  Y                   Z               Mass
    ------------   -----------------  -----------------  -----------------  -----------------
         C           -0.321548907226    -0.000023818454     0.000000000000    12.000000000000
         C            0.060935921274    -1.400226239054    -2.426872054500    12.000000000000
         C            0.061278051874     2.801018354346     0.000000000000    12.000000000000
         C            0.060935921274    -1.400226239054     2.426872054500    12.000000000000
         H            2.085686928474    -1.641794718154    -2.848719108600     1.007825032230
         H           -0.765203010626    -0.390976792154    -4.023609677600     1.007825032230
         H           -0.770924659426    -3.294045559654    -2.349335184100     1.007825032230
         H            2.084178004574     3.287393782246     0.000000000000     1.007825032230
         H           -0.767701593126     3.679893084246     1.677013852200     1.007825032230
         H           -0.767701593126     3.679893084246    -1.677013852200     1.007825032230
         H            2.085686928474    -1.641794718154     2.848719108600     1.007825032230
         H           -0.770924659426    -3.294045559654     2.349335184100     1.007825032230
         H           -0.765203010626    -0.390976792154     4.023609677600     1.007825032230

  Charge       = 0
  Multiplicity = 2
  Basis Set: ANONYMOUSAF2B8360
    Blend: 6-31G_2DFP_
  Basis Set: (ANONYMOUSAF2B8360 AUX)
    Blend: DEF2-UNIVERSAL-JKFIT

    Orbital Energies [Eh]
    ---------------------

    Alpha Occupied:

       1Ap   -10.180229     2Ap   -10.167011     1App  -10.167003
       3Ap   -10.166960     4Ap    -0.797820     2App   -0.686260
       5Ap    -0.686140     6Ap    -0.530756     7Ap    -0.441361
       8Ap    -0.434709     3App   -0.434339     9Ap    -0.382870
       4App   -0.382824     5App   -0.363330     6App   -0.338110
      10Ap    -0.337788    11Ap    -0.168846

    Alpha Virtual:

      12Ap     0.076054    13Ap     0.134028     7App    0.134263
       8App    0.142338    14Ap     0.142755    15Ap     0.154947
       9App    0.178789    16Ap     0.178977    17Ap     0.203593
      10App    0.214671    11App    0.276014    18Ap     0.276234
      19Ap     0.398996    12App    0.399495    20Ap     0.403384
      21Ap     0.423941    13App    0.424265    22Ap     0.456597
      23Ap     0.495288    14App    0.495390    15App    0.512265
      24Ap     0.513976    16App    0.578674    25Ap     0.578780
      17App    0.591793    26Ap     0.592082    27Ap     0.602881
      28Ap     0.624576    18App    0.631628    19App    0.635835
      29Ap     0.636448    20App    0.663375    30Ap     0.663793
      31Ap     0.683633    21App    0.684039    32Ap     0.735123
      22App    0.825328    33Ap     0.825833    23App    0.853868
      34Ap     0.914981    24App    0.915402    25App    0.944229
      35Ap     0.944624    36Ap     0.961129    26App    0.961275
      37Ap     1.002575    38Ap     1.127586    27App    1.128162
      39Ap     1.142593    40Ap     1.163356    28App    1.163496
      41Ap     1.223740    29App    1.274530    42Ap     1.275018
      43Ap     1.279505    30App    1.324028    44Ap     1.324444
      45Ap     1.357023    31App    1.365400    46Ap     1.366013
      32App    1.392369    33App    1.404619    47Ap     1.404723
      48Ap     1.417015    34App    1.418422    35App    1.428085
      36App    1.491034    49Ap     1.499575    50Ap     1.542410
      37App    1.542456    38App    1.574178    51Ap     1.574575
      52Ap     1.669298    39App    1.738926    53Ap     1.740325
      54Ap     1.768532    55Ap     1.830301    40App    1.831827
      41App    1.971196    56Ap     2.018137    42App    2.018761
      57Ap     2.020355    43App    2.052486    58Ap     2.053564
      44App    2.738633    59Ap     2.738997    60Ap     2.791145
      45App    2.811150    46App    2.889977    61Ap     2.890281
      62Ap     2.894903    47App    2.929332    63Ap     2.929366
      48App    2.958800    49App    2.964394    64Ap     2.964457
      65Ap     3.034051    66Ap     3.071374    50App    3.072367
      51App    3.084382    52App    3.168388    67Ap     3.169212
      68Ap     3.180391    69Ap     3.284805    53App    3.285113
      54App    3.325864    70Ap     3.326605    71Ap     3.375924
      72Ap     3.490085    55App    3.490622    56App    3.514476
      73Ap     3.525170    74Ap     3.568382    57App    3.569240
      58App    3.575577    59App    3.665935    75Ap     3.666890
      76Ap     3.678612    77Ap     3.694190    60App    3.694656
      61App    3.777576    78Ap     3.777772    79Ap     3.790446
      80Ap     3.911534    62App    3.912707    81Ap     4.035617
      63App    4.110430    82Ap     4.111498    83Ap     4.147517
      64App    4.148198    84Ap     4.173469    85Ap     4.202607
      86Ap     4.203061    65App    4.204053    66App    4.211092
      87Ap     4.315506    67App    4.316838    68App    4.358859
      69App    4.424518    88Ap     4.425613    70App    4.442581
      71App    4.515668    89Ap     4.517759    72App    4.578171
      90Ap     4.578183    91Ap     4.618376    92Ap     4.709876
      73App    4.773863    93Ap     4.775849    74App    4.837141
      94Ap     4.962796    75App    5.003296    95Ap     5.004032
      96Ap     5.227665    76App    5.246860    97Ap     5.247136
      77App    5.353788    98Ap     5.356365    78App    5.479924

    Beta Occupied:

       1Ap   -10.167765     1App  -10.167756     2Ap   -10.167733
       3Ap   -10.166404     4Ap    -0.781129     2App   -0.684061
       5Ap    -0.683937     6Ap    -0.511723     7Ap    -0.431072
       3App   -0.430698     8Ap    -0.422062     9Ap    -0.376963
       4App   -0.376926     5App   -0.362313     6App   -0.333232
      10Ap    -0.332917

    Beta Virtual:

      11Ap    -0.025594    12Ap     0.077061    13Ap     0.134863
       7App    0.135145     8App    0.144191    14Ap     0.144661
      15Ap     0.163373     9App    0.182472    16Ap     0.182658
      10App    0.214905    17Ap     0.218998    11App    0.282351
      18Ap     0.282570    19Ap     0.400158    12App    0.400664
      20Ap     0.419771    21Ap     0.426756    13App    0.427079
      22Ap     0.468569    23Ap     0.497543    14App    0.497655
      15App    0.513996    24Ap     0.556368    16App    0.584234
      25Ap     0.584338    17App    0.597933    26Ap     0.598266
      27Ap     0.610280    28Ap     0.627987    18App    0.631786
      19App    0.639158    29Ap     0.639729    20App    0.666927
      30Ap     0.667314    31Ap     0.686293    21App    0.686653
      32Ap     0.757640    22App    0.830488    33Ap     0.830969
      23App    0.855219    34Ap     0.922969    24App    0.923349
      25App    0.946066    35Ap     0.953586    36Ap     0.966437
      26App    0.966618    37Ap     1.007767    38Ap     1.131724
      27App    1.132290    39Ap     1.155962    40Ap     1.168373
      28App    1.168502    41Ap     1.232720    29App    1.280093
      42Ap     1.280614    43Ap     1.285267    30App    1.328962
      44Ap     1.329373    45Ap     1.366456    31App    1.370700
      46Ap     1.371190    32App    1.393416    33App    1.408086
      47Ap     1.408224    48Ap     1.422132    34App    1.423434
      35App    1.428372    36App    1.492080    49Ap     1.510039
      50Ap     1.546688    37App    1.546790    38App    1.582146
      51Ap     1.582544    52Ap     1.674160    39App    1.744664
      53Ap     1.746095    54Ap     1.779303    55Ap     1.834158
      40App    1.835692    41App    1.972058    42App    2.025226
      56Ap     2.026300    57Ap     2.039946    43App    2.059164
      58Ap     2.060280    44App    2.746955    59Ap     2.747342
      45App    2.811562    60Ap     2.816333    46App    2.902607
      61Ap     2.902998    62Ap     2.924699    63Ap     2.931826
      47App    2.931883    48App    2.959874    49App    2.968902
      64Ap     2.968995    65Ap     3.041946    66Ap     3.081262
      50App    3.082074    51App    3.086369    52App    3.184252
      67Ap     3.184993    68Ap     3.188019    69Ap     3.289636
      53App    3.289970    54App    3.329615    70Ap     3.330428
      71Ap     3.383780    72Ap     3.492821    55App    3.493331
      56App    3.512838    73Ap     3.528252    57App    3.575446
      74Ap     3.581574    58App    3.582588    59App    3.670891
      75Ap     3.671566    76Ap     3.691936    77Ap     3.725977
      60App    3.726069    61App    3.782032    78Ap     3.782298
      79Ap     3.818960    80Ap     3.921280    62App    3.922587
      81Ap     4.046493    63App    4.117060    82Ap     4.118550
      83Ap     4.154496    64App    4.155617    84Ap     4.187478
      85Ap     4.208588    65App    4.209945    86Ap     4.211033
      66App    4.215553    87Ap     4.323001    67App    4.324253
      68App    4.362207    69App    4.432689    88Ap     4.433751
      70App    4.445496    71App    4.523450    89Ap     4.525554
      72App    4.588764    90Ap     4.588841    91Ap     4.625644
      92Ap     4.720129    73App    4.780865    93Ap     4.782800
      74App    4.840061    94Ap     4.967574    75App    5.007324
      95Ap     5.008057    96Ap     5.233304    76App    5.248642
      97Ap     5.249053    77App    5.360294    98Ap     5.362849
      78App    5.482247

    Final Occupation by Irrep:
             Ap   App
    DOCC [    10,    6 ]
    SOCC [     1,    0 ]

  @DF-UKS Final Energy:  -157.81306295405940

   => Energetics <=

    Nuclear Repulsion Energy =            125.4033867307862238
    One-Electron Energy =                -458.7665077643304699
    Two-Electron Energy =                 195.8574595324040502
    DFT Exchange-Correlation Energy =     -20.3074014529192155
    Empirical Dispersion Energy =           0.0000000000000000
    VV10 Nonlocal Energy =                  0.0000000000000000
    Total Energy =                       -157.8130629540594043

  UHF NO Occupations:
  HONO-2 :    9 Ap 1.9996019
  HONO-1 :   10 Ap 1.9989796
  HONO-0 :   11 Ap 1.0000000
  LUNO+0 :   12 Ap 0.0010204
  LUNO+1 :   13 Ap 0.0003981
  LUNO+2 :   14 Ap 0.0001975
  LUNO+3 :    7App 0.0001974

Computation Completed

Properties will be evaluated at   0.000000,   0.000000,   0.000000 [a0]

Properties computed using the SCF density matrix

  Nuclear Dipole Moment: [e a0]
     X:     0.8175      Y:    -0.0032      Z:     0.0000

  Electronic Dipole Moment: [e a0]
     X:    -0.7395      Y:     0.0049      Z:     0.0000

  Dipole Moment: [e a0]
     X:     0.0780      Y:     0.0017      Z:     0.0000     Total:     0.0781

  Dipole Moment: [D]
     X:     0.1984      Y:     0.0044      Z:     0.0000     Total:     0.1984

*** tstop() called on n041 at Fri Nov  5 13:33:22 2021
Module time:
	user time   =     598.18 seconds =       9.97 minutes
	system time =      11.64 seconds =       0.19 minutes
	total time  =        154 seconds =       2.57 minutes
Total time:
	user time   =     598.18 seconds =       9.97 minutes
	system time =      11.64 seconds =       0.19 minutes
	total time  =        154 seconds =       2.57 minutes
Grab this energy -157.8130629540594
    Psi4 stopped on: Friday, 05 November 2021 01:33PM
    Psi4 wall time for execution: 0:02:33.38

*** Psi4 exiting successfully. Buy a developer a beer!
