                               Psi4 1.4a2.dev629

  ==> Input File <==

--------------------------------------------------------------------------
import os
memory 14 GB

molecule {
 C   -0.3233405794   -0.0004984421    0.0002470727
 C    0.0614152705   -1.4010720336   -2.4261994873
 C    0.0623957386    2.8016632928   -0.0001483267
 C    0.0594895749   -1.4013053718    2.4263134303
 H    2.0918042683   -1.6459507387   -2.8521923135
 H   -0.7664571959   -0.3888098378   -4.0231243050
 H   -0.7635803735   -3.2885964945   -2.3463692712
 H    2.0826739416    3.2885882209   -0.0018488230
 H   -0.7627715235    3.6787831217    1.6802003607
 H   -0.7647008726    3.6816241723   -1.6790542463
 H    2.0861827314   -1.6422721078    2.8421145137
 H   -0.7673834052   -3.2918598421    2.3527823210
 H   -0.7683354520   -0.3903182527    4.0272790746
units bohr
0 2
}

basis {

assign 6-31g_2dfp_

[ 6-31g_2dfp_ ]

spherical

!----------------------------------------------------------------------
! Basis Set Exchange
! Version v0.8.13
! https://www.basissetexchange.org
!----------------------------------------------------------------------
!   Basis set: 6-31G(2df,p)
! Description: 6-31G(2df,p)
!        Role: orbital
!     Version: 0  (Data from the original Basis Set Exchange)
!----------------------------------------------------------------------

****
H     0
S    3   1.00
     18.7311370              0.03349460
      2.8253937              0.23472695
      0.6401217              0.81375733
S    1   1.00
      0.1612778              1.00000000
P    1   1.00
      1.5000000              1.0000000
P    1   1.00
      0.3750000              1.0000000
****
B     0
S    6   1.00
   2068.8823000              0.0018663
    310.6495700              0.0142515
     70.6830330              0.0695516
     19.8610800              0.2325729
      6.2993048              0.4670787
      2.1270270              0.3634314
SP   3   1.00
      4.7279710             -0.1303938              0.0745976
      1.1903377             -0.1307889              0.3078467
      0.3594117              1.1309444              0.7434568
SP   1   1.00
      0.1267512              1.0000000              1.0000000
D    1   1.00
      0.8020000              1.0000000
D    1   1.00
      0.2005000              1.0000000
F    1   1.00
      0.5000000              1.0000000
****
C     0
S    6   1.00
   3047.5249000              0.0018347
    457.3695100              0.0140373
    103.9486900              0.0688426
     29.2101550              0.2321844
      9.2866630              0.4679413
      3.1639270              0.3623120
SP   3   1.00
      7.8682724             -0.1193324              0.0689991
      1.8812885             -0.1608542              0.3164240
      0.5442493              1.1434564              0.7443083
SP   1   1.00
      0.1687144              1.0000000              1.0000000
D    1   1.00
      1.2520000              1.0000000
D    1   1.00
      0.3130000              1.0000000
F    1   1.00
      0.8000000              1.0000000
****
N     0
S    6   1.00
   4173.5110000              0.0018348
    627.4579000              0.0139950
    142.9021000              0.0685870
     40.2343300              0.2322410
     12.8202100              0.4690700
      4.3904370              0.3604550
SP   3   1.00
     11.6263580             -0.1149610              0.0675800
      2.7162800             -0.1691180              0.3239070
      0.7722180              1.1458520              0.7408950
SP   1   1.00
      0.2120313              1.0000000              1.0000000
D    1   1.00
      1.8260000              1.0000000
D    1   1.00
      0.4565000              1.0000000
F    1   1.00
      1.0000000              1.0000000
****
O     0
S    6   1.00
   5484.6717000              0.0018311
    825.2349500              0.0139501
    188.0469600              0.0684451
     52.9645000              0.2327143
     16.8975700              0.4701930
      5.7996353              0.3585209
SP   3   1.00
     15.5396160             -0.1107775              0.0708743
      3.5999336             -0.1480263              0.3397528
      1.0137618              1.1307670              0.7271586
SP   1   1.00
      0.2700058              1.0000000              1.0000000
D    1   1.00
      2.5840000              1.0000000
D    1   1.00
      0.6460000              1.0000000
F    1   1.00
      1.4000000              1.0000000
****
F     0
S    6   1.00
   7001.7130900              0.0018196169
   1051.3660900              0.0139160796
    239.2856900              0.0684053245
     67.3974453              0.233185760
     21.5199573              0.471267439
      7.40310130             0.356618546
SP   3   1.00
     20.8479528             -0.108506975            0.0716287243
      4.80830834            -0.146451658            0.3459121030
      1.34406986             1.128688580            0.7224699570
SP   1   1.00
      0.358151393            1.0000000              1.0000000
D    1   1.00
      3.5000000              1.0000000
D    1   1.00
      0.8750000              1.0000000
F    1   1.00
      1.8500000              1.0000000
****
Al     0
S    6   1.00
  13983.1000000              0.00194267
   2098.7500000              0.0148599
    477.7050000              0.0728494
    134.3600000              0.2468300
     42.8709000              0.4872580
     14.5189000              0.3234960
SP   6   1.00
    239.6680000             -0.00292619             0.00460285
     57.4419000             -0.0374080              0.0331990
     18.2859000             -0.1144870              0.1362820
      6.5991400              0.1156350              0.3304760
      2.4904900              0.6125950              0.4491460
      0.9445400              0.3937990              0.2657040
SP   3   1.00
      1.2779000             -0.2276060             -0.0175130
      0.3975900              0.00144583             0.2445330
      0.1600950              1.0927900              0.8049340
SP   1   1.00
      0.0556577              1.0000000              1.0000000
D    1   1.00
      0.6500000              1.0000000
D    1   1.00
      0.1625000              1.0000000
F    1   1.00
      0.2500000              1.0000000
****
Si     0
S    6   1.00
  16115.9000000              0.00195948
   2425.5800000              0.01492880
    553.8670000              0.07284780
    156.3400000              0.24613000
     50.0683000              0.48591400
     17.0178000              0.32500200
SP   6   1.00
    292.7180000             -0.00278094             0.00443826
     69.8731000             -0.03571460             0.03266790
     22.3363000             -0.11498500             0.13472100
      8.1503900              0.09356340             0.32867800
      3.1345800              0.60301700             0.44964000
      1.2254300              0.41895900             0.26137200
SP   3   1.00
      1.7273800             -0.24463000            -0.01779510
      0.5729220              0.00431572             0.25353900
      0.2221920              1.09818000             0.80066900
SP   1   1.00
      0.0778369              1.00000000             1.00000000
D    1   1.00
      0.9000000              1.0000000
D    1   1.00
      0.2250000              1.0000000
F    1   1.00
      0.3200000              1.0000000
****
P     0
S    6   1.00
  19413.3000000              0.0018516
   2909.4200000              0.0142062
    661.3640000              0.0699995
    185.7590000              0.2400790
     59.1943000              0.4847620
     20.0310000              0.3352000
SP   6   1.00
    339.4780000             -0.00278217             0.00456462
     81.0101000             -0.0360499              0.03369360
     25.8780000             -0.1166310              0.13975500
      9.4522100              0.0968328              0.33936200
      3.6656600              0.6144180              0.45092100
      1.4674600              0.4037980              0.23858600
SP   3   1.00
      2.1562300             -0.2529230             -0.01776530
      0.7489970              0.0328517              0.27405800
      0.2831450              1.0812500              0.78542100
SP   1   1.00
      0.0998317              1.0000000              1.00000000
D    1   1.00
      1.1000000              1.0000000
D    1   1.00
      0.2750000              1.0000000
F    1   1.00
      0.4500000              1.0000000
****
S     0
S    6   1.00
  21917.1000000              0.0018690
   3301.4900000              0.0142300
    754.1460000              0.0696960
    212.7110000              0.2384870
     67.9896000              0.4833070
     23.0515000              0.3380740
SP   6   1.00
    423.7350000             -0.0023767              0.0040610
    100.7100000             -0.0316930              0.0306810
     32.1599000             -0.1133170              0.1304520
     11.8079000              0.0560900              0.3272050
      4.6311000              0.5922550              0.4528510
      1.8702500              0.4550060              0.2560420
SP   3   1.00
      2.6158400             -0.2503740             -0.0145110
      0.9221670              0.0669570              0.3102630
      0.3412870              1.0545100              0.7544830
SP   1   1.00
      0.1171670              1.0000000              1.0000000
D    1   1.00
      1.3000000              1.0000000
D    1   1.00
      0.3250000              1.0000000
F    1   1.00
      0.5500000              1.0000000
****
Cl     0
S    6   1.00
  25180.1000000              0.0018330
   3780.3500000              0.0140340
    860.4740000              0.0690970
    242.1450000              0.2374520
     77.3349000              0.4830340
     26.2470000              0.3398560
SP   6   1.00
    491.7650000             -0.0022974              0.0039894
    116.9840000             -0.0307140              0.0303180
     37.4153000             -0.1125280              0.1298800
     13.7834000              0.0450160              0.3279510
      5.4521500              0.5893530              0.4535270
      2.2258800              0.4652060              0.2521540
SP   3   1.00
      3.1864900             -0.2518300             -0.0142990
      1.1442700              0.0615890              0.3235720
      0.4203770              1.0601800              0.7435070
SP   1   1.00
      0.1426570              1.0000000              1.0000000
D    1   1.00
      1.5000000              1.0000000
D    1   1.00
      0.3750000              1.0000000
F    1   1.00
      0.7000000              1.0000000
****
}

set {
reference uhf
freeze_core true
e_convergence 10
d_convergence 10
dft_spherical_points 1202
dft_radial_points 99
}

e = energy('b3lyp')

print_out('Grab this energy {0}'.format(e))
--------------------------------------------------------------------------

    Molecular point group: c1

    Geometry (in Bohr), charge = 0, multiplicity = 2:

       Center              X                  Y                   Z               Mass
    ------------   -----------------  -----------------  -----------------  -----------------
         C           -0.323340577365    -0.000264465973     0.000206107267    12.000000000000
         C            0.061415272535    -1.400838057473    -2.426240452733    12.000000000000
         C            0.062395740635     2.801897268927    -0.000189292133    12.000000000000
         C            0.059489576935    -1.401071395673     2.426272464867    12.000000000000
         H            2.091804270335    -1.645716762573    -2.852233278933     1.007825032230
         H           -0.766457193865    -0.388575861673    -4.023165270433     1.007825032230
         H           -0.763580371465    -3.288362518373    -2.346410236633     1.007825032230
         H            2.082673943635     3.288822197027    -0.001889788433     1.007825032230
         H           -0.762771521465     3.679017097827     1.680159395267     1.007825032230
         H           -0.764700870565     3.681858148427    -1.679095211733     1.007825032230
         H            2.086182733435    -1.642038131673     2.842073548267     1.007825032230
         H           -0.767383403165    -3.291625865973     2.352741355567     1.007825032230
         H           -0.768335449965    -0.390084276573     4.027238109167     1.007825032230

  Charge       = 0
  Multiplicity = 2
  Basis Set: ANONYMOUS0A61FAAB
    Blend: 6-31G_2DFP_
  Basis Set: (ANONYMOUS0A61FAAB AUX)
    Blend: DEF2-UNIVERSAL-JKFIT

    Orbital Energies [Eh]
    ---------------------

    Alpha Occupied:

       1A    -10.180343     2A    -10.167063     3A    -10.167009
       4A    -10.166972     5A     -0.797767     6A     -0.686217
       7A     -0.686159     8A     -0.530777     9A     -0.441128
      10A     -0.434760    11A     -0.434581    12A     -0.382823
      13A     -0.382371    14A     -0.363610    15A     -0.338156
      16A     -0.337842    17A     -0.168961

    Alpha Virtual:

      18A      0.076071    19A      0.133981    20A      0.134326
      21A      0.142411    22A      0.142841    23A      0.154881
      24A      0.178618    25A      0.178936    26A      0.203552
      27A      0.214803    28A      0.275908    29A      0.276063
      30A      0.399098    31A      0.399358    32A      0.403344
      33A      0.423965    34A      0.424231    35A      0.456594
      36A      0.495241    37A      0.495534    38A      0.512162
      39A      0.513983    40A      0.578596    41A      0.579023
      42A      0.591306    43A      0.591936    44A      0.602610
      45A      0.624763    46A      0.631731    47A      0.636002
      48A      0.636535    49A      0.663041    50A      0.663797
      51A      0.683646    52A      0.684063    53A      0.734994
      54A      0.825341    55A      0.825463    56A      0.853921
      57A      0.914639    58A      0.915408    59A      0.944109
      60A      0.944611    61A      0.961141    62A      0.961473
      63A      1.003451    64A      1.127701    65A      1.128515
      66A      1.142196    67A      1.163093    68A      1.163466
      69A      1.223327    70A      1.274288    71A      1.274663
      72A      1.279384    73A      1.324272    74A      1.324436
      75A      1.355943    76A      1.366037    77A      1.366076
      78A      1.392448    79A      1.403379    80A      1.404728
      81A      1.416478    82A      1.417739    83A      1.427925
      84A      1.491497    85A      1.499059    86A      1.542390
      87A      1.543301    88A      1.573938    89A      1.574967
      90A      1.669824    91A      1.739217    92A      1.739566
      93A      1.768366    94A      1.830487    95A      1.832314
      96A      1.971708    97A      2.018172    98A      2.018620
      99A      2.019614   100A      2.051604   101A      2.053707
     102A      2.738079   103A      2.738896   104A      2.790927
     105A      2.811427   106A      2.889793   107A      2.890055
     108A      2.895003   109A      2.929187   110A      2.929804
     111A      2.958993   112A      2.964006   113A      2.964755
     114A      3.034011   115A      3.070635   116A      3.071926
     117A      3.084366   118A      3.168458   119A      3.169107
     120A      3.180594   121A      3.284971   122A      3.285660
     123A      3.326268   124A      3.328059   125A      3.375626
     126A      3.489085   127A      3.491226   128A      3.514007
     129A      3.525332   130A      3.568147   131A      3.568491
     132A      3.575302   133A      3.665526   134A      3.667220
     135A      3.679659   136A      3.693446   137A      3.694798
     138A      3.776729   139A      3.776864   140A      3.789180
     141A      3.912066   142A      3.912399   143A      4.034431
     144A      4.110890   145A      4.111817   146A      4.147517
     147A      4.148659   148A      4.173232   149A      4.201712
     150A      4.202796   151A      4.204265   152A      4.210913
     153A      4.315119   154A      4.316862   155A      4.358981
     156A      4.424144   157A      4.424811   158A      4.443407
     159A      4.515863   160A      4.517802   161A      4.578142
     162A      4.578398   163A      4.617608   164A      4.709401
     165A      4.773880   166A      4.775330   167A      4.836907
     168A      4.962869   169A      5.002022   170A      5.003877
     171A      5.228033   172A      5.244652   173A      5.248959
     174A      5.354305   175A      5.356778   176A      5.479373

    Beta Occupied:

       1A    -10.167817     2A    -10.167766     3A    -10.167741
       4A    -10.166520     5A     -0.781092     6A     -0.684015
       7A     -0.683967     8A     -0.511749     9A     -0.431143
      10A     -0.430945    11A     -0.421821    12A     -0.376918
      13A     -0.376446    14A     -0.362595    15A     -0.333266
      16A     -0.332978

    Beta Virtual:

      17A     -0.025743    18A      0.077080    19A      0.134883
      20A      0.135205    21A      0.144310    22A      0.144683
      23A      0.163338    24A      0.182275    25A      0.182623
      26A      0.215032    27A      0.218933    28A      0.282252
      29A      0.282415    30A      0.400271    31A      0.400523
      32A      0.419790    33A      0.426775    34A      0.427043
      35A      0.468501    36A      0.497496    37A      0.497803
      38A      0.513897    39A      0.556326    40A      0.584156
      41A      0.584565    42A      0.597476    43A      0.598131
      44A      0.610025    45A      0.628140    46A      0.631905
      47A      0.639290    48A      0.639800    49A      0.666636
      50A      0.667332    51A      0.686305    52A      0.686674
      53A      0.757517    54A      0.830512    55A      0.830629
      56A      0.855275    57A      0.922640    58A      0.923350
      59A      0.945948    60A      0.953537    61A      0.966429
      62A      0.966797    63A      1.008691    64A      1.131775
      65A      1.132496    66A      1.155564    67A      1.168129
      68A      1.168588    69A      1.232298    70A      1.279885
      71A      1.280260    72A      1.285140    73A      1.329257
      74A      1.329429    75A      1.365339    76A      1.371273
      77A      1.371345    78A      1.393508    79A      1.406809
      80A      1.408228    81A      1.421505    82A      1.422801
      83A      1.428206    84A      1.492546    85A      1.509499
      86A      1.546801    87A      1.547711    88A      1.581726
      89A      1.582919    90A      1.674670    91A      1.744985
      92A      1.745329    93A      1.779137    94A      1.834339
      95A      1.836175    96A      1.972569    97A      2.024980
      98A      2.025922    99A      2.039668   100A      2.058358
     101A      2.060392   102A      2.746423   103A      2.747223
     104A      2.811839   105A      2.816063   106A      2.902447
     107A      2.902828   108A      2.924654   109A      2.931682
     110A      2.932273   111A      2.960060   112A      2.968539
     113A      2.969312   114A      3.041944   115A      3.080478
     116A      3.081884   117A      3.086202   118A      3.184115
     119A      3.184944   120A      3.188283   121A      3.289746
     122A      3.290482   123A      3.330078   124A      3.331860
     125A      3.383443   126A      3.491842   127A      3.493930
     128A      3.512374   129A      3.528377   130A      3.574875
     131A      3.581667   132A      3.581933   133A      3.670242
     134A      3.672010   135A      3.692945   136A      3.725318
     137A      3.726195   138A      3.781283   139A      3.781377
     140A      3.817704   141A      3.921863   142A      3.922235
     143A      4.045318   144A      4.117734   145A      4.118606
     146A      4.154772   147A      4.155827   148A      4.187281
     149A      4.207999   150A      4.209440   151A      4.211186
     152A      4.215389   153A      4.322565   154A      4.324295
     155A      4.362342   156A      4.432356   157A      4.433029
     158A      4.446289   159A      4.523657   160A      4.525589
     161A      4.588726   162A      4.589013   163A      4.624802
     164A      4.719744   165A      4.780810   166A      4.782308
     167A      4.839825   168A      4.967665   169A      5.006085
     170A      5.007893   171A      5.233747   172A      5.246448
     173A      5.250733   174A      5.360776   175A      5.363267
     176A      5.481695

    Final Occupation by Irrep:
              A
    DOCC [    16 ]
    SOCC [     1 ]

  @DF-UKS Final Energy:  -157.81305685087807

   => Energetics <=

    Nuclear Repulsion Energy =            125.3946432269358269
    One-Electron Energy =                -458.7489109950381589
    Two-Electron Energy =                 195.8483572802319372
    DFT Exchange-Correlation Energy =     -20.3071463630076785
    Empirical Dispersion Energy =           0.0000000000000000
    VV10 Nonlocal Energy =                  0.0000000000000000
    Total Energy =                       -157.8130568508780698

  UHF NO Occupations:
  HONO-2 :   15  A 1.9996008
  HONO-1 :   16  A 1.9989804
  HONO-0 :   17  A 1.0000000
  LUNO+0 :   18  A 0.0010196
  LUNO+1 :   19  A 0.0003992
  LUNO+2 :   20  A 0.0001977
  LUNO+3 :   21  A 0.0001974

Computation Completed

Properties will be evaluated at   0.000000,   0.000000,   0.000000 [a0]

Properties computed using the SCF density matrix

  Nuclear Dipole Moment: [e a0]
     X:     0.8272      Y:     0.0016      Z:    -0.0003

  Electronic Dipole Moment: [e a0]
     X:    -0.7493      Y:    -0.0023      Z:     0.0011

  Dipole Moment: [e a0]
     X:     0.0779      Y:    -0.0006      Z:     0.0008     Total:     0.0779

  Dipole Moment: [D]
     X:     0.1980      Y:    -0.0016      Z:     0.0020     Total:     0.1980

*** tstop() called on n032 at Fri Nov  5 14:17:00 2021
Module time:
	user time   =     630.68 seconds =      10.51 minutes
	system time =      13.58 seconds =       0.23 minutes
	total time  =        162 seconds =       2.70 minutes
Total time:
	user time   =     630.68 seconds =      10.51 minutes
	system time =      13.58 seconds =       0.23 minutes
	total time  =        162 seconds =       2.70 minutes
Grab this energy -157.81305685087807
    Psi4 stopped on: Friday, 05 November 2021 02:17PM
    Psi4 wall time for execution: 0:02:42.00

*** Psi4 exiting successfully. Buy a developer a beer!
