                               Psi4 1.4a2.dev629

  ==> Input File <==

--------------------------------------------------------------------------
import os
memory 14 GB

molecule {
 C   -0.3233402711    0.0019961647   -0.0000013106
 C    0.0612162224   -1.4002632728   -2.4272225915
 C    0.0608662818    2.8009137816   -0.0000478608
 C    0.0612178447   -1.4001827146    2.4272717799
 H    2.0868206869   -1.6462077298   -2.8488727186
 H   -0.7628359856   -0.3890299171   -4.0302482962
 H   -0.7686446671   -3.2888138758   -2.3453337620
 H    2.0870162593    3.2835158853   -0.0046540222
 H   -0.7611306531    3.6802465321    1.6777203104
 H   -0.7691425012    3.6807058110   -1.6737385762
 H    2.0868126059   -1.6381461090    2.8535307207
 H   -0.7606105883   -3.2920391091    2.3429527194
 H   -0.7708531114   -0.3927197601    4.0286436077
units bohr
0 2
}

basis {

assign 6-31g_2dfp_

[ 6-31g_2dfp_ ]

spherical

!----------------------------------------------------------------------
! Basis Set Exchange
! Version v0.8.13
! https://www.basissetexchange.org
!----------------------------------------------------------------------
!   Basis set: 6-31G(2df,p)
! Description: 6-31G(2df,p)
!        Role: orbital
!     Version: 0  (Data from the original Basis Set Exchange)
!----------------------------------------------------------------------

****
H     0
S    3   1.00
     18.7311370              0.03349460
      2.8253937              0.23472695
      0.6401217              0.81375733
S    1   1.00
      0.1612778              1.00000000
P    1   1.00
      1.5000000              1.0000000
P    1   1.00
      0.3750000              1.0000000
****
B     0
S    6   1.00
   2068.8823000              0.0018663
    310.6495700              0.0142515
     70.6830330              0.0695516
     19.8610800              0.2325729
      6.2993048              0.4670787
      2.1270270              0.3634314
SP   3   1.00
      4.7279710             -0.1303938              0.0745976
      1.1903377             -0.1307889              0.3078467
      0.3594117              1.1309444              0.7434568
SP   1   1.00
      0.1267512              1.0000000              1.0000000
D    1   1.00
      0.8020000              1.0000000
D    1   1.00
      0.2005000              1.0000000
F    1   1.00
      0.5000000              1.0000000
****
C     0
S    6   1.00
   3047.5249000              0.0018347
    457.3695100              0.0140373
    103.9486900              0.0688426
     29.2101550              0.2321844
      9.2866630              0.4679413
      3.1639270              0.3623120
SP   3   1.00
      7.8682724             -0.1193324              0.0689991
      1.8812885             -0.1608542              0.3164240
      0.5442493              1.1434564              0.7443083
SP   1   1.00
      0.1687144              1.0000000              1.0000000
D    1   1.00
      1.2520000              1.0000000
D    1   1.00
      0.3130000              1.0000000
F    1   1.00
      0.8000000              1.0000000
****
N     0
S    6   1.00
   4173.5110000              0.0018348
    627.4579000              0.0139950
    142.9021000              0.0685870
     40.2343300              0.2322410
     12.8202100              0.4690700
      4.3904370              0.3604550
SP   3   1.00
     11.6263580             -0.1149610              0.0675800
      2.7162800             -0.1691180              0.3239070
      0.7722180              1.1458520              0.7408950
SP   1   1.00
      0.2120313              1.0000000              1.0000000
D    1   1.00
      1.8260000              1.0000000
D    1   1.00
      0.4565000              1.0000000
F    1   1.00
      1.0000000              1.0000000
****
O     0
S    6   1.00
   5484.6717000              0.0018311
    825.2349500              0.0139501
    188.0469600              0.0684451
     52.9645000              0.2327143
     16.8975700              0.4701930
      5.7996353              0.3585209
SP   3   1.00
     15.5396160             -0.1107775              0.0708743
      3.5999336             -0.1480263              0.3397528
      1.0137618              1.1307670              0.7271586
SP   1   1.00
      0.2700058              1.0000000              1.0000000
D    1   1.00
      2.5840000              1.0000000
D    1   1.00
      0.6460000              1.0000000
F    1   1.00
      1.4000000              1.0000000
****
F     0
S    6   1.00
   7001.7130900              0.0018196169
   1051.3660900              0.0139160796
    239.2856900              0.0684053245
     67.3974453              0.233185760
     21.5199573              0.471267439
      7.40310130             0.356618546
SP   3   1.00
     20.8479528             -0.108506975            0.0716287243
      4.80830834            -0.146451658            0.3459121030
      1.34406986             1.128688580            0.7224699570
SP   1   1.00
      0.358151393            1.0000000              1.0000000
D    1   1.00
      3.5000000              1.0000000
D    1   1.00
      0.8750000              1.0000000
F    1   1.00
      1.8500000              1.0000000
****
Al     0
S    6   1.00
  13983.1000000              0.00194267
   2098.7500000              0.0148599
    477.7050000              0.0728494
    134.3600000              0.2468300
     42.8709000              0.4872580
     14.5189000              0.3234960
SP   6   1.00
    239.6680000             -0.00292619             0.00460285
     57.4419000             -0.0374080              0.0331990
     18.2859000             -0.1144870              0.1362820
      6.5991400              0.1156350              0.3304760
      2.4904900              0.6125950              0.4491460
      0.9445400              0.3937990              0.2657040
SP   3   1.00
      1.2779000             -0.2276060             -0.0175130
      0.3975900              0.00144583             0.2445330
      0.1600950              1.0927900              0.8049340
SP   1   1.00
      0.0556577              1.0000000              1.0000000
D    1   1.00
      0.6500000              1.0000000
D    1   1.00
      0.1625000              1.0000000
F    1   1.00
      0.2500000              1.0000000
****
Si     0
S    6   1.00
  16115.9000000              0.00195948
   2425.5800000              0.01492880
    553.8670000              0.07284780
    156.3400000              0.24613000
     50.0683000              0.48591400
     17.0178000              0.32500200
SP   6   1.00
    292.7180000             -0.00278094             0.00443826
     69.8731000             -0.03571460             0.03266790
     22.3363000             -0.11498500             0.13472100
      8.1503900              0.09356340             0.32867800
      3.1345800              0.60301700             0.44964000
      1.2254300              0.41895900             0.26137200
SP   3   1.00
      1.7273800             -0.24463000            -0.01779510
      0.5729220              0.00431572             0.25353900
      0.2221920              1.09818000             0.80066900
SP   1   1.00
      0.0778369              1.00000000             1.00000000
D    1   1.00
      0.9000000              1.0000000
D    1   1.00
      0.2250000              1.0000000
F    1   1.00
      0.3200000              1.0000000
****
P     0
S    6   1.00
  19413.3000000              0.0018516
   2909.4200000              0.0142062
    661.3640000              0.0699995
    185.7590000              0.2400790
     59.1943000              0.4847620
     20.0310000              0.3352000
SP   6   1.00
    339.4780000             -0.00278217             0.00456462
     81.0101000             -0.0360499              0.03369360
     25.8780000             -0.1166310              0.13975500
      9.4522100              0.0968328              0.33936200
      3.6656600              0.6144180              0.45092100
      1.4674600              0.4037980              0.23858600
SP   3   1.00
      2.1562300             -0.2529230             -0.01776530
      0.7489970              0.0328517              0.27405800
      0.2831450              1.0812500              0.78542100
SP   1   1.00
      0.0998317              1.0000000              1.00000000
D    1   1.00
      1.1000000              1.0000000
D    1   1.00
      0.2750000              1.0000000
F    1   1.00
      0.4500000              1.0000000
****
S     0
S    6   1.00
  21917.1000000              0.0018690
   3301.4900000              0.0142300
    754.1460000              0.0696960
    212.7110000              0.2384870
     67.9896000              0.4833070
     23.0515000              0.3380740
SP   6   1.00
    423.7350000             -0.0023767              0.0040610
    100.7100000             -0.0316930              0.0306810
     32.1599000             -0.1133170              0.1304520
     11.8079000              0.0560900              0.3272050
      4.6311000              0.5922550              0.4528510
      1.8702500              0.4550060              0.2560420
SP   3   1.00
      2.6158400             -0.2503740             -0.0145110
      0.9221670              0.0669570              0.3102630
      0.3412870              1.0545100              0.7544830
SP   1   1.00
      0.1171670              1.0000000              1.0000000
D    1   1.00
      1.3000000              1.0000000
D    1   1.00
      0.3250000              1.0000000
F    1   1.00
      0.5500000              1.0000000
****
Cl     0
S    6   1.00
  25180.1000000              0.0018330
   3780.3500000              0.0140340
    860.4740000              0.0690970
    242.1450000              0.2374520
     77.3349000              0.4830340
     26.2470000              0.3398560
SP   6   1.00
    491.7650000             -0.0022974              0.0039894
    116.9840000             -0.0307140              0.0303180
     37.4153000             -0.1125280              0.1298800
     13.7834000              0.0450160              0.3279510
      5.4521500              0.5893530              0.4535270
      2.2258800              0.4652060              0.2521540
SP   3   1.00
      3.1864900             -0.2518300             -0.0142990
      1.1442700              0.0615890              0.3235720
      0.4203770              1.0601800              0.7435070
SP   1   1.00
      0.1426570              1.0000000              1.0000000
D    1   1.00
      1.5000000              1.0000000
D    1   1.00
      0.3750000              1.0000000
F    1   1.00
      0.7000000              1.0000000
****
}

set {
reference uhf
freeze_core true
e_convergence 10
d_convergence 10
dft_spherical_points 1202
dft_radial_points 99
}

e = energy('b3lyp')

print_out('Grab this energy {0}'.format(e))
--------------------------------------------------------------------------

    Molecular point group: c1

    Geometry (in Bohr), charge = 0, multiplicity = 2:

       Center              X                  Y                   Z               Mass
    ------------   -----------------  -----------------  -----------------  -----------------
         C           -0.323340283164     0.001522017831    -0.000001313874    12.000000000000
         C            0.061216210336    -1.400737419669    -2.427222594774    12.000000000000
         C            0.060866269736     2.800439634731    -0.000047864074    12.000000000000
         C            0.061217832636    -1.400656861469     2.427271776626    12.000000000000
         H            2.086820674836    -1.646681876669    -2.848872721874     1.007825032230
         H           -0.762835997664    -0.389504063969    -4.030248299474     1.007825032230
         H           -0.768644679164    -3.289288022669    -2.345333765274     1.007825032230
         H            2.087016247236     3.283041738431    -0.004654025474     1.007825032230
         H           -0.761130665164     3.679772385231     1.677720307126     1.007825032230
         H           -0.769142513264     3.680231664131    -1.673738579474     1.007825032230
         H            2.086812593836    -1.638620255869     2.853530717426     1.007825032230
         H           -0.760610600364    -3.292513255969     2.342952716126     1.007825032230
         H           -0.770853123464    -0.393193906969     4.028643604426     1.007825032230

  Charge       = 0
  Multiplicity = 2
  Basis Set: ANONYMOUS07E8C3C6
    Blend: 6-31G_2DFP_
  Basis Set: (ANONYMOUS07E8C3C6 AUX)
    Blend: DEF2-UNIVERSAL-JKFIT

    Orbital Energies [Eh]
    ---------------------

    Alpha Occupied:

       1A    -10.180342     2A    -10.167121     3A    -10.167092
       4A    -10.166831     5A     -0.797767     6A     -0.686308
       7A     -0.686065     8A     -0.530775     9A     -0.441129
      10A     -0.434737    11A     -0.434602    12A     -0.382634
      13A     -0.382564    14A     -0.363612    15A     -0.338065
      16A     -0.337932    17A     -0.168960

    Alpha Virtual:

      18A      0.076073    19A      0.134125    20A      0.134187
      21A      0.142564    22A      0.142689    23A      0.154880
      24A      0.178738    25A      0.178816    26A      0.203547
      27A      0.214804    28A      0.275716    29A      0.276255
      30A      0.399195    31A      0.399255    32A      0.403353
      33A      0.424044    34A      0.424152    35A      0.456593
      36A      0.495330    37A      0.495449    38A      0.512146
      39A      0.513993    40A      0.578533    41A      0.579101
      42A      0.591339    43A      0.591924    44A      0.602574
      45A      0.624758    46A      0.631778    47A      0.636208
      48A      0.636293    49A      0.663379    50A      0.663444
      51A      0.683825    52A      0.683879    53A      0.734994
      54A      0.825193    55A      0.825621    56A      0.853914
      57A      0.914883    58A      0.915152    59A      0.944009
      60A      0.944716    61A      0.960619    62A      0.961983
      63A      1.003474    64A      1.127881    65A      1.128325
      66A      1.142224    67A      1.163165    68A      1.163390
      69A      1.223326    70A      1.274331    71A      1.274641
      72A      1.279347    73A      1.324354    74A      1.324363
      75A      1.355980    76A      1.365882    77A      1.366217
      78A      1.392470    79A      1.403745    80A      1.404365
      81A      1.416716    82A      1.417513    83A      1.427907
      84A      1.491467    85A      1.499101    86A      1.542552
      87A      1.543103    88A      1.574435    89A      1.574451
      90A      1.669832    91A      1.739052    92A      1.739789
      93A      1.768312    94A      1.830903    95A      1.831894
      96A      1.971725    97A      2.018027    98A      2.019096
      99A      2.019269   100A      2.051834   101A      2.053441
     102A      2.738203   103A      2.738765   104A      2.790922
     105A      2.811416   106A      2.889704   107A      2.890168
     108A      2.894994   109A      2.929480   110A      2.929515
     111A      2.958993   112A      2.964215   113A      2.964534
     114A      3.034008   115A      3.071158   116A      3.071406
     117A      3.084350   118A      3.168586   119A      3.168983
     120A      3.180584   121A      3.285269   122A      3.285359
     123A      3.326834   124A      3.327482   125A      3.375622
     126A      3.489976   127A      3.490328   128A      3.514008
     129A      3.525314   130A      3.567984   131A      3.568728
     132A      3.575243   133A      3.666180   134A      3.666551
     135A      3.679632   136A      3.693705   137A      3.694583
     138A      3.775556   139A      3.778050   140A      3.789154
     141A      3.911965   142A      3.912494   143A      4.034453
     144A      4.110099   145A      4.112626   146A      4.147254
     147A      4.148965   148A      4.173284   149A      4.202630
     150A      4.203011   151A      4.203148   152A      4.210860
     153A      4.315142   154A      4.316743   155A      4.359026
     156A      4.424204   157A      4.424713   158A      4.443444
     159A      4.516417   160A      4.517242   161A      4.577932
     162A      4.578588   163A      4.617526   164A      4.709446
     165A      4.773552   166A      4.775623   167A      4.836951
     168A      4.962859   169A      5.002587   170A      5.003319
     171A      5.228038   172A      5.246352   173A      5.247271
     174A      5.354783   175A      5.356213   176A      5.479354

    Beta Occupied:

       1A    -10.167874     2A    -10.167857     3A    -10.167593
       4A    -10.166519     5A     -0.781092     6A     -0.684104
       7A     -0.683875     8A     -0.511747     9A     -0.431106
      10A     -0.430982    11A     -0.421818    12A     -0.376715
      13A     -0.376654    14A     -0.362595    15A     -0.333183
      16A     -0.333059

    Beta Virtual:

      17A     -0.025742    18A      0.077082    19A      0.135023
      20A      0.135069    21A      0.144434    22A      0.144561
      23A      0.163339    24A      0.182427    25A      0.182470
      26A      0.215032    27A      0.218930    28A      0.282074
      29A      0.282593    30A      0.400365    31A      0.400430
      32A      0.419790    33A      0.426856    34A      0.426965
      35A      0.468500    36A      0.497594    37A      0.497707
      38A      0.513894    39A      0.556325    40A      0.584081
      41A      0.584652    42A      0.597533    43A      0.598091
      44A      0.609996    45A      0.628134    46A      0.631935
      47A      0.639475    48A      0.639598    49A      0.666941
      50A      0.667010    51A      0.686438    52A      0.686536
      53A      0.757517    54A      0.830339    55A      0.830812
      56A      0.855267    57A      0.922887    58A      0.923090
      59A      0.945942    60A      0.953545    61A      0.965985
      62A      0.967234    63A      1.008714    64A      1.131835
      65A      1.132427    66A      1.155603    67A      1.168319
      68A      1.168380    69A      1.232298    70A      1.279929
      71A      1.280236    72A      1.285101    73A      1.329332
      74A      1.329363    75A      1.365391    76A      1.371154
      77A      1.371430    78A      1.393535    79A      1.407182
      80A      1.407856    81A      1.421771    82A      1.422560
      83A      1.428176    84A      1.492529    85A      1.509531
      86A      1.546957    87A      1.547513    88A      1.582310
      89A      1.582320    90A      1.674678    91A      1.744805
      92A      1.745560    93A      1.779092    94A      1.834760
      95A      1.835748    96A      1.972585    97A      2.025370
      98A      2.025512    99A      2.039691   100A      2.058520
     101A      2.060183   102A      2.746557   103A      2.747084
     104A      2.811783   105A      2.816103   106A      2.902449
     107A      2.902835   108A      2.924667   109A      2.931974
     110A      2.931981   111A      2.960055   112A      2.968777
     113A      2.969060   114A      3.041943   115A      3.081076
     116A      3.081308   117A      3.086166   118A      3.184306
     119A      3.184772   120A      3.188258   121A      3.290043
     122A      3.290182   123A      3.330656   124A      3.331270
     125A      3.383441   126A      3.492721   127A      3.493040
     128A      3.512380   129A      3.528362   130A      3.574914
     131A      3.581469   132A      3.582101   133A      3.671081
     134A      3.671179   135A      3.692924   136A      3.725645
     137A      3.725879   138A      3.780128   139A      3.782530
     140A      3.817700   141A      3.921800   142A      3.922293
     143A      4.045340   144A      4.117026   145A      4.119333
     146A      4.154436   147A      4.156205   148A      4.187337
     149A      4.208930   150A      4.209080   151A      4.210621
     152A      4.215336   153A      4.322553   154A      4.324207
     155A      4.362393   156A      4.432468   157A      4.432879
     158A      4.446329   159A      4.524217   160A      4.525021
     161A      4.588537   162A      4.589184   163A      4.624721
     164A      4.719790   165A      4.780549   166A      4.782532
     167A      4.839870   168A      4.967653   169A      5.006617
     170A      5.007368   171A      5.233754   172A      5.248128
     173A      5.249062   174A      5.361243   175A      5.362715
     176A      5.481675

    Final Occupation by Irrep:
              A
    DOCC [    16 ]
    SOCC [     1 ]

  @DF-UKS Final Energy:  -157.81306938811119

   => Energetics <=

    Nuclear Repulsion Energy =            125.3946058657370344
    One-Electron Energy =                -458.7488781413230186
    Two-Electron Energy =                 195.8483453139849075
    DFT Exchange-Correlation Energy =     -20.3071424265101328
    Empirical Dispersion Energy =           0.0000000000000000
    VV10 Nonlocal Energy =                  0.0000000000000000
    Total Energy =                       -157.8130693881111881

  UHF NO Occupations:
  HONO-2 :   15  A 1.9996009
  HONO-1 :   16  A 1.9989804
  HONO-0 :   17  A 1.0000000
  LUNO+0 :   18  A 0.0010196
  LUNO+1 :   19  A 0.0003991
  LUNO+2 :   20  A 0.0001979
  LUNO+3 :   21  A 0.0001972

Computation Completed

Properties will be evaluated at   0.000000,   0.000000,   0.000000 [a0]

Properties computed using the SCF density matrix

  Nuclear Dipole Moment: [e a0]
     X:     0.8272      Y:    -0.0034      Z:    -0.0000

  Electronic Dipole Moment: [e a0]
     X:    -0.7493      Y:     0.0034      Z:    -0.0000

  Dipole Moment: [e a0]
     X:     0.0779      Y:     0.0000      Z:    -0.0000     Total:     0.0779

  Dipole Moment: [D]
     X:     0.1980      Y:     0.0001      Z:    -0.0000     Total:     0.1980

*** tstop() called on n091 at Fri Nov  5 15:31:22 2021
Module time:
	user time   =     492.75 seconds =       8.21 minutes
	system time =       4.50 seconds =       0.07 minutes
	total time  =        125 seconds =       2.08 minutes
Total time:
	user time   =     492.75 seconds =       8.21 minutes
	system time =       4.50 seconds =       0.07 minutes
	total time  =        125 seconds =       2.08 minutes
Grab this energy -157.8130693881112
    Psi4 stopped on: Friday, 05 November 2021 03:31PM
    Psi4 wall time for execution: 0:02:05.02

*** Psi4 exiting successfully. Buy a developer a beer!
