                               Psi4 1.4a2.dev629

  ==> Input File <==

--------------------------------------------------------------------------
import os
memory 14 GB

molecule {
 C   -0.3243645725   -0.0000014200   -0.0004317761
 C    0.0603486626   -1.4003065692   -2.4267802550
 C    0.0599612893    2.8019138828   -0.0013877350
 C    0.0598114030   -1.4016016778    2.4262478170
 H    2.0894605994   -1.6427970436   -2.8486846268
 H   -0.7644554748   -0.3901859289   -4.0233821584
 H   -0.7678250094   -3.2917208297   -2.3492291237
 H    2.0901111404    3.2885215809   -0.0034980859
 H   -0.7698087464    3.6809045702    1.6765394015
 H   -0.7633965002    3.6790911685   -1.6717598428
 H    2.0910383356   -1.6458181302    2.8469204126
 H   -0.7652228470   -3.2879519498    2.3506543620
 H   -0.7682661567   -0.3900719666    4.0247916104
units bohr
0 2
}

basis {

assign 6-31g_2dfp_

[ 6-31g_2dfp_ ]

spherical

!----------------------------------------------------------------------
! Basis Set Exchange
! Version v0.8.13
! https://www.basissetexchange.org
!----------------------------------------------------------------------
!   Basis set: 6-31G(2df,p)
! Description: 6-31G(2df,p)
!        Role: orbital
!     Version: 0  (Data from the original Basis Set Exchange)
!----------------------------------------------------------------------

****
H     0
S    3   1.00
     18.7311370              0.03349460
      2.8253937              0.23472695
      0.6401217              0.81375733
S    1   1.00
      0.1612778              1.00000000
P    1   1.00
      1.5000000              1.0000000
P    1   1.00
      0.3750000              1.0000000
****
B     0
S    6   1.00
   2068.8823000              0.0018663
    310.6495700              0.0142515
     70.6830330              0.0695516
     19.8610800              0.2325729
      6.2993048              0.4670787
      2.1270270              0.3634314
SP   3   1.00
      4.7279710             -0.1303938              0.0745976
      1.1903377             -0.1307889              0.3078467
      0.3594117              1.1309444              0.7434568
SP   1   1.00
      0.1267512              1.0000000              1.0000000
D    1   1.00
      0.8020000              1.0000000
D    1   1.00
      0.2005000              1.0000000
F    1   1.00
      0.5000000              1.0000000
****
C     0
S    6   1.00
   3047.5249000              0.0018347
    457.3695100              0.0140373
    103.9486900              0.0688426
     29.2101550              0.2321844
      9.2866630              0.4679413
      3.1639270              0.3623120
SP   3   1.00
      7.8682724             -0.1193324              0.0689991
      1.8812885             -0.1608542              0.3164240
      0.5442493              1.1434564              0.7443083
SP   1   1.00
      0.1687144              1.0000000              1.0000000
D    1   1.00
      1.2520000              1.0000000
D    1   1.00
      0.3130000              1.0000000
F    1   1.00
      0.8000000              1.0000000
****
N     0
S    6   1.00
   4173.5110000              0.0018348
    627.4579000              0.0139950
    142.9021000              0.0685870
     40.2343300              0.2322410
     12.8202100              0.4690700
      4.3904370              0.3604550
SP   3   1.00
     11.6263580             -0.1149610              0.0675800
      2.7162800             -0.1691180              0.3239070
      0.7722180              1.1458520              0.7408950
SP   1   1.00
      0.2120313              1.0000000              1.0000000
D    1   1.00
      1.8260000              1.0000000
D    1   1.00
      0.4565000              1.0000000
F    1   1.00
      1.0000000              1.0000000
****
O     0
S    6   1.00
   5484.6717000              0.0018311
    825.2349500              0.0139501
    188.0469600              0.0684451
     52.9645000              0.2327143
     16.8975700              0.4701930
      5.7996353              0.3585209
SP   3   1.00
     15.5396160             -0.1107775              0.0708743
      3.5999336             -0.1480263              0.3397528
      1.0137618              1.1307670              0.7271586
SP   1   1.00
      0.2700058              1.0000000              1.0000000
D    1   1.00
      2.5840000              1.0000000
D    1   1.00
      0.6460000              1.0000000
F    1   1.00
      1.4000000              1.0000000
****
F     0
S    6   1.00
   7001.7130900              0.0018196169
   1051.3660900              0.0139160796
    239.2856900              0.0684053245
     67.3974453              0.233185760
     21.5199573              0.471267439
      7.40310130             0.356618546
SP   3   1.00
     20.8479528             -0.108506975            0.0716287243
      4.80830834            -0.146451658            0.3459121030
      1.34406986             1.128688580            0.7224699570
SP   1   1.00
      0.358151393            1.0000000              1.0000000
D    1   1.00
      3.5000000              1.0000000
D    1   1.00
      0.8750000              1.0000000
F    1   1.00
      1.8500000              1.0000000
****
Al     0
S    6   1.00
  13983.1000000              0.00194267
   2098.7500000              0.0148599
    477.7050000              0.0728494
    134.3600000              0.2468300
     42.8709000              0.4872580
     14.5189000              0.3234960
SP   6   1.00
    239.6680000             -0.00292619             0.00460285
     57.4419000             -0.0374080              0.0331990
     18.2859000             -0.1144870              0.1362820
      6.5991400              0.1156350              0.3304760
      2.4904900              0.6125950              0.4491460
      0.9445400              0.3937990              0.2657040
SP   3   1.00
      1.2779000             -0.2276060             -0.0175130
      0.3975900              0.00144583             0.2445330
      0.1600950              1.0927900              0.8049340
SP   1   1.00
      0.0556577              1.0000000              1.0000000
D    1   1.00
      0.6500000              1.0000000
D    1   1.00
      0.1625000              1.0000000
F    1   1.00
      0.2500000              1.0000000
****
Si     0
S    6   1.00
  16115.9000000              0.00195948
   2425.5800000              0.01492880
    553.8670000              0.07284780
    156.3400000              0.24613000
     50.0683000              0.48591400
     17.0178000              0.32500200
SP   6   1.00
    292.7180000             -0.00278094             0.00443826
     69.8731000             -0.03571460             0.03266790
     22.3363000             -0.11498500             0.13472100
      8.1503900              0.09356340             0.32867800
      3.1345800              0.60301700             0.44964000
      1.2254300              0.41895900             0.26137200
SP   3   1.00
      1.7273800             -0.24463000            -0.01779510
      0.5729220              0.00431572             0.25353900
      0.2221920              1.09818000             0.80066900
SP   1   1.00
      0.0778369              1.00000000             1.00000000
D    1   1.00
      0.9000000              1.0000000
D    1   1.00
      0.2250000              1.0000000
F    1   1.00
      0.3200000              1.0000000
****
P     0
S    6   1.00
  19413.3000000              0.0018516
   2909.4200000              0.0142062
    661.3640000              0.0699995
    185.7590000              0.2400790
     59.1943000              0.4847620
     20.0310000              0.3352000
SP   6   1.00
    339.4780000             -0.00278217             0.00456462
     81.0101000             -0.0360499              0.03369360
     25.8780000             -0.1166310              0.13975500
      9.4522100              0.0968328              0.33936200
      3.6656600              0.6144180              0.45092100
      1.4674600              0.4037980              0.23858600
SP   3   1.00
      2.1562300             -0.2529230             -0.01776530
      0.7489970              0.0328517              0.27405800
      0.2831450              1.0812500              0.78542100
SP   1   1.00
      0.0998317              1.0000000              1.00000000
D    1   1.00
      1.1000000              1.0000000
D    1   1.00
      0.2750000              1.0000000
F    1   1.00
      0.4500000              1.0000000
****
S     0
S    6   1.00
  21917.1000000              0.0018690
   3301.4900000              0.0142300
    754.1460000              0.0696960
    212.7110000              0.2384870
     67.9896000              0.4833070
     23.0515000              0.3380740
SP   6   1.00
    423.7350000             -0.0023767              0.0040610
    100.7100000             -0.0316930              0.0306810
     32.1599000             -0.1133170              0.1304520
     11.8079000              0.0560900              0.3272050
      4.6311000              0.5922550              0.4528510
      1.8702500              0.4550060              0.2560420
SP   3   1.00
      2.6158400             -0.2503740             -0.0145110
      0.9221670              0.0669570              0.3102630
      0.3412870              1.0545100              0.7544830
SP   1   1.00
      0.1171670              1.0000000              1.0000000
D    1   1.00
      1.3000000              1.0000000
D    1   1.00
      0.3250000              1.0000000
F    1   1.00
      0.5500000              1.0000000
****
Cl     0
S    6   1.00
  25180.1000000              0.0018330
   3780.3500000              0.0140340
    860.4740000              0.0690970
    242.1450000              0.2374520
     77.3349000              0.4830340
     26.2470000              0.3398560
SP   6   1.00
    491.7650000             -0.0022974              0.0039894
    116.9840000             -0.0307140              0.0303180
     37.4153000             -0.1125280              0.1298800
     13.7834000              0.0450160              0.3279510
      5.4521500              0.5893530              0.4535270
      2.2258800              0.4652060              0.2521540
SP   3   1.00
      3.1864900             -0.2518300             -0.0142990
      1.1442700              0.0615890              0.3235720
      0.4203770              1.0601800              0.7435070
SP   1   1.00
      0.1426570              1.0000000              1.0000000
D    1   1.00
      1.5000000              1.0000000
D    1   1.00
      0.3750000              1.0000000
F    1   1.00
      0.7000000              1.0000000
****
}

set {
reference uhf
freeze_core true
e_convergence 10
d_convergence 10
dft_spherical_points 1202
dft_radial_points 99
}

e = energy('b3lyp')

print_out('Grab this energy {0}'.format(e))
--------------------------------------------------------------------------

    Molecular point group: c1

    Geometry (in Bohr), charge = 0, multiplicity = 2:

       Center              X                  Y                   Z               Mass
    ------------   -----------------  -----------------  -----------------  -----------------
         C           -0.323554999597    -0.000001802635     0.000021226240    12.000000000000
         C            0.061158235503    -1.400306951835    -2.426327252660    12.000000000000
         C            0.060770862203     2.801913500165    -0.000934732660    12.000000000000
         C            0.060620975903    -1.401602060435     2.426700819340    12.000000000000
         H            2.090270172303    -1.642797426235    -2.848231624460     1.007825032230
         H           -0.763645901897    -0.390186311535    -4.022929156060     1.007825032230
         H           -0.767015436497    -3.291721212335    -2.348776121360     1.007825032230
         H            2.090920713303     3.288521198265    -0.003045083560     1.007825032230
         H           -0.768999173497     3.680904187565     1.676992403840     1.007825032230
         H           -0.762586927297     3.679090785865    -1.671306840460     1.007825032230
         H            2.091847908503    -1.645818512835     2.847373414940     1.007825032230
         H           -0.764413274097    -3.287952332435     2.351107364340     1.007825032230
         H           -0.767456583797    -0.390072349235     4.025244612740     1.007825032230

  Charge       = 0
  Multiplicity = 2
  Basis Set: ANONYMOUS40256100
    Blend: 6-31G_2DFP_
  Basis Set: (ANONYMOUS40256100 AUX)
    Blend: DEF2-UNIVERSAL-JKFIT

    Orbital Energies [Eh]
    ---------------------

    Alpha Occupied:

       1A    -10.180401     2A    -10.167037     3A    -10.167030
       4A    -10.166987     5A     -0.797729     6A     -0.686244
       7A     -0.686123     8A     -0.530771     9A     -0.441027
      10A     -0.434902    11A     -0.434527    12A     -0.382484
      13A     -0.382439    14A     -0.363790    15A     -0.338214
      16A     -0.337890    17A     -0.168999

    Alpha Virtual:

      18A      0.076155    19A      0.134039    20A      0.134251
      21A      0.142504    22A      0.142899    23A      0.154715
      24A      0.178510    25A      0.178699    26A      0.203505
      27A      0.215077    28A      0.275851    29A      0.276071
      30A      0.398862    31A      0.399353    32A      0.403257
      33A      0.424123    34A      0.424448    35A      0.456518
      36A      0.495518    37A      0.495621    38A      0.512043
      39A      0.513826    40A      0.578585    41A      0.578703
      42A      0.591229    43A      0.591507    44A      0.601818
      45A      0.625228    46A      0.632157    47A      0.636360
      48A      0.636931    49A      0.662715    50A      0.663138
      51A      0.683909    52A      0.684314    53A      0.735056
      54A      0.825120    55A      0.825626    56A      0.853637
      57A      0.914589    58A      0.915017    59A      0.944413
      60A      0.944747    61A      0.961114    62A      0.961281
      63A      1.003268    64A      1.128081    65A      1.128645
      66A      1.141502    67A      1.163474    68A      1.163596
      69A      1.223736    70A      1.274006    71A      1.274493
      72A      1.279193    73A      1.323929    74A      1.324341
      75A      1.356508    76A      1.365659    77A      1.366286
      78A      1.392394    79A      1.402974    80A      1.403069
      81A      1.417380    82A      1.418807    83A      1.427688
      84A      1.491487    85A      1.498145    86A      1.542448
      87A      1.542494    88A      1.574609    89A      1.575019
      90A      1.671094    91A      1.737865    92A      1.739279
      93A      1.766465    94A      1.832008    95A      1.833562
      96A      1.972771    97A      2.017605    98A      2.018795
      99A      2.019848   100A      2.050878   101A      2.051955
     102A      2.738619   103A      2.738987   104A      2.790533
     105A      2.811882   106A      2.889430   107A      2.889730
     108A      2.894596   109A      2.929681   110A      2.929730
     111A      2.958829   112A      2.963919   113A      2.964041
     114A      3.033320   115A      3.070680   116A      3.071774
     117A      3.085836   118A      3.168242   119A      3.169071
     120A      3.180543   121A      3.285063   122A      3.285370
     123A      3.327418   124A      3.328168   125A      3.375793
     126A      3.489661   127A      3.490220   128A      3.512805
     129A      3.526532   130A      3.567553   131A      3.568418
     132A      3.574297   133A      3.665560   134A      3.666491
     135A      3.680246   136A      3.694108   137A      3.694555
     138A      3.777098   139A      3.777326   140A      3.788342
     141A      3.912209   142A      3.913363   143A      4.034866
     144A      4.110774   145A      4.111794   146A      4.147169
     147A      4.147764   148A      4.171571   149A      4.202678
     150A      4.203097   151A      4.204621   152A      4.209821
     153A      4.314863   154A      4.316211   155A      4.360215
     156A      4.423185   157A      4.424276   158A      4.443701
     159A      4.515147   160A      4.517225   161A      4.578953
     162A      4.578979   163A      4.617409   164A      4.708915
     165A      4.773747   166A      4.775735   167A      4.838266
     168A      4.963174   169A      5.001290   170A      5.002013
     171A      5.224972   172A      5.249742   173A      5.250182
     174A      5.352288   175A      5.354855   176A      5.481372

    Beta Occupied:

       1A    -10.167792     2A    -10.167784     3A    -10.167762
       4A    -10.166584     5A     -0.781062     6A     -0.684061
       7A     -0.683936     8A     -0.511792     9A     -0.431299
      10A     -0.430923    11A     -0.421663    12A     -0.376540
      13A     -0.376504    14A     -0.362784    15A     -0.333330
      16A     -0.333014

    Beta Virtual:

      17A     -0.025872    18A      0.077181    19A      0.134973
      20A      0.135242    21A      0.144318    22A      0.144774
      23A      0.163193    24A      0.182153    25A      0.182340
      26A      0.215299    27A      0.218886    28A      0.282205
      29A      0.282423    30A      0.400029    31A      0.400530
      32A      0.419799    33A      0.426934    34A      0.427259
      35A      0.468326    36A      0.497783    37A      0.497896
      38A      0.513786    39A      0.556133    40A      0.584165
      41A      0.584278    42A      0.597376    43A      0.597700
      44A      0.609365    45A      0.628482    46A      0.632313
      47A      0.639627    48A      0.640157    49A      0.666323
      50A      0.666718    51A      0.686553    52A      0.686915
      53A      0.757576    54A      0.830322    55A      0.830804
      56A      0.854998    57A      0.922598    58A      0.922986
      59A      0.946241    60A      0.953723    61A      0.966369
      62A      0.966572    63A      1.008468    64A      1.132150
      65A      1.132705    66A      1.154960    67A      1.168527
      68A      1.168640    69A      1.232693    70A      1.279563
      71A      1.280084    72A      1.284891    73A      1.328966
      74A      1.329376    75A      1.365905    76A      1.371036
      77A      1.371538    78A      1.393470    79A      1.406361
      80A      1.406496    81A      1.422444    82A      1.423776
      83A      1.427963    84A      1.492511    85A      1.508597
      86A      1.546860    87A      1.546963    88A      1.582461
      89A      1.582873    90A      1.675992    91A      1.743608
      92A      1.745051    93A      1.777231    94A      1.835861
      95A      1.837422    96A      1.973618    97A      2.024708
      98A      2.025814    99A      2.039591   100A      2.057714
     101A      2.058817   102A      2.746953   103A      2.747344
     104A      2.812296   105A      2.815631   106A      2.902050
     107A      2.902434   108A      2.924107   109A      2.932166
     110A      2.932207   111A      2.959902   112A      2.968414
     113A      2.968549   114A      3.041470   115A      3.080535
     116A      3.081623   117A      3.087744   118A      3.184040
     119A      3.184798   120A      3.188215   121A      3.289884
     122A      3.290210   123A      3.331153   124A      3.331970
     125A      3.383586   126A      3.492364   127A      3.492898
     128A      3.511168   129A      3.529563   130A      3.574152
     131A      3.580986   132A      3.582009   133A      3.670340
     134A      3.671025   135A      3.693527   136A      3.725906
     137A      3.725997   138A      3.781532   139A      3.781825
     140A      3.816907   141A      3.922015   142A      3.923302
     143A      4.045816   144A      4.117384   145A      4.118827
     146A      4.154150   147A      4.155200   148A      4.185631
     149A      4.209155   150A      4.210530   151A      4.210703
     152A      4.214450   153A      4.322283   154A      4.323547
     155A      4.363532   156A      4.431417   157A      4.432467
     158A      4.446535   159A      4.522963   160A      4.525057
     161A      4.589497   162A      4.589554   163A      4.624510
     164A      4.719375   165A      4.780678   166A      4.782613
     167A      4.841171   168A      4.967981   169A      5.005358
     170A      5.006077   171A      5.230592   172A      5.251525
     173A      5.252005   174A      5.358750   175A      5.361292
     176A      5.483682

    Final Occupation by Irrep:
              A
    DOCC [    16 ]
    SOCC [     1 ]

  @DF-UKS Final Energy:  -157.81304787298808

   => Energetics <=

    Nuclear Repulsion Energy =            125.3893201679366172
    One-Electron Energy =                -458.7382119094935433
    Two-Electron Energy =                 195.8428840443802983
    DFT Exchange-Correlation Energy =     -20.3070401758114478
    Empirical Dispersion Energy =           0.0000000000000000
    VV10 Nonlocal Energy =                  0.0000000000000000
    Total Energy =                       -157.8130478729880792

  UHF NO Occupations:
  HONO-2 :   15  A 1.9995985
  HONO-1 :   16  A 1.9989796
  HONO-0 :   17  A 1.0000000
  LUNO+0 :   18  A 0.0010204
  LUNO+1 :   19  A 0.0004015
  LUNO+2 :   20  A 0.0001976
  LUNO+3 :   21  A 0.0001975

Computation Completed

Properties will be evaluated at   0.000000,   0.000000,   0.000000 [a0]

Properties computed using the SCF density matrix

  Nuclear Dipole Moment: [e a0]
     X:     0.8329      Y:    -0.0000      Z:     0.0032

  Electronic Dipole Moment: [e a0]
     X:    -0.7582      Y:     0.0000      Z:    -0.0049

  Dipole Moment: [e a0]
     X:     0.0747      Y:    -0.0000      Z:    -0.0017     Total:     0.0747

  Dipole Moment: [D]
     X:     0.1899      Y:    -0.0000      Z:    -0.0044     Total:     0.1900

*** tstop() called on n079 at Fri Nov  5 14:31:45 2021
Module time:
	user time   =     465.71 seconds =       7.76 minutes
	system time =       4.48 seconds =       0.07 minutes
	total time  =        118 seconds =       1.97 minutes
Total time:
	user time   =     465.71 seconds =       7.76 minutes
	system time =       4.48 seconds =       0.07 minutes
	total time  =        118 seconds =       1.97 minutes
Grab this energy -157.81304787298808
    Psi4 stopped on: Friday, 05 November 2021 02:31PM
    Psi4 wall time for execution: 0:01:58.28

*** Psi4 exiting successfully. Buy a developer a beer!
