                               Psi4 1.4a2.dev629

  ==> Input File <==

--------------------------------------------------------------------------
import os
memory 14 GB

molecule {
 C   -0.3233404316   -0.0000015066    0.0002507659
 C    0.0613698475   -1.4011191327   -2.4262680244
 C    0.0610198453    2.8017602326    0.0005319783
 C    0.0609105825   -1.4006350660    2.4264937157
 H    2.0805519242   -1.6425547986   -2.8427389841
 H   -0.7652868132   -0.3865934388   -4.0291520673
 H   -0.7652152957   -3.2957101686   -2.3506795763
 H    2.0867978762    3.2881042806    0.0020359202
 H   -0.7654118134    3.6812076240    1.6756248878
 H   -0.7658818210    3.6793003037   -1.6773761285
 H    2.0933135303   -1.6456466017    2.8521647944
 H   -0.7659164987   -3.2882885428    2.3472996353
 H   -0.7655188091   -0.3898474988    4.0218130830
units bohr
0 2
}

basis {

assign 6-31g_2dfp_

[ 6-31g_2dfp_ ]

spherical

!----------------------------------------------------------------------
! Basis Set Exchange
! Version v0.8.13
! https://www.basissetexchange.org
!----------------------------------------------------------------------
!   Basis set: 6-31G(2df,p)
! Description: 6-31G(2df,p)
!        Role: orbital
!     Version: 0  (Data from the original Basis Set Exchange)
!----------------------------------------------------------------------

****
H     0
S    3   1.00
     18.7311370              0.03349460
      2.8253937              0.23472695
      0.6401217              0.81375733
S    1   1.00
      0.1612778              1.00000000
P    1   1.00
      1.5000000              1.0000000
P    1   1.00
      0.3750000              1.0000000
****
B     0
S    6   1.00
   2068.8823000              0.0018663
    310.6495700              0.0142515
     70.6830330              0.0695516
     19.8610800              0.2325729
      6.2993048              0.4670787
      2.1270270              0.3634314
SP   3   1.00
      4.7279710             -0.1303938              0.0745976
      1.1903377             -0.1307889              0.3078467
      0.3594117              1.1309444              0.7434568
SP   1   1.00
      0.1267512              1.0000000              1.0000000
D    1   1.00
      0.8020000              1.0000000
D    1   1.00
      0.2005000              1.0000000
F    1   1.00
      0.5000000              1.0000000
****
C     0
S    6   1.00
   3047.5249000              0.0018347
    457.3695100              0.0140373
    103.9486900              0.0688426
     29.2101550              0.2321844
      9.2866630              0.4679413
      3.1639270              0.3623120
SP   3   1.00
      7.8682724             -0.1193324              0.0689991
      1.8812885             -0.1608542              0.3164240
      0.5442493              1.1434564              0.7443083
SP   1   1.00
      0.1687144              1.0000000              1.0000000
D    1   1.00
      1.2520000              1.0000000
D    1   1.00
      0.3130000              1.0000000
F    1   1.00
      0.8000000              1.0000000
****
N     0
S    6   1.00
   4173.5110000              0.0018348
    627.4579000              0.0139950
    142.9021000              0.0685870
     40.2343300              0.2322410
     12.8202100              0.4690700
      4.3904370              0.3604550
SP   3   1.00
     11.6263580             -0.1149610              0.0675800
      2.7162800             -0.1691180              0.3239070
      0.7722180              1.1458520              0.7408950
SP   1   1.00
      0.2120313              1.0000000              1.0000000
D    1   1.00
      1.8260000              1.0000000
D    1   1.00
      0.4565000              1.0000000
F    1   1.00
      1.0000000              1.0000000
****
O     0
S    6   1.00
   5484.6717000              0.0018311
    825.2349500              0.0139501
    188.0469600              0.0684451
     52.9645000              0.2327143
     16.8975700              0.4701930
      5.7996353              0.3585209
SP   3   1.00
     15.5396160             -0.1107775              0.0708743
      3.5999336             -0.1480263              0.3397528
      1.0137618              1.1307670              0.7271586
SP   1   1.00
      0.2700058              1.0000000              1.0000000
D    1   1.00
      2.5840000              1.0000000
D    1   1.00
      0.6460000              1.0000000
F    1   1.00
      1.4000000              1.0000000
****
F     0
S    6   1.00
   7001.7130900              0.0018196169
   1051.3660900              0.0139160796
    239.2856900              0.0684053245
     67.3974453              0.233185760
     21.5199573              0.471267439
      7.40310130             0.356618546
SP   3   1.00
     20.8479528             -0.108506975            0.0716287243
      4.80830834            -0.146451658            0.3459121030
      1.34406986             1.128688580            0.7224699570
SP   1   1.00
      0.358151393            1.0000000              1.0000000
D    1   1.00
      3.5000000              1.0000000
D    1   1.00
      0.8750000              1.0000000
F    1   1.00
      1.8500000              1.0000000
****
Al     0
S    6   1.00
  13983.1000000              0.00194267
   2098.7500000              0.0148599
    477.7050000              0.0728494
    134.3600000              0.2468300
     42.8709000              0.4872580
     14.5189000              0.3234960
SP   6   1.00
    239.6680000             -0.00292619             0.00460285
     57.4419000             -0.0374080              0.0331990
     18.2859000             -0.1144870              0.1362820
      6.5991400              0.1156350              0.3304760
      2.4904900              0.6125950              0.4491460
      0.9445400              0.3937990              0.2657040
SP   3   1.00
      1.2779000             -0.2276060             -0.0175130
      0.3975900              0.00144583             0.2445330
      0.1600950              1.0927900              0.8049340
SP   1   1.00
      0.0556577              1.0000000              1.0000000
D    1   1.00
      0.6500000              1.0000000
D    1   1.00
      0.1625000              1.0000000
F    1   1.00
      0.2500000              1.0000000
****
Si     0
S    6   1.00
  16115.9000000              0.00195948
   2425.5800000              0.01492880
    553.8670000              0.07284780
    156.3400000              0.24613000
     50.0683000              0.48591400
     17.0178000              0.32500200
SP   6   1.00
    292.7180000             -0.00278094             0.00443826
     69.8731000             -0.03571460             0.03266790
     22.3363000             -0.11498500             0.13472100
      8.1503900              0.09356340             0.32867800
      3.1345800              0.60301700             0.44964000
      1.2254300              0.41895900             0.26137200
SP   3   1.00
      1.7273800             -0.24463000            -0.01779510
      0.5729220              0.00431572             0.25353900
      0.2221920              1.09818000             0.80066900
SP   1   1.00
      0.0778369              1.00000000             1.00000000
D    1   1.00
      0.9000000              1.0000000
D    1   1.00
      0.2250000              1.0000000
F    1   1.00
      0.3200000              1.0000000
****
P     0
S    6   1.00
  19413.3000000              0.0018516
   2909.4200000              0.0142062
    661.3640000              0.0699995
    185.7590000              0.2400790
     59.1943000              0.4847620
     20.0310000              0.3352000
SP   6   1.00
    339.4780000             -0.00278217             0.00456462
     81.0101000             -0.0360499              0.03369360
     25.8780000             -0.1166310              0.13975500
      9.4522100              0.0968328              0.33936200
      3.6656600              0.6144180              0.45092100
      1.4674600              0.4037980              0.23858600
SP   3   1.00
      2.1562300             -0.2529230             -0.01776530
      0.7489970              0.0328517              0.27405800
      0.2831450              1.0812500              0.78542100
SP   1   1.00
      0.0998317              1.0000000              1.00000000
D    1   1.00
      1.1000000              1.0000000
D    1   1.00
      0.2750000              1.0000000
F    1   1.00
      0.4500000              1.0000000
****
S     0
S    6   1.00
  21917.1000000              0.0018690
   3301.4900000              0.0142300
    754.1460000              0.0696960
    212.7110000              0.2384870
     67.9896000              0.4833070
     23.0515000              0.3380740
SP   6   1.00
    423.7350000             -0.0023767              0.0040610
    100.7100000             -0.0316930              0.0306810
     32.1599000             -0.1133170              0.1304520
     11.8079000              0.0560900              0.3272050
      4.6311000              0.5922550              0.4528510
      1.8702500              0.4550060              0.2560420
SP   3   1.00
      2.6158400             -0.2503740             -0.0145110
      0.9221670              0.0669570              0.3102630
      0.3412870              1.0545100              0.7544830
SP   1   1.00
      0.1171670              1.0000000              1.0000000
D    1   1.00
      1.3000000              1.0000000
D    1   1.00
      0.3250000              1.0000000
F    1   1.00
      0.5500000              1.0000000
****
Cl     0
S    6   1.00
  25180.1000000              0.0018330
   3780.3500000              0.0140340
    860.4740000              0.0690970
    242.1450000              0.2374520
     77.3349000              0.4830340
     26.2470000              0.3398560
SP   6   1.00
    491.7650000             -0.0022974              0.0039894
    116.9840000             -0.0307140              0.0303180
     37.4153000             -0.1125280              0.1298800
     13.7834000              0.0450160              0.3279510
      5.4521500              0.5893530              0.4535270
      2.2258800              0.4652060              0.2521540
SP   3   1.00
      3.1864900             -0.2518300             -0.0142990
      1.1442700              0.0615890              0.3235720
      0.4203770              1.0601800              0.7435070
SP   1   1.00
      0.1426570              1.0000000              1.0000000
D    1   1.00
      1.5000000              1.0000000
D    1   1.00
      0.3750000              1.0000000
F    1   1.00
      0.7000000              1.0000000
****
}

set {
reference uhf
freeze_core true
e_convergence 10
d_convergence 10
dft_spherical_points 1202
dft_radial_points 99
}

e = energy('b3lyp')

print_out('Grab this energy {0}'.format(e))
--------------------------------------------------------------------------

    Molecular point group: c1

    Geometry (in Bohr), charge = 0, multiplicity = 2:

       Center              X                  Y                   Z               Mass
    ------------   -----------------  -----------------  -----------------  -----------------
         C           -0.323340398576    -0.000001949227     0.000056533959    12.000000000000
         C            0.061369880524    -1.401119575327    -2.426462256341    12.000000000000
         C            0.061019878324     2.801759789973     0.000337746359    12.000000000000
         C            0.060910615524    -1.400635508627     2.426299483759    12.000000000000
         H            2.080551957224    -1.642555241227    -2.842933216041     1.007825032230
         H           -0.765286780176    -0.386593881427    -4.029346299241     1.007825032230
         H           -0.765215262676    -3.295710611227    -2.350873808241     1.007825032230
         H            2.086797909224     3.288103837973     0.001841688259     1.007825032230
         H           -0.765411780376     3.681207181373     1.675430655859     1.007825032230
         H           -0.765881787976     3.679299861073    -1.677570360441     1.007825032230
         H            2.093313563324    -1.645647044327     2.851970562459     1.007825032230
         H           -0.765916465676    -3.288288985427     2.347105403359     1.007825032230
         H           -0.765518776076    -0.389847941427     4.021618851059     1.007825032230

  Charge       = 0
  Multiplicity = 2
  Basis Set: ANONYMOUSF3A93987
    Blend: 6-31G_2DFP_
  Basis Set: (ANONYMOUSF3A93987 AUX)
    Blend: DEF2-UNIVERSAL-JKFIT

    Orbital Energies [Eh]
    ---------------------

    Alpha Occupied:

       1A    -10.180343     2A    -10.167034     3A    -10.167027
       4A    -10.166984     5A     -0.797768     6A     -0.686220
       7A     -0.686159     8A     -0.530778     9A     -0.441129
      10A     -0.434779    11A     -0.434562    12A     -0.382846
      13A     -0.382350    14A     -0.363610    15A     -0.338121
      16A     -0.337879    17A     -0.168962

    Alpha Virtual:

      18A      0.076071    19A      0.133935    20A      0.134366
      21A      0.142356    22A      0.142891    23A      0.154884
      24A      0.178561    25A      0.179003    26A      0.203547
      27A      0.214803    28A      0.275930    29A      0.276040
      30A      0.399068    31A      0.399386    32A      0.403343
      33A      0.424080    34A      0.424116    35A      0.456592
      36A      0.495234    37A      0.495545    38A      0.512161
      39A      0.513979    40A      0.578756    41A      0.578851
      42A      0.591202    43A      0.592010    44A      0.602654
      45A      0.624765    46A      0.631682    47A      0.635968
      48A      0.636616    49A      0.663092    50A      0.663756
      51A      0.683568    52A      0.684143    53A      0.734995
      54A      0.825364    55A      0.825444    56A      0.853923
      57A      0.914491    58A      0.915555    59A      0.944098
      60A      0.944603    61A      0.961108    62A      0.961523
      63A      1.003453    64A      1.127755    65A      1.128467
      66A      1.142212    67A      1.163233    68A      1.163305
      69A      1.223325    70A      1.274443    71A      1.274538
      72A      1.279349    73A      1.324233    74A      1.324463
      75A      1.355945    76A      1.366023    77A      1.366068
      78A      1.392467    79A      1.403094    80A      1.404989
      81A      1.416924    82A      1.417299    83A      1.427936
      84A      1.491489    85A      1.499046    86A      1.542405
      87A      1.543319    88A      1.574122    89A      1.574784
      90A      1.669813    91A      1.739117    92A      1.739616
      93A      1.768408    94A      1.830174    95A      1.832637
      96A      1.971689    97A      2.018045    98A      2.018709
      99A      2.019652   100A      2.051271   101A      2.054083
     102A      2.738069   103A      2.738910   104A      2.790926
     105A      2.811431   106A      2.889715   107A      2.890074
     108A      2.895061   109A      2.929178   110A      2.929813
     111A      2.958997   112A      2.964240   113A      2.964529
     114A      3.034014   115A      3.070624   116A      3.071950
     117A      3.084351   118A      3.168341   119A      3.169238
     120A      3.180595   121A      3.284871   122A      3.285754
     123A      3.326078   124A      3.328243   125A      3.375629
     126A      3.489262   127A      3.491070   128A      3.514014
     129A      3.525339   130A      3.568161   131A      3.568556
     132A      3.575218   133A      3.665222   134A      3.667539
     135A      3.679642   136A      3.693606   137A      3.694613
     138A      3.776714   139A      3.776873   140A      3.789226
     141A      3.912007   142A      3.912467   143A      4.034418
     144A      4.110748   145A      4.111904   146A      4.147533
     147A      4.148619   148A      4.173245   149A      4.201234
     150A      4.202835   151A      4.204734   152A      4.210918
     153A      4.314937   154A      4.317022   155A      4.358985
     156A      4.424244   157A      4.424727   158A      4.443402
     159A      4.515509   160A      4.518150   161A      4.578133
     162A      4.578409   163A      4.617636   164A      4.709369
     165A      4.773592   166A      4.775688   167A      4.836901
     168A      4.962870   169A      5.001647   170A      5.004231
     171A      5.228062   172A      5.244191   173A      5.249427
     174A      5.354405   175A      5.356745   176A      5.479385

    Beta Occupied:

       1A    -10.167784     2A    -10.167782     3A    -10.167757
       4A    -10.166521     5A     -0.781093     6A     -0.684012
       7A     -0.683972     8A     -0.511749     9A     -0.431158
      10A     -0.430932    11A     -0.421820    12A     -0.376958
      13A     -0.376406    14A     -0.362594    15A     -0.333239
      16A     -0.333006

    Beta Virtual:

      17A     -0.025745    18A      0.077080    19A      0.134845
      20A      0.135240    21A      0.144276    22A      0.144715
      23A      0.163339    24A      0.182209    25A      0.182697
      26A      0.215033    27A      0.218929    28A      0.282280
      29A      0.282387    30A      0.400242    31A      0.400550
      32A      0.419790    33A      0.426890    34A      0.426929
      35A      0.468500    36A      0.497486    37A      0.497815
      38A      0.513896    39A      0.556324    40A      0.584329
      41A      0.584382    42A      0.597360    43A      0.598223
      44A      0.610059    45A      0.628145    46A      0.631877
      47A      0.639237    48A      0.639880    49A      0.666696
      50A      0.667281    51A      0.686236    52A      0.686744
      53A      0.757518    54A      0.830537    55A      0.830607
      56A      0.855277    57A      0.922503    58A      0.923487
      59A      0.945940    60A      0.953527    61A      0.966398
      62A      0.966844    63A      1.008693    64A      1.131769
      65A      1.132509    66A      1.155591    67A      1.168309
      68A      1.168376    69A      1.232297    70A      1.280016
      71A      1.280161    72A      1.285102    73A      1.329218
      74A      1.329454    75A      1.365356    76A      1.371248
      77A      1.371335    78A      1.393525    79A      1.406509
      80A      1.408502    81A      1.421946    82A      1.422364
      83A      1.428223    84A      1.492538    85A      1.509481
      86A      1.546930    87A      1.547616    88A      1.581890
      89A      1.582759    90A      1.674659    91A      1.744891
      92A      1.745381    93A      1.779172    94A      1.834027
      95A      1.836496    96A      1.972553    97A      2.024920
      98A      2.025992    99A      2.039646   100A      2.058028
     101A      2.060776   102A      2.746401   103A      2.747249
     104A      2.811843   105A      2.816062   106A      2.902384
     107A      2.902878   108A      2.924658   109A      2.931643
     110A      2.932316   111A      2.960065   112A      2.968772
     113A      2.969091   114A      3.041946   115A      3.080393
     116A      3.081990   117A      3.086182   118A      3.183979
     119A      3.185093   120A      3.188281   121A      3.289622
     122A      3.290600   123A      3.329870   124A      3.332061
     125A      3.383447   126A      3.491976   127A      3.493815
     128A      3.512383   129A      3.528385   130A      3.574943
     131A      3.581708   132A      3.581818   133A      3.669935
     134A      3.672322   135A      3.692936   136A      3.725498
     137A      3.725995   138A      3.781315   139A      3.781353
     140A      3.817734   141A      3.921795   142A      3.922312
     143A      4.045306   144A      4.117613   145A      4.118673
     146A      4.154877   147A      4.155693   148A      4.187304
     149A      4.207537   150A      4.209531   151A      4.211580
     152A      4.215394   153A      4.322406   154A      4.324435
     155A      4.362344   156A      4.432468   157A      4.432931
     158A      4.446285   159A      4.523305   160A      4.525936
     161A      4.588705   162A      4.589036   163A      4.624829
     164A      4.719710   165A      4.780516   166A      4.782674
     167A      4.839818   168A      4.967667   169A      5.005721
     170A      5.008237   171A      5.233775   172A      5.245989
     173A      5.251198   174A      5.360868   175A      5.363242
     176A      5.481706

    Final Occupation by Irrep:
              A
    DOCC [    16 ]
    SOCC [     1 ]

  @DF-UKS Final Energy:  -157.81304726730914

   => Energetics <=

    Nuclear Repulsion Energy =            125.3946812653541372
    One-Electron Energy =                -458.7489500271086627
    Two-Electron Energy =                 195.8483727833775276
    DFT Exchange-Correlation Energy =     -20.3071512889321681
    Empirical Dispersion Energy =           0.0000000000000000
    VV10 Nonlocal Energy =                  0.0000000000000000
    Total Energy =                       -157.8130472673091447

  UHF NO Occupations:
  HONO-2 :   15  A 1.9996008
  HONO-1 :   16  A 1.9989804
  HONO-0 :   17  A 1.0000000
  LUNO+0 :   18  A 0.0010196
  LUNO+1 :   19  A 0.0003992
  LUNO+2 :   20  A 0.0001977
  LUNO+3 :   21  A 0.0001974

Computation Completed

Properties will be evaluated at   0.000000,   0.000000,   0.000000 [a0]

Properties computed using the SCF density matrix

  Nuclear Dipole Moment: [e a0]
     X:     0.8272      Y:    -0.0000      Z:    -0.0014

  Electronic Dipole Moment: [e a0]
     X:    -0.7493      Y:     0.0000      Z:     0.0013

  Dipole Moment: [e a0]
     X:     0.0779      Y:     0.0000      Z:    -0.0001     Total:     0.0779

  Dipole Moment: [D]
     X:     0.1980      Y:     0.0000      Z:    -0.0003     Total:     0.1980

*** tstop() called on n036 at Fri Nov  5 14:07:37 2021
Module time:
	user time   =     602.39 seconds =      10.04 minutes
	system time =      11.59 seconds =       0.19 minutes
	total time  =        155 seconds =       2.58 minutes
Total time:
	user time   =     602.39 seconds =      10.04 minutes
	system time =      11.59 seconds =       0.19 minutes
	total time  =        155 seconds =       2.58 minutes
Grab this energy -157.81304726730914
    Psi4 stopped on: Friday, 05 November 2021 02:07PM
    Psi4 wall time for execution: 0:02:34.42

*** Psi4 exiting successfully. Buy a developer a beer!
