                               Psi4 1.4a2.dev629

  ==> Input File <==

--------------------------------------------------------------------------
import os
memory 14 GB

molecule {
 C   -0.3223164811    0.0019963848   -0.0000000000
 C    0.0622759444   -1.4001458754   -2.4271139871
 C    0.0619262079    2.8007600477   -0.0000000000
 C    0.0622759444   -1.4001458754    2.4271139871
 H    2.0835098464   -1.6419688493   -2.8508296235
 H   -0.7658926035   -0.3889648400   -4.0308469062
 H   -0.7636738909   -3.2925911089   -2.3431778677
 H    2.0837095884    3.2831009633   -0.0000000000
 H   -0.7641828924    3.6807298190    1.6780852785
 H   -0.7641828924    3.6807298190   -1.6780852785
 H    2.0835098464   -1.6419688493    2.8508296235
 H   -0.7636738909   -3.2925911089    2.3431778677
 H   -0.7658926035   -0.3889648400    4.0308469062
units bohr
0 2
}

basis {

assign 6-31g_2dfp_

[ 6-31g_2dfp_ ]

spherical

!----------------------------------------------------------------------
! Basis Set Exchange
! Version v0.8.13
! https://www.basissetexchange.org
!----------------------------------------------------------------------
!   Basis set: 6-31G(2df,p)
! Description: 6-31G(2df,p)
!        Role: orbital
!     Version: 0  (Data from the original Basis Set Exchange)
!----------------------------------------------------------------------

****
H     0
S    3   1.00
     18.7311370              0.03349460
      2.8253937              0.23472695
      0.6401217              0.81375733
S    1   1.00
      0.1612778              1.00000000
P    1   1.00
      1.5000000              1.0000000
P    1   1.00
      0.3750000              1.0000000
****
B     0
S    6   1.00
   2068.8823000              0.0018663
    310.6495700              0.0142515
     70.6830330              0.0695516
     19.8610800              0.2325729
      6.2993048              0.4670787
      2.1270270              0.3634314
SP   3   1.00
      4.7279710             -0.1303938              0.0745976
      1.1903377             -0.1307889              0.3078467
      0.3594117              1.1309444              0.7434568
SP   1   1.00
      0.1267512              1.0000000              1.0000000
D    1   1.00
      0.8020000              1.0000000
D    1   1.00
      0.2005000              1.0000000
F    1   1.00
      0.5000000              1.0000000
****
C     0
S    6   1.00
   3047.5249000              0.0018347
    457.3695100              0.0140373
    103.9486900              0.0688426
     29.2101550              0.2321844
      9.2866630              0.4679413
      3.1639270              0.3623120
SP   3   1.00
      7.8682724             -0.1193324              0.0689991
      1.8812885             -0.1608542              0.3164240
      0.5442493              1.1434564              0.7443083
SP   1   1.00
      0.1687144              1.0000000              1.0000000
D    1   1.00
      1.2520000              1.0000000
D    1   1.00
      0.3130000              1.0000000
F    1   1.00
      0.8000000              1.0000000
****
N     0
S    6   1.00
   4173.5110000              0.0018348
    627.4579000              0.0139950
    142.9021000              0.0685870
     40.2343300              0.2322410
     12.8202100              0.4690700
      4.3904370              0.3604550
SP   3   1.00
     11.6263580             -0.1149610              0.0675800
      2.7162800             -0.1691180              0.3239070
      0.7722180              1.1458520              0.7408950
SP   1   1.00
      0.2120313              1.0000000              1.0000000
D    1   1.00
      1.8260000              1.0000000
D    1   1.00
      0.4565000              1.0000000
F    1   1.00
      1.0000000              1.0000000
****
O     0
S    6   1.00
   5484.6717000              0.0018311
    825.2349500              0.0139501
    188.0469600              0.0684451
     52.9645000              0.2327143
     16.8975700              0.4701930
      5.7996353              0.3585209
SP   3   1.00
     15.5396160             -0.1107775              0.0708743
      3.5999336             -0.1480263              0.3397528
      1.0137618              1.1307670              0.7271586
SP   1   1.00
      0.2700058              1.0000000              1.0000000
D    1   1.00
      2.5840000              1.0000000
D    1   1.00
      0.6460000              1.0000000
F    1   1.00
      1.4000000              1.0000000
****
F     0
S    6   1.00
   7001.7130900              0.0018196169
   1051.3660900              0.0139160796
    239.2856900              0.0684053245
     67.3974453              0.233185760
     21.5199573              0.471267439
      7.40310130             0.356618546
SP   3   1.00
     20.8479528             -0.108506975            0.0716287243
      4.80830834            -0.146451658            0.3459121030
      1.34406986             1.128688580            0.7224699570
SP   1   1.00
      0.358151393            1.0000000              1.0000000
D    1   1.00
      3.5000000              1.0000000
D    1   1.00
      0.8750000              1.0000000
F    1   1.00
      1.8500000              1.0000000
****
Al     0
S    6   1.00
  13983.1000000              0.00194267
   2098.7500000              0.0148599
    477.7050000              0.0728494
    134.3600000              0.2468300
     42.8709000              0.4872580
     14.5189000              0.3234960
SP   6   1.00
    239.6680000             -0.00292619             0.00460285
     57.4419000             -0.0374080              0.0331990
     18.2859000             -0.1144870              0.1362820
      6.5991400              0.1156350              0.3304760
      2.4904900              0.6125950              0.4491460
      0.9445400              0.3937990              0.2657040
SP   3   1.00
      1.2779000             -0.2276060             -0.0175130
      0.3975900              0.00144583             0.2445330
      0.1600950              1.0927900              0.8049340
SP   1   1.00
      0.0556577              1.0000000              1.0000000
D    1   1.00
      0.6500000              1.0000000
D    1   1.00
      0.1625000              1.0000000
F    1   1.00
      0.2500000              1.0000000
****
Si     0
S    6   1.00
  16115.9000000              0.00195948
   2425.5800000              0.01492880
    553.8670000              0.07284780
    156.3400000              0.24613000
     50.0683000              0.48591400
     17.0178000              0.32500200
SP   6   1.00
    292.7180000             -0.00278094             0.00443826
     69.8731000             -0.03571460             0.03266790
     22.3363000             -0.11498500             0.13472100
      8.1503900              0.09356340             0.32867800
      3.1345800              0.60301700             0.44964000
      1.2254300              0.41895900             0.26137200
SP   3   1.00
      1.7273800             -0.24463000            -0.01779510
      0.5729220              0.00431572             0.25353900
      0.2221920              1.09818000             0.80066900
SP   1   1.00
      0.0778369              1.00000000             1.00000000
D    1   1.00
      0.9000000              1.0000000
D    1   1.00
      0.2250000              1.0000000
F    1   1.00
      0.3200000              1.0000000
****
P     0
S    6   1.00
  19413.3000000              0.0018516
   2909.4200000              0.0142062
    661.3640000              0.0699995
    185.7590000              0.2400790
     59.1943000              0.4847620
     20.0310000              0.3352000
SP   6   1.00
    339.4780000             -0.00278217             0.00456462
     81.0101000             -0.0360499              0.03369360
     25.8780000             -0.1166310              0.13975500
      9.4522100              0.0968328              0.33936200
      3.6656600              0.6144180              0.45092100
      1.4674600              0.4037980              0.23858600
SP   3   1.00
      2.1562300             -0.2529230             -0.01776530
      0.7489970              0.0328517              0.27405800
      0.2831450              1.0812500              0.78542100
SP   1   1.00
      0.0998317              1.0000000              1.00000000
D    1   1.00
      1.1000000              1.0000000
D    1   1.00
      0.2750000              1.0000000
F    1   1.00
      0.4500000              1.0000000
****
S     0
S    6   1.00
  21917.1000000              0.0018690
   3301.4900000              0.0142300
    754.1460000              0.0696960
    212.7110000              0.2384870
     67.9896000              0.4833070
     23.0515000              0.3380740
SP   6   1.00
    423.7350000             -0.0023767              0.0040610
    100.7100000             -0.0316930              0.0306810
     32.1599000             -0.1133170              0.1304520
     11.8079000              0.0560900              0.3272050
      4.6311000              0.5922550              0.4528510
      1.8702500              0.4550060              0.2560420
SP   3   1.00
      2.6158400             -0.2503740             -0.0145110
      0.9221670              0.0669570              0.3102630
      0.3412870              1.0545100              0.7544830
SP   1   1.00
      0.1171670              1.0000000              1.0000000
D    1   1.00
      1.3000000              1.0000000
D    1   1.00
      0.3250000              1.0000000
F    1   1.00
      0.5500000              1.0000000
****
Cl     0
S    6   1.00
  25180.1000000              0.0018330
   3780.3500000              0.0140340
    860.4740000              0.0690970
    242.1450000              0.2374520
     77.3349000              0.4830340
     26.2470000              0.3398560
SP   6   1.00
    491.7650000             -0.0022974              0.0039894
    116.9840000             -0.0307140              0.0303180
     37.4153000             -0.1125280              0.1298800
     13.7834000              0.0450160              0.3279510
      5.4521500              0.5893530              0.4535270
      2.2258800              0.4652060              0.2521540
SP   3   1.00
      3.1864900             -0.2518300             -0.0142990
      1.1442700              0.0615890              0.3235720
      0.4203770              1.0601800              0.7435070
SP   1   1.00
      0.1426570              1.0000000              1.0000000
D    1   1.00
      1.5000000              1.0000000
D    1   1.00
      0.3750000              1.0000000
F    1   1.00
      0.7000000              1.0000000
****
}

set {
reference uhf
freeze_core true
e_convergence 10
d_convergence 10
dft_spherical_points 1202
dft_radial_points 99
}

e = energy('b3lyp')

print_out('Grab this energy {0}'.format(e))
--------------------------------------------------------------------------

    Molecular point group: cs

    Geometry (in Bohr), charge = 0, multiplicity = 2:

       Center              X                  Y                   Z               Mass
    ------------   -----------------  -----------------  -----------------  -----------------
         C           -0.323125739606     0.001522098711     0.000000000000    12.000000000000
         C            0.061466685894    -1.400620161489    -2.427113987100    12.000000000000
         C            0.061116949394     2.800285761611     0.000000000000    12.000000000000
         C            0.061466685894    -1.400620161489     2.427113987100    12.000000000000
         H            2.082700587894    -1.642443135389    -2.850829623500     1.007825032230
         H           -0.766701862006    -0.389439126089    -4.030846906200     1.007825032230
         H           -0.764483149406    -3.293065394989    -2.343177867700     1.007825032230
         H            2.082900329894     3.282626677211     0.000000000000     1.007825032230
         H           -0.764992150906     3.680255532911     1.678085278500     1.007825032230
         H           -0.764992150906     3.680255532911    -1.678085278500     1.007825032230
         H            2.082700587894    -1.642443135389     2.850829623500     1.007825032230
         H           -0.764483149406    -3.293065394989     2.343177867700     1.007825032230
         H           -0.766701862006    -0.389439126089     4.030846906200     1.007825032230

  Charge       = 0
  Multiplicity = 2
  Basis Set: ANONYMOUS0AA2E70A
    Blend: 6-31G_2DFP_
  Basis Set: (ANONYMOUS0AA2E70A AUX)
    Blend: DEF2-UNIVERSAL-JKFIT

    Orbital Energies [Eh]
    ---------------------

    Alpha Occupied:

       1Ap   -10.180284     1App  -10.167118     2Ap   -10.167089
       3Ap   -10.166828     4Ap    -0.797805     5Ap    -0.686316
       2App   -0.686072     6Ap    -0.530787     7Ap    -0.441225
       8Ap    -0.434695     3App   -0.434558     9Ap    -0.382769
       4App   -0.382700     5App   -0.363433    10Ap    -0.338011
       6App   -0.337877    11Ap    -0.168924

    Alpha Virtual:

      12Ap     0.075987     7App    0.134119    13Ap     0.134176
      14Ap     0.142498     8App    0.142624    15Ap     0.155045
      16Ap     0.178919     9App    0.178993    17Ap     0.203590
      10App    0.214530    11App    0.275741    18Ap     0.276280
      12App    0.399315    19Ap     0.399373    20Ap     0.403436
      21Ap     0.423856    13App    0.423963    22Ap     0.456670
      23Ap     0.495151    14App    0.495271    15App    0.512278
      24Ap     0.514133    16App    0.578696    25Ap     0.579264
      17App    0.591610    26Ap     0.592194    27Ap     0.603328
      28Ap     0.624257    18App    0.631390    19App    0.635835
      29Ap     0.635924    30Ap     0.663874    20App    0.663942
      21App    0.683578    31Ap     0.683631    32Ap     0.734932
      33Ap     0.825221    22App    0.825655    23App    0.854195
      24App    0.915107    34Ap     0.915376    25App    0.943837
      35Ap     0.944468    36Ap     0.960718    26App    0.962077
      37Ap     1.003649    38Ap     1.127626    27App    1.128080
      39Ap     1.142942    40Ap     1.162903    28App    1.163117
      41Ap     1.222913    29App    1.274580    42Ap     1.274883
      43Ap     1.279510    30App    1.324563    44Ap     1.324569
      45Ap     1.355456    31App    1.365954    46Ap     1.366277
      32App    1.392501    33App    1.404760    47Ap     1.405386
      34App    1.415752    48Ap     1.416540    35App    1.428124
      36App    1.491514    49Ap     1.500031    50Ap     1.542928
      37App    1.543480    51Ap     1.574062    38App    1.574083
      52Ap     1.668566    39App    1.739898    53Ap     1.740645
      54Ap     1.770164    40App    1.829508    55Ap     1.830494
      41App    1.970710    56Ap     2.018073    42App    2.018968
      57Ap     2.019237    43App    2.053232    58Ap     2.054795
      59Ap     2.737884    44App    2.738447    60Ap     2.791323
      45App    2.810959    46App    2.890081    61Ap     2.890543
      62Ap     2.895325    47App    2.929275    63Ap     2.929307
      48App    2.959133    64Ap     2.964641    49App    2.964963
      65Ap     3.034710    66Ap     3.071196    50App    3.071435
      51App    3.082954    52App    3.168714    67Ap     3.169107
      68Ap     3.180639    53App    3.285369    69Ap     3.285457
      54App    3.326201    70Ap     3.326858    71Ap     3.375440
      55App    3.490206    72Ap     3.490562    56App    3.515238
      73Ap     3.524122    57App    3.568386    74Ap     3.569129
      58App    3.576064    75Ap     3.666528    59App    3.666955
      76Ap     3.679023    60App    3.693498    77Ap     3.694425
      78Ap     3.775139    61App    3.777636    79Ap     3.789940
      62App    3.911410    80Ap     3.911943    81Ap     4.033980
      63App    4.110131    82Ap     4.112656    64App    4.147822
      83Ap     4.149533    84Ap     4.174952    65App    4.202180
      85Ap     4.202267    86Ap     4.202826    66App    4.211991
      67App    4.315610    87Ap     4.317208    68App    4.357817
      88Ap     4.424930    69App    4.425447    70App    4.443218
      71App    4.517095    89Ap     4.517888    72App    4.577251
      90Ap     4.577903    91Ap     4.617620    92Ap     4.710010
      93Ap     4.773467    73App    4.775500    74App    4.835587
      94Ap     4.962555    75App    5.003887    95Ap     5.004628
      96Ap     5.230790    97Ap     5.243347    76App    5.244280
      77App    5.356775    98Ap     5.358214    78App    5.477408

    Beta Occupied:

       1App  -10.167870     1Ap   -10.167852     2Ap   -10.167588
       3Ap   -10.166455     4Ap    -0.781123     5Ap    -0.684098
       2App   -0.683870     6Ap    -0.511709     7Ap    -0.431040
       3App   -0.430914     8Ap    -0.421973     9Ap    -0.376875
       4App   -0.376816     5App   -0.362408    10Ap    -0.333133
       6App   -0.333008

    Beta Virtual:

      11Ap    -0.025615    12Ap     0.076980     7App    0.134949
      13Ap     0.134991    14Ap     0.144390     8App    0.144518
      15Ap     0.163485    16Ap     0.182637     9App    0.182675
      10App    0.214767    17Ap     0.218973    11App    0.282094
      18Ap     0.282613    12App    0.400483    19Ap     0.400547
      20Ap     0.419777    21Ap     0.426669    13App    0.426776
      22Ap     0.468677    23Ap     0.497406    14App    0.497519
      15App    0.514005    24Ap     0.556516    16App    0.584217
      25Ap     0.584787    17App    0.597812    26Ap     0.598370
      27Ap     0.610611    28Ap     0.627775    18App    0.631546
      19App    0.639139    29Ap     0.639268    30Ap     0.667405
      20App    0.667477    21App    0.686204    31Ap     0.686300
      32Ap     0.757459    33Ap     0.830346    22App    0.830824
      23App    0.855540    24App    0.923094    34Ap     0.923294
      25App    0.945683    35Ap     0.953343    36Ap     0.966119
      26App    0.967362    37Ap     1.008929    38Ap     1.131545
      27App    1.132147    39Ap     1.156241    40Ap     1.168081
      28App    1.168131    41Ap     1.231901    29App    1.280201
      42Ap     1.280501    43Ap     1.285321    30App    1.329489
      44Ap     1.329527    45Ap     1.364893    31App    1.371158
      46Ap     1.371421    32App    1.393545    33App    1.408243
      47Ap     1.408930    34App    1.420849    48Ap     1.421622
      35App    1.428385    36App    1.492588    49Ap     1.510467
      50Ap     1.547301    37App    1.547856    51Ap     1.581954
      38App    1.581971    52Ap     1.673362    39App    1.745656
      53Ap     1.746421    54Ap     1.780956    40App    1.833364
      55Ap     1.834347    41App    1.971582    56Ap     2.025425
      42App    2.025526    57Ap     2.039794    43App    2.059794
      58Ap     2.061418    59Ap     2.746229    44App    2.746758
      45App    2.811370    60Ap     2.816494    46App    2.902853
      61Ap     2.903236    62Ap     2.925195    47App    2.931767
      63Ap     2.931772    48App    2.960197    64Ap     2.969238
      49App    2.969525    65Ap     3.042433    66Ap     3.081127
      50App    3.081349    51App    3.084771    52App    3.184418
      67Ap     3.184880    68Ap     3.188328    53App    3.290112
      69Ap     3.290249    54App    3.330059    70Ap     3.330682
      71Ap     3.383284    55App    3.492992    72Ap     3.493314
      56App    3.513606    73Ap     3.527188    57App    3.575734
      58App    3.581704    74Ap     3.582327    59App    3.671567
      75Ap     3.671647    76Ap     3.692339    60App    3.725448
      77Ap     3.725700    78Ap     3.779778    61App    3.782183
      79Ap     3.818460    62App    3.921188    80Ap     3.921684
      81Ap     4.044805    63App    4.117053    82Ap     4.119360
      64App    4.155013    83Ap     4.156780    84Ap     4.188977
      65App    4.207988    85Ap     4.208131    86Ap     4.210838
      66App    4.216343    67App    4.323080    87Ap     4.324731
      68App    4.361230    88Ap     4.433195    69App    4.433612
      70App    4.446154    71App    4.524861    89Ap     4.525631
      72App    4.587897    90Ap     4.588540    91Ap     4.624910
      92Ap     4.720237    93Ap     4.780514    73App    4.782459
      74App    4.838518    94Ap     4.967339    75App    5.007891
      95Ap     5.008652    96Ap     5.236539    97Ap     5.245139
      76App    5.246085    77App    5.363261    98Ap     5.364742
      78App    5.479742

    Final Occupation by Irrep:
             Ap   App
    DOCC [    10,    6 ]
    SOCC [     1,    0 ]

  @DF-UKS Final Energy:  -157.81305533765163

   => Energetics <=

    Nuclear Repulsion Energy =            125.4000312303434725
    One-Electron Energy =                -458.7597072455226908
    Two-Electron Energy =                 195.8538784492899083
    DFT Exchange-Correlation Energy =     -20.3072577717623091
    Empirical Dispersion Energy =           0.0000000000000000
    VV10 Nonlocal Energy =                  0.0000000000000000
    Total Energy =                       -157.8130553376516332

  UHF NO Occupations:
  HONO-2 :    9 Ap 1.9996032
  HONO-1 :   10 Ap 1.9989813
  HONO-0 :   11 Ap 1.0000000
  LUNO+0 :   12 Ap 0.0010187
  LUNO+1 :   13 Ap 0.0003968
  LUNO+2 :    7App 0.0001979
  LUNO+3 :   14 Ap 0.0001972

Computation Completed

Properties will be evaluated at   0.000000,   0.000000,   0.000000 [a0]

Properties computed using the SCF density matrix

  Nuclear Dipole Moment: [e a0]
     X:     0.8215      Y:    -0.0034      Z:     0.0000

  Electronic Dipole Moment: [e a0]
     X:    -0.7404      Y:     0.0034      Z:     0.0000

  Dipole Moment: [e a0]
     X:     0.0811      Y:     0.0000      Z:     0.0000     Total:     0.0811

  Dipole Moment: [D]
     X:     0.2061      Y:     0.0001      Z:     0.0000     Total:     0.2061

*** tstop() called on n082 at Fri Nov  5 14:50:07 2021
Module time:
	user time   =     492.60 seconds =       8.21 minutes
	system time =       4.47 seconds =       0.07 minutes
	total time  =        125 seconds =       2.08 minutes
Total time:
	user time   =     492.60 seconds =       8.21 minutes
	system time =       4.47 seconds =       0.07 minutes
	total time  =        125 seconds =       2.08 minutes
Grab this energy -157.81305533765163
    Psi4 stopped on: Friday, 05 November 2021 02:50PM
    Psi4 wall time for execution: 0:02:05.00

*** Psi4 exiting successfully. Buy a developer a beer!
