                               Psi4 1.4a2.dev629

  ==> Input File <==

--------------------------------------------------------------------------
import os
memory 14 GB

molecule {
 C   -0.3233306014    0.0047434056    0.0000000000
 C    0.0608856612   -1.4034894131   -2.4203630803
 C    0.0615344688    2.8095428738   -0.0000000000
 C    0.0608856612   -1.4034894131    2.4203630803
 H    2.0856990138   -1.6472352821   -2.8368134917
 H   -0.7641481430   -0.3985414080   -4.0258592229
 H   -0.7674147463   -3.2944120277   -2.3359095896
 H    2.0892567577    3.3033613120   -0.0000000000
 H   -0.7650560365    3.6848421784    1.6765808101
 H   -0.7650560365    3.6848421784   -1.6765808101
 H    2.0856990138   -1.6472352821    2.8368134917
 H   -0.7674147463   -3.2944120277    2.3359095896
 H   -0.7641481430   -0.3985414080    4.0258592229
units bohr
0 2
}

basis {

assign 6-31g_2dfp_

[ 6-31g_2dfp_ ]

spherical

!----------------------------------------------------------------------
! Basis Set Exchange
! Version v0.8.13
! https://www.basissetexchange.org
!----------------------------------------------------------------------
!   Basis set: 6-31G(2df,p)
! Description: 6-31G(2df,p)
!        Role: orbital
!     Version: 0  (Data from the original Basis Set Exchange)
!----------------------------------------------------------------------

****
H     0
S    3   1.00
     18.7311370              0.03349460
      2.8253937              0.23472695
      0.6401217              0.81375733
S    1   1.00
      0.1612778              1.00000000
P    1   1.00
      1.5000000              1.0000000
P    1   1.00
      0.3750000              1.0000000
****
B     0
S    6   1.00
   2068.8823000              0.0018663
    310.6495700              0.0142515
     70.6830330              0.0695516
     19.8610800              0.2325729
      6.2993048              0.4670787
      2.1270270              0.3634314
SP   3   1.00
      4.7279710             -0.1303938              0.0745976
      1.1903377             -0.1307889              0.3078467
      0.3594117              1.1309444              0.7434568
SP   1   1.00
      0.1267512              1.0000000              1.0000000
D    1   1.00
      0.8020000              1.0000000
D    1   1.00
      0.2005000              1.0000000
F    1   1.00
      0.5000000              1.0000000
****
C     0
S    6   1.00
   3047.5249000              0.0018347
    457.3695100              0.0140373
    103.9486900              0.0688426
     29.2101550              0.2321844
      9.2866630              0.4679413
      3.1639270              0.3623120
SP   3   1.00
      7.8682724             -0.1193324              0.0689991
      1.8812885             -0.1608542              0.3164240
      0.5442493              1.1434564              0.7443083
SP   1   1.00
      0.1687144              1.0000000              1.0000000
D    1   1.00
      1.2520000              1.0000000
D    1   1.00
      0.3130000              1.0000000
F    1   1.00
      0.8000000              1.0000000
****
N     0
S    6   1.00
   4173.5110000              0.0018348
    627.4579000              0.0139950
    142.9021000              0.0685870
     40.2343300              0.2322410
     12.8202100              0.4690700
      4.3904370              0.3604550
SP   3   1.00
     11.6263580             -0.1149610              0.0675800
      2.7162800             -0.1691180              0.3239070
      0.7722180              1.1458520              0.7408950
SP   1   1.00
      0.2120313              1.0000000              1.0000000
D    1   1.00
      1.8260000              1.0000000
D    1   1.00
      0.4565000              1.0000000
F    1   1.00
      1.0000000              1.0000000
****
O     0
S    6   1.00
   5484.6717000              0.0018311
    825.2349500              0.0139501
    188.0469600              0.0684451
     52.9645000              0.2327143
     16.8975700              0.4701930
      5.7996353              0.3585209
SP   3   1.00
     15.5396160             -0.1107775              0.0708743
      3.5999336             -0.1480263              0.3397528
      1.0137618              1.1307670              0.7271586
SP   1   1.00
      0.2700058              1.0000000              1.0000000
D    1   1.00
      2.5840000              1.0000000
D    1   1.00
      0.6460000              1.0000000
F    1   1.00
      1.4000000              1.0000000
****
F     0
S    6   1.00
   7001.7130900              0.0018196169
   1051.3660900              0.0139160796
    239.2856900              0.0684053245
     67.3974453              0.233185760
     21.5199573              0.471267439
      7.40310130             0.356618546
SP   3   1.00
     20.8479528             -0.108506975            0.0716287243
      4.80830834            -0.146451658            0.3459121030
      1.34406986             1.128688580            0.7224699570
SP   1   1.00
      0.358151393            1.0000000              1.0000000
D    1   1.00
      3.5000000              1.0000000
D    1   1.00
      0.8750000              1.0000000
F    1   1.00
      1.8500000              1.0000000
****
Al     0
S    6   1.00
  13983.1000000              0.00194267
   2098.7500000              0.0148599
    477.7050000              0.0728494
    134.3600000              0.2468300
     42.8709000              0.4872580
     14.5189000              0.3234960
SP   6   1.00
    239.6680000             -0.00292619             0.00460285
     57.4419000             -0.0374080              0.0331990
     18.2859000             -0.1144870              0.1362820
      6.5991400              0.1156350              0.3304760
      2.4904900              0.6125950              0.4491460
      0.9445400              0.3937990              0.2657040
SP   3   1.00
      1.2779000             -0.2276060             -0.0175130
      0.3975900              0.00144583             0.2445330
      0.1600950              1.0927900              0.8049340
SP   1   1.00
      0.0556577              1.0000000              1.0000000
D    1   1.00
      0.6500000              1.0000000
D    1   1.00
      0.1625000              1.0000000
F    1   1.00
      0.2500000              1.0000000
****
Si     0
S    6   1.00
  16115.9000000              0.00195948
   2425.5800000              0.01492880
    553.8670000              0.07284780
    156.3400000              0.24613000
     50.0683000              0.48591400
     17.0178000              0.32500200
SP   6   1.00
    292.7180000             -0.00278094             0.00443826
     69.8731000             -0.03571460             0.03266790
     22.3363000             -0.11498500             0.13472100
      8.1503900              0.09356340             0.32867800
      3.1345800              0.60301700             0.44964000
      1.2254300              0.41895900             0.26137200
SP   3   1.00
      1.7273800             -0.24463000            -0.01779510
      0.5729220              0.00431572             0.25353900
      0.2221920              1.09818000             0.80066900
SP   1   1.00
      0.0778369              1.00000000             1.00000000
D    1   1.00
      0.9000000              1.0000000
D    1   1.00
      0.2250000              1.0000000
F    1   1.00
      0.3200000              1.0000000
****
P     0
S    6   1.00
  19413.3000000              0.0018516
   2909.4200000              0.0142062
    661.3640000              0.0699995
    185.7590000              0.2400790
     59.1943000              0.4847620
     20.0310000              0.3352000
SP   6   1.00
    339.4780000             -0.00278217             0.00456462
     81.0101000             -0.0360499              0.03369360
     25.8780000             -0.1166310              0.13975500
      9.4522100              0.0968328              0.33936200
      3.6656600              0.6144180              0.45092100
      1.4674600              0.4037980              0.23858600
SP   3   1.00
      2.1562300             -0.2529230             -0.01776530
      0.7489970              0.0328517              0.27405800
      0.2831450              1.0812500              0.78542100
SP   1   1.00
      0.0998317              1.0000000              1.00000000
D    1   1.00
      1.1000000              1.0000000
D    1   1.00
      0.2750000              1.0000000
F    1   1.00
      0.4500000              1.0000000
****
S     0
S    6   1.00
  21917.1000000              0.0018690
   3301.4900000              0.0142300
    754.1460000              0.0696960
    212.7110000              0.2384870
     67.9896000              0.4833070
     23.0515000              0.3380740
SP   6   1.00
    423.7350000             -0.0023767              0.0040610
    100.7100000             -0.0316930              0.0306810
     32.1599000             -0.1133170              0.1304520
     11.8079000              0.0560900              0.3272050
      4.6311000              0.5922550              0.4528510
      1.8702500              0.4550060              0.2560420
SP   3   1.00
      2.6158400             -0.2503740             -0.0145110
      0.9221670              0.0669570              0.3102630
      0.3412870              1.0545100              0.7544830
SP   1   1.00
      0.1171670              1.0000000              1.0000000
D    1   1.00
      1.3000000              1.0000000
D    1   1.00
      0.3250000              1.0000000
F    1   1.00
      0.5500000              1.0000000
****
Cl     0
S    6   1.00
  25180.1000000              0.0018330
   3780.3500000              0.0140340
    860.4740000              0.0690970
    242.1450000              0.2374520
     77.3349000              0.4830340
     26.2470000              0.3398560
SP   6   1.00
    491.7650000             -0.0022974              0.0039894
    116.9840000             -0.0307140              0.0303180
     37.4153000             -0.1125280              0.1298800
     13.7834000              0.0450160              0.3279510
      5.4521500              0.5893530              0.4535270
      2.2258800              0.4652060              0.2521540
SP   3   1.00
      3.1864900             -0.2518300             -0.0142990
      1.1442700              0.0615890              0.3235720
      0.4203770              1.0601800              0.7435070
SP   1   1.00
      0.1426570              1.0000000              1.0000000
D    1   1.00
      1.5000000              1.0000000
D    1   1.00
      0.3750000              1.0000000
F    1   1.00
      0.7000000              1.0000000
****
}

set {
reference uhf
freeze_core true
e_convergence 10
d_convergence 10
dft_spherical_points 1202
dft_radial_points 99
}

e = energy('b3lyp')

print_out('Grab this energy {0}'.format(e))
--------------------------------------------------------------------------

    Molecular point group: cs

    Geometry (in Bohr), charge = 0, multiplicity = 2:

       Center              X                  Y                   Z               Mass
    ------------   -----------------  -----------------  -----------------  -----------------
         C           -0.323333524149     0.003336366843     0.000000000000    12.000000000000
         C            0.060882738451    -1.404896451857    -2.420363080300    12.000000000000
         C            0.061531546051     2.808135835043     0.000000000000    12.000000000000
         C            0.060882738451    -1.404896451857     2.420363080300    12.000000000000
         H            2.085696091051    -1.648642320857    -2.836813491700     1.007825032230
         H           -0.764151065749    -0.399948446757    -4.025859222900     1.007825032230
         H           -0.767417669049    -3.295819066457    -2.335909589600     1.007825032230
         H            2.089253834951     3.301954273243     0.000000000000     1.007825032230
         H           -0.765058959249     3.683435139643     1.676580810100     1.007825032230
         H           -0.765058959249     3.683435139643    -1.676580810100     1.007825032230
         H            2.085696091051    -1.648642320857     2.836813491700     1.007825032230
         H           -0.767417669049    -3.295819066457     2.335909589600     1.007825032230
         H           -0.764151065749    -0.399948446757     4.025859222900     1.007825032230

  Charge       = 0
  Multiplicity = 2
  Basis Set: ANONYMOUSFF302E6F
    Blend: 6-31G_2DFP_
  Basis Set: (ANONYMOUSFF302E6F AUX)
    Blend: DEF2-UNIVERSAL-JKFIT

    Orbital Energies [Eh]
    ---------------------

    Alpha Occupied:

       1Ap   -10.180342     2Ap   -10.167295     1App  -10.166891
       3Ap   -10.166859     4Ap    -0.797771     5Ap    -0.686378
       2App   -0.685994     6Ap    -0.530776     7Ap    -0.441130
       8Ap    -0.434849     3App   -0.434494     4App   -0.382677
       9Ap    -0.382517     5App   -0.363611    10Ap    -0.338121
       6App   -0.337873    11Ap    -0.168961

    Alpha Virtual:

      12Ap     0.076073    13Ap     0.133866     7App    0.134444
      14Ap     0.142283     8App    0.142974    15Ap     0.154879
      16Ap     0.178416     9App    0.179140    17Ap     0.203544
      10App    0.214806    18Ap     0.275798    11App    0.276175
      19Ap     0.399141    12App    0.399247    20Ap     0.403420
      21Ap     0.424068    13App    0.424131    22Ap     0.456592
      23Ap     0.494990    14App    0.495773    15App    0.512176
      24Ap     0.513994    25Ap     0.578669    16App    0.578924
      26Ap     0.591342    17App    0.591931    27Ap     0.602598
      28Ap     0.624764    18App    0.631767    19App    0.636250
      29Ap     0.636253    30Ap     0.663239    20App    0.663592
      31Ap     0.683721    21App    0.683987    32Ap     0.734993
      33Ap     0.824525    22App    0.826277    23App    0.853916
      34Ap     0.914463    24App    0.915592    25App    0.944111
      35Ap     0.944479    26App    0.961149    36Ap     0.961614
      37Ap     1.003470    38Ap     1.127344    27App    1.128899
      39Ap     1.142195    40Ap     1.162948    28App    1.163599
      41Ap     1.223339    42Ap     1.274091    29App    1.274914
      43Ap     1.279324    30App    1.324332    44Ap     1.324380
      45Ap     1.355981    46Ap     1.365351    31App    1.366732
      32App    1.392411    47Ap     1.402774    33App    1.405385
      48Ap     1.416296    34App    1.417926    35App    1.427933
      36App    1.491462    49Ap     1.499042    50Ap     1.542510
      37App    1.543229    51Ap     1.572089    38App    1.576869
      52Ap     1.669818    53Ap     1.738187    39App    1.740573
      54Ap     1.768396    55Ap     1.831326    40App    1.831486
      41App    1.971746    56Ap     2.017510    57Ap     2.018296
      42App    2.020553    58Ap     2.049654    43App    2.055711
      59Ap     2.738218    44App    2.738764    60Ap     2.790922
      45App    2.811437    46App    2.889695    61Ap     2.890204
      62Ap     2.894948    63Ap     2.929006    47App    2.929983
      48App    2.958960    64Ap     2.963652    49App    2.965160
      65Ap     3.034005    66Ap     3.069655    50App    3.072863
      51App    3.084410    67Ap     3.168232    52App    3.169368
      68Ap     3.180561    53App    3.284483    69Ap     3.286115
      70Ap     3.327091    54App    3.327243    71Ap     3.375667
      72Ap     3.488584    55App    3.491634    56App    3.514019
      73Ap     3.525284    74Ap     3.567406    57App    3.569460
      58App    3.575174    75Ap     3.665844    59App    3.666975
      76Ap     3.679660    77Ap     3.693844    60App    3.694325
      61App    3.775938    78Ap     3.777472    79Ap     3.789426
      80Ap     3.910941    62App    3.913537    81Ap     4.034466
      82Ap     4.109867    63App    4.112876    83Ap     4.146421
      64App    4.149788    84Ap     4.173237    85Ap     4.201322
      86Ap     4.203132    65App    4.204332    66App    4.210928
      87Ap     4.315755    67App    4.316147    68App    4.358973
      88Ap     4.424216    69App    4.424584    70App    4.443576
      89Ap     4.515319    71App    4.518312    90Ap     4.577195
      72App    4.579333    91Ap     4.617597    92Ap     4.709478
      93Ap     4.772694    73App    4.776432    74App    4.836984
      94Ap     4.962860    95Ap     5.001471    75App    5.004477
      96Ap     5.228025    97Ap     5.246442    76App    5.247208
      98Ap     5.354858    77App    5.356163    78App    5.479330

    Beta Occupied:

       1Ap   -10.168055     1App  -10.167643     2Ap   -10.167627
       3Ap   -10.166519     4Ap    -0.781096     5Ap    -0.684189
       2App   -0.683788     6Ap    -0.511748     7Ap    -0.431219
       3App   -0.430868     8Ap    -0.421826     4App   -0.376759
       9Ap    -0.376605     5App   -0.362594    10Ap    -0.333260
       6App   -0.332981

    Beta Virtual:

      11Ap    -0.025743    12Ap     0.077082    13Ap     0.134752
       7App    0.135338    14Ap     0.144182     8App    0.144816
      15Ap     0.163339    16Ap     0.182073     9App    0.182825
      10App    0.215036    17Ap     0.218927    18Ap     0.282130
      11App    0.282540    19Ap     0.400390    12App    0.400397
      20Ap     0.419804    21Ap     0.426865    13App    0.426956
      22Ap     0.468500    23Ap     0.497258    14App    0.498036
      15App    0.513911    24Ap     0.556331    25Ap     0.584256
      16App    0.584442    26Ap     0.597510    17App    0.598125
      27Ap     0.610005    28Ap     0.628146    18App    0.631926
      19App    0.639515    29Ap     0.639562    30Ap     0.666784
      20App    0.667171    31Ap     0.686288    21App    0.686691
      32Ap     0.757515    33Ap     0.829686    22App    0.831452
      23App    0.855270    34Ap     0.922448    24App    0.923551
      25App    0.945959    35Ap     0.953378    26App    0.966380
      36Ap     0.967018    37Ap     1.008706    38Ap     1.131339
      27App    1.132964    39Ap     1.155544    40Ap     1.168048
      28App    1.168671    41Ap     1.232308    42Ap     1.279672
      29App    1.280528    43Ap     1.285080    30App    1.329310
      44Ap     1.329378    45Ap     1.365388    46Ap     1.370518
      31App    1.372056    32App    1.393472    47Ap     1.406266
      33App    1.408826    48Ap     1.421350    34App    1.422964
      35App    1.428207    36App    1.492514    49Ap     1.509484
      50Ap     1.546909    37App    1.547642    51Ap     1.580028
      38App    1.584679    52Ap     1.674664    53Ap     1.743964
      39App    1.746327    54Ap     1.779168    55Ap     1.835160
      40App    1.835364    41App    1.972606    56Ap     2.023879
      42App    2.026998    57Ap     2.039660    58Ap     2.056447
      43App    2.062347    59Ap     2.746497    44App    2.747156
      45App    2.811850    60Ap     2.816056    46App    2.902391
      61Ap     2.902889    62Ap     2.924649    63Ap     2.931592
      47App    2.932364    48App    2.960039    64Ap     2.968228
      49App    2.969657    65Ap     3.041941    66Ap     3.079414
      50App    3.082696    51App    3.086465    67Ap     3.184096
      52App    3.184993    68Ap     3.188238    53App    3.289311
      69Ap     3.290891    70Ap     3.330876    54App    3.331067
      71Ap     3.383486    72Ap     3.491345    55App    3.494326
      56App    3.512398    73Ap     3.528340    57App    3.575012
      74Ap     3.580525    58App    3.583031    75Ap     3.670579
      59App    3.671725    76Ap     3.692956    77Ap     3.725670
      60App    3.725764    61App    3.780468    78Ap     3.782141
      79Ap     3.817824    80Ap     3.920763    62App    3.923349
      81Ap     4.045353    82Ap     4.116720    63App    4.119656
      83Ap     4.153605    64App    4.157025    84Ap     4.187292
      85Ap     4.207494    65App    4.210266    86Ap     4.210846
      66App    4.215428    87Ap     4.323242    67App    4.323541
      68App    4.362335    88Ap     4.432446    69App    4.432743
      70App    4.446500    89Ap     4.523213    71App    4.525994
      90Ap     4.587732    72App    4.589998    91Ap     4.624793
      92Ap     4.719822    93Ap     4.779582    73App    4.783446
      74App    4.839906    94Ap     4.967654    95Ap     5.005529
      75App    5.008499    96Ap     5.233737    97Ap     5.248237
      76App    5.248985    98Ap     5.361314    77App    5.362668
      78App    5.481652

    Final Occupation by Irrep:
             Ap   App
    DOCC [    10,    6 ]
    SOCC [     1,    0 ]

  @DF-UKS Final Energy:  -157.81305949578828

   => Energetics <=

    Nuclear Repulsion Energy =            125.3948517826453894
    One-Electron Energy =                -458.7493375956689761
    Two-Electron Energy =                 195.8485726662427737
    DFT Exchange-Correlation Energy =     -20.3071463490074642
    Empirical Dispersion Energy =           0.0000000000000000
    VV10 Nonlocal Energy =                  0.0000000000000000
    Total Energy =                       -157.8130594957882806

  UHF NO Occupations:
  HONO-2 :    9 Ap 1.9996009
  HONO-1 :   10 Ap 1.9989804
  HONO-0 :   11 Ap 1.0000000
  LUNO+0 :   12 Ap 0.0010196
  LUNO+1 :   13 Ap 0.0003991
  LUNO+2 :    7App 0.0001977
  LUNO+3 :   14 Ap 0.0001973

Computation Completed

Properties will be evaluated at   0.000000,   0.000000,   0.000000 [a0]

Properties computed using the SCF density matrix

  Nuclear Dipole Moment: [e a0]
     X:     0.8272      Y:    -0.0099      Z:     0.0000

  Electronic Dipole Moment: [e a0]
     X:    -0.7493      Y:     0.0099      Z:     0.0000

  Dipole Moment: [e a0]
     X:     0.0779      Y:    -0.0000      Z:     0.0000     Total:     0.0779

  Dipole Moment: [D]
     X:     0.1980      Y:    -0.0000      Z:     0.0000     Total:     0.1980

*** tstop() called on n021 at Fri Nov  5 15:26:15 2021
Module time:
	user time   =     631.93 seconds =      10.53 minutes
	system time =      12.03 seconds =       0.20 minutes
	total time  =        162 seconds =       2.70 minutes
Total time:
	user time   =     631.93 seconds =      10.53 minutes
	system time =      12.03 seconds =       0.20 minutes
	total time  =        162 seconds =       2.70 minutes
Grab this energy -157.81305949578828
    Psi4 stopped on: Friday, 05 November 2021 03:26PM
    Psi4 wall time for execution: 0:02:41.95

*** Psi4 exiting successfully. Buy a developer a beer!
