                               Psi4 1.4a2.dev629

  ==> Input File <==

--------------------------------------------------------------------------
import os
memory 14 GB

molecule {
 C   -0.3233175083   -0.0000026099    0.0019974231
 C    0.0613674668   -1.4020736140   -2.4272978080
 C    0.0611131047    2.8024177443    0.0011544210
 C    0.0610997123   -1.4003407524    2.4266052753
 H    2.0835867957   -1.6480308501   -2.8501689926
 H   -0.7636301131   -0.3881222625   -4.0218453030
 H   -0.7651669507   -3.2910238271   -2.3523433904
 H    2.0836425957    3.2884648914    0.0040888715
 H   -0.7654895469    3.6856680631    1.6729112057
 H   -0.7627466078    3.6744380361   -1.6744956427
 H    2.0839763112   -1.6405208842    2.8453392055
 H   -0.7629184950   -3.2879442906    2.3480768474
 H   -0.7641246414   -0.3929539577    4.0259778874
units bohr
0 2
}

basis {

assign 6-31g_2dfp_

[ 6-31g_2dfp_ ]

spherical

!----------------------------------------------------------------------
! Basis Set Exchange
! Version v0.8.13
! https://www.basissetexchange.org
!----------------------------------------------------------------------
!   Basis set: 6-31G(2df,p)
! Description: 6-31G(2df,p)
!        Role: orbital
!     Version: 0  (Data from the original Basis Set Exchange)
!----------------------------------------------------------------------

****
H     0
S    3   1.00
     18.7311370              0.03349460
      2.8253937              0.23472695
      0.6401217              0.81375733
S    1   1.00
      0.1612778              1.00000000
P    1   1.00
      1.5000000              1.0000000
P    1   1.00
      0.3750000              1.0000000
****
B     0
S    6   1.00
   2068.8823000              0.0018663
    310.6495700              0.0142515
     70.6830330              0.0695516
     19.8610800              0.2325729
      6.2993048              0.4670787
      2.1270270              0.3634314
SP   3   1.00
      4.7279710             -0.1303938              0.0745976
      1.1903377             -0.1307889              0.3078467
      0.3594117              1.1309444              0.7434568
SP   1   1.00
      0.1267512              1.0000000              1.0000000
D    1   1.00
      0.8020000              1.0000000
D    1   1.00
      0.2005000              1.0000000
F    1   1.00
      0.5000000              1.0000000
****
C     0
S    6   1.00
   3047.5249000              0.0018347
    457.3695100              0.0140373
    103.9486900              0.0688426
     29.2101550              0.2321844
      9.2866630              0.4679413
      3.1639270              0.3623120
SP   3   1.00
      7.8682724             -0.1193324              0.0689991
      1.8812885             -0.1608542              0.3164240
      0.5442493              1.1434564              0.7443083
SP   1   1.00
      0.1687144              1.0000000              1.0000000
D    1   1.00
      1.2520000              1.0000000
D    1   1.00
      0.3130000              1.0000000
F    1   1.00
      0.8000000              1.0000000
****
N     0
S    6   1.00
   4173.5110000              0.0018348
    627.4579000              0.0139950
    142.9021000              0.0685870
     40.2343300              0.2322410
     12.8202100              0.4690700
      4.3904370              0.3604550
SP   3   1.00
     11.6263580             -0.1149610              0.0675800
      2.7162800             -0.1691180              0.3239070
      0.7722180              1.1458520              0.7408950
SP   1   1.00
      0.2120313              1.0000000              1.0000000
D    1   1.00
      1.8260000              1.0000000
D    1   1.00
      0.4565000              1.0000000
F    1   1.00
      1.0000000              1.0000000
****
O     0
S    6   1.00
   5484.6717000              0.0018311
    825.2349500              0.0139501
    188.0469600              0.0684451
     52.9645000              0.2327143
     16.8975700              0.4701930
      5.7996353              0.3585209
SP   3   1.00
     15.5396160             -0.1107775              0.0708743
      3.5999336             -0.1480263              0.3397528
      1.0137618              1.1307670              0.7271586
SP   1   1.00
      0.2700058              1.0000000              1.0000000
D    1   1.00
      2.5840000              1.0000000
D    1   1.00
      0.6460000              1.0000000
F    1   1.00
      1.4000000              1.0000000
****
F     0
S    6   1.00
   7001.7130900              0.0018196169
   1051.3660900              0.0139160796
    239.2856900              0.0684053245
     67.3974453              0.233185760
     21.5199573              0.471267439
      7.40310130             0.356618546
SP   3   1.00
     20.8479528             -0.108506975            0.0716287243
      4.80830834            -0.146451658            0.3459121030
      1.34406986             1.128688580            0.7224699570
SP   1   1.00
      0.358151393            1.0000000              1.0000000
D    1   1.00
      3.5000000              1.0000000
D    1   1.00
      0.8750000              1.0000000
F    1   1.00
      1.8500000              1.0000000
****
Al     0
S    6   1.00
  13983.1000000              0.00194267
   2098.7500000              0.0148599
    477.7050000              0.0728494
    134.3600000              0.2468300
     42.8709000              0.4872580
     14.5189000              0.3234960
SP   6   1.00
    239.6680000             -0.00292619             0.00460285
     57.4419000             -0.0374080              0.0331990
     18.2859000             -0.1144870              0.1362820
      6.5991400              0.1156350              0.3304760
      2.4904900              0.6125950              0.4491460
      0.9445400              0.3937990              0.2657040
SP   3   1.00
      1.2779000             -0.2276060             -0.0175130
      0.3975900              0.00144583             0.2445330
      0.1600950              1.0927900              0.8049340
SP   1   1.00
      0.0556577              1.0000000              1.0000000
D    1   1.00
      0.6500000              1.0000000
D    1   1.00
      0.1625000              1.0000000
F    1   1.00
      0.2500000              1.0000000
****
Si     0
S    6   1.00
  16115.9000000              0.00195948
   2425.5800000              0.01492880
    553.8670000              0.07284780
    156.3400000              0.24613000
     50.0683000              0.48591400
     17.0178000              0.32500200
SP   6   1.00
    292.7180000             -0.00278094             0.00443826
     69.8731000             -0.03571460             0.03266790
     22.3363000             -0.11498500             0.13472100
      8.1503900              0.09356340             0.32867800
      3.1345800              0.60301700             0.44964000
      1.2254300              0.41895900             0.26137200
SP   3   1.00
      1.7273800             -0.24463000            -0.01779510
      0.5729220              0.00431572             0.25353900
      0.2221920              1.09818000             0.80066900
SP   1   1.00
      0.0778369              1.00000000             1.00000000
D    1   1.00
      0.9000000              1.0000000
D    1   1.00
      0.2250000              1.0000000
F    1   1.00
      0.3200000              1.0000000
****
P     0
S    6   1.00
  19413.3000000              0.0018516
   2909.4200000              0.0142062
    661.3640000              0.0699995
    185.7590000              0.2400790
     59.1943000              0.4847620
     20.0310000              0.3352000
SP   6   1.00
    339.4780000             -0.00278217             0.00456462
     81.0101000             -0.0360499              0.03369360
     25.8780000             -0.1166310              0.13975500
      9.4522100              0.0968328              0.33936200
      3.6656600              0.6144180              0.45092100
      1.4674600              0.4037980              0.23858600
SP   3   1.00
      2.1562300             -0.2529230             -0.01776530
      0.7489970              0.0328517              0.27405800
      0.2831450              1.0812500              0.78542100
SP   1   1.00
      0.0998317              1.0000000              1.00000000
D    1   1.00
      1.1000000              1.0000000
D    1   1.00
      0.2750000              1.0000000
F    1   1.00
      0.4500000              1.0000000
****
S     0
S    6   1.00
  21917.1000000              0.0018690
   3301.4900000              0.0142300
    754.1460000              0.0696960
    212.7110000              0.2384870
     67.9896000              0.4833070
     23.0515000              0.3380740
SP   6   1.00
    423.7350000             -0.0023767              0.0040610
    100.7100000             -0.0316930              0.0306810
     32.1599000             -0.1133170              0.1304520
     11.8079000              0.0560900              0.3272050
      4.6311000              0.5922550              0.4528510
      1.8702500              0.4550060              0.2560420
SP   3   1.00
      2.6158400             -0.2503740             -0.0145110
      0.9221670              0.0669570              0.3102630
      0.3412870              1.0545100              0.7544830
SP   1   1.00
      0.1171670              1.0000000              1.0000000
D    1   1.00
      1.3000000              1.0000000
D    1   1.00
      0.3250000              1.0000000
F    1   1.00
      0.5500000              1.0000000
****
Cl     0
S    6   1.00
  25180.1000000              0.0018330
   3780.3500000              0.0140340
    860.4740000              0.0690970
    242.1450000              0.2374520
     77.3349000              0.4830340
     26.2470000              0.3398560
SP   6   1.00
    491.7650000             -0.0022974              0.0039894
    116.9840000             -0.0307140              0.0303180
     37.4153000             -0.1125280              0.1298800
     13.7834000              0.0450160              0.3279510
      5.4521500              0.5893530              0.4535270
      2.2258800              0.4652060              0.2521540
SP   3   1.00
      3.1864900             -0.2518300             -0.0142990
      1.1442700              0.0615890              0.3235720
      0.4203770              1.0601800              0.7435070
SP   1   1.00
      0.1426570              1.0000000              1.0000000
D    1   1.00
      1.5000000              1.0000000
D    1   1.00
      0.3750000              1.0000000
F    1   1.00
      0.7000000              1.0000000
****
}

set {
reference uhf
freeze_core true
e_convergence 10
d_convergence 10
dft_spherical_points 1202
dft_radial_points 99
}

e = energy('b3lyp')

print_out('Grab this energy {0}'.format(e))
--------------------------------------------------------------------------

    Molecular point group: c1

    Geometry (in Bohr), charge = 0, multiplicity = 2:

       Center              X                  Y                   Z               Mass
    ------------   -----------------  -----------------  -----------------  -----------------
         C           -0.323375822121    -0.000002328461     0.001523742007    12.000000000000
         C            0.061309152979    -1.402073332561    -2.427771489093    12.000000000000
         C            0.061054790879     2.802418025739     0.000680739907    12.000000000000
         C            0.061041398479    -1.400340470961     2.426131594207    12.000000000000
         H            2.083528481879    -1.648030568661    -2.850642673693     1.007825032230
         H           -0.763688426921    -0.388121981061    -4.022318984093     1.007825032230
         H           -0.765225264521    -3.291023545661    -2.352817071493     1.007825032230
         H            2.083584281879     3.288465172839     0.003615190407     1.007825032230
         H           -0.765547860721     3.685668344539     1.672437524607     1.007825032230
         H           -0.762804921621     3.674438317539    -1.674969323793     1.007825032230
         H            2.083917997379    -1.640520602761     2.844865524407     1.007825032230
         H           -0.762976808821    -3.287944009161     2.347603166307     1.007825032230
         H           -0.764182955221    -0.392953676261     4.025504206307     1.007825032230

  Charge       = 0
  Multiplicity = 2
  Basis Set: ANONYMOUSAB80B463
    Blend: 6-31G_2DFP_
  Basis Set: (ANONYMOUSAB80B463 AUX)
    Blend: DEF2-UNIVERSAL-JKFIT

    Orbital Energies [Eh]
    ---------------------

    Alpha Occupied:

       1A    -10.180274     2A    -10.166639     3A    -10.166480
       4A    -10.166319     5A     -0.797728     6A     -0.686669
       7A     -0.686426     8A     -0.531087     9A     -0.441229
      10A     -0.434879    11A     -0.434738    12A     -0.382893
      13A     -0.382822    14A     -0.363927    15A     -0.338069
      16A     -0.337938    17A     -0.168899

    Alpha Virtual:

      18A      0.076404    19A      0.134489    20A      0.134554
      21A      0.142974    22A      0.143099    23A      0.155178
      24A      0.179245    25A      0.179324    26A      0.203438
      27A      0.215259    28A      0.275740    29A      0.276277
      30A      0.399135    31A      0.399205    32A      0.403558
      33A      0.424317    34A      0.424427    35A      0.456725
      36A      0.495555    37A      0.495673    38A      0.512431
      39A      0.514112    40A      0.578863    41A      0.579443
      42A      0.591938    43A      0.592527    44A      0.603229
      45A      0.625739    46A      0.632479    47A      0.636779
      48A      0.636851    49A      0.663716    50A      0.663781
      51A      0.684377    52A      0.684436    53A      0.735304
      54A      0.826009    55A      0.826439    56A      0.854431
      57A      0.915594    58A      0.915871    59A      0.944750
      60A      0.945404    61A      0.961262    62A      0.962641
      63A      1.003563    64A      1.128302    65A      1.128743
      66A      1.143092    67A      1.163434    68A      1.163632
      69A      1.223768    70A      1.274871    71A      1.275180
      72A      1.278893    73A      1.325059    74A      1.325070
      75A      1.356853    76A      1.366386    77A      1.366716
      78A      1.393035    79A      1.404764    80A      1.405397
      81A      1.417640    82A      1.418439    83A      1.428661
      84A      1.492390    85A      1.500429    86A      1.543042
      87A      1.543592    88A      1.574633    89A      1.574649
      90A      1.671990    91A      1.740476    92A      1.741228
      93A      1.769844    94A      1.833402    95A      1.834388
      96A      1.973356    97A      2.019133    98A      2.020241
      99A      2.020503   100A      2.052917   101A      2.054525
     102A      2.739186   103A      2.739739   104A      2.791142
     105A      2.811930   106A      2.890228   107A      2.890759
     108A      2.895070   109A      2.929864   110A      2.929911
     111A      2.959622   112A      2.964888   113A      2.965188
     114A      3.034923   115A      3.072104   116A      3.072372
     117A      3.085281   118A      3.167929   119A      3.168332
     120A      3.180883   121A      3.285236   122A      3.285323
     123A      3.326325   124A      3.326986   125A      3.374917
     126A      3.489006   127A      3.489300   128A      3.513736
     129A      3.524696   130A      3.568207   131A      3.568834
     132A      3.573609   133A      3.666860   134A      3.667265
     135A      3.681433   136A      3.694518   137A      3.695490
     138A      3.776086   139A      3.778608   140A      3.789713
     141A      3.912887   142A      3.913454   143A      4.036783
     144A      4.112552   145A      4.115105   146A      4.150552
     147A      4.152305   148A      4.176271   149A      4.204043
     150A      4.204489   151A      4.204583   152A      4.214564
     153A      4.317416   154A      4.318976   155A      4.361447
     156A      4.426778   157A      4.427290   158A      4.445461
     159A      4.518839   160A      4.519674   161A      4.579398
     162A      4.580076   163A      4.618199   164A      4.711490
     165A      4.775284   166A      4.777447   167A      4.839271
     168A      4.963673   169A      5.003706   170A      5.004420
     171A      5.233328   172A      5.251643   173A      5.252573
     174A      5.359385   175A      5.360815   176A      5.482601

    Beta Occupied:

       1A    -10.167395     2A    -10.167239     3A    -10.167083
       4A    -10.166430     5A     -0.781081     6A     -0.684462
       7A     -0.684234     8A     -0.512000     9A     -0.431253
      10A     -0.431131    11A     -0.421954    12A     -0.376982
      13A     -0.376921    14A     -0.362914    15A     -0.333179
      16A     -0.333056

    Beta Virtual:

      17A     -0.025510    18A      0.077409    19A      0.135394
      20A      0.135444    21A      0.144816    22A      0.144944
      23A      0.163575    24A      0.182925    25A      0.182968
      26A      0.215486    27A      0.218839    28A      0.282107
      29A      0.282624    30A      0.400303    31A      0.400373
      32A      0.420011    33A      0.427130    34A      0.427242
      35A      0.468614    36A      0.497817    37A      0.497930
      38A      0.514160    39A      0.556515    40A      0.584428
      41A      0.585011    42A      0.598153    43A      0.598714
      44A      0.610638    45A      0.629104    46A      0.632629
      47A      0.640024    48A      0.640134    49A      0.667283
      50A      0.667351    51A      0.686956    52A      0.687057
      53A      0.757852    54A      0.831154    55A      0.831627
      56A      0.855760    57A      0.923585    58A      0.923793
      59A      0.946587    60A      0.954350    61A      0.966617
      62A      0.967887    63A      1.008815    64A      1.132243
      65A      1.132833    66A      1.156462    67A      1.168617
      68A      1.168651    69A      1.232724    70A      1.280457
      71A      1.280764    72A      1.284635    73A      1.330069
      74A      1.330092    75A      1.366294    76A      1.371656
      77A      1.371928    78A      1.394088    79A      1.408199
      80A      1.408884    81A      1.422697    82A      1.423484
      83A      1.428919    84A      1.493444    85A      1.510874
      86A      1.547320    87A      1.547870    88A      1.582613
      89A      1.582628    90A      1.676912    91A      1.746237
      92A      1.747004    93A      1.780566    94A      1.837229
      95A      1.838211    96A      1.974211    97A      2.026565
      98A      2.026686    99A      2.040752   100A      2.059602
     101A      2.061265   102A      2.747551   103A      2.748072
     104A      2.812346   105A      2.816301   106A      2.903040
     107A      2.903450   108A      2.924779   109A      2.932307
     110A      2.932327   111A      2.960689   112A      2.969492
     113A      2.969755   114A      3.042778   115A      3.082083
     116A      3.082333   117A      3.087102   118A      3.183601
     119A      3.184072   120A      3.188612   121A      3.289956
     122A      3.290092   123A      3.330154   124A      3.330781
     125A      3.382760   126A      3.491798   127A      3.492057
     128A      3.512109   129A      3.527764   130A      3.573262
     131A      3.581627   132A      3.582321   133A      3.672051
     134A      3.672181   135A      3.694791   136A      3.726310
     137A      3.726590   138A      3.780641   139A      3.783073
     140A      3.818287   141A      3.922707   142A      3.923240
     143A      4.047795   144A      4.119556   145A      4.121886
     146A      4.157707   147A      4.159509   148A      4.190178
     149A      4.210392   150A      4.210506   151A      4.211978
     152A      4.219012   153A      4.324747   154A      4.326355
     155A      4.364806   156A      4.435011   157A      4.435430
     158A      4.448328   159A      4.526629   160A      4.527442
     161A      4.589967   162A      4.590640   163A      4.625387
     164A      4.721829   165A      4.782276   166A      4.784354
     167A      4.842195   168A      4.968441   169A      5.007716
     170A      5.008449   171A      5.239019   172A      5.253414
     173A      5.254360   174A      5.365816   175A      5.367289
     176A      5.484910

    Final Occupation by Irrep:
              A
    DOCC [    16 ]
    SOCC [     1 ]

  @DF-UKS Final Energy:  -157.81301836493233

   => Energetics <=

    Nuclear Repulsion Energy =            125.4320587379552023
    One-Electron Energy =                -458.8198395031059817
    Two-Electron Energy =                 195.8859355582677040
    DFT Exchange-Correlation Energy =     -20.3111731580492894
    Empirical Dispersion Energy =           0.0000000000000000
    VV10 Nonlocal Energy =                  0.0000000000000000
    Total Energy =                       -157.8130183649323328

  UHF NO Occupations:
  HONO-2 :   15  A 1.9996034
  HONO-1 :   16  A 1.9989797
  HONO-0 :   17  A 1.0000000
  LUNO+0 :   18  A 0.0010203
  LUNO+1 :   19  A 0.0003966
  LUNO+2 :   20  A 0.0001982
  LUNO+3 :   21  A 0.0001976

Computation Completed

Properties will be evaluated at   0.000000,   0.000000,   0.000000 [a0]

Properties computed using the SCF density matrix

  Nuclear Dipole Moment: [e a0]
     X:     0.8268      Y:    -0.0000      Z:    -0.0033

  Electronic Dipole Moment: [e a0]
     X:    -0.7482      Y:     0.0000      Z:     0.0034

  Dipole Moment: [e a0]
     X:     0.0785      Y:    -0.0000      Z:     0.0000     Total:     0.0785

  Dipole Moment: [D]
     X:     0.1996      Y:    -0.0000      Z:     0.0001     Total:     0.1996

*** tstop() called on n070 at Fri Nov  5 14:58:33 2021
Module time:
	user time   =     628.41 seconds =      10.47 minutes
	system time =      16.78 seconds =       0.28 minutes
	total time  =        163 seconds =       2.72 minutes
Total time:
	user time   =     628.41 seconds =      10.47 minutes
	system time =      16.78 seconds =       0.28 minutes
	total time  =        163 seconds =       2.72 minutes
Grab this energy -157.81301836493233
    Psi4 stopped on: Friday, 05 November 2021 02:58PM
    Psi4 wall time for execution: 0:02:42.73

*** Psi4 exiting successfully. Buy a developer a beer!
