                               Psi4 1.4a2.dev629

  ==> Input File <==

--------------------------------------------------------------------------
import os
memory 14 GB

molecule {
 C   -0.3233371963    0.0050961470    0.0000000000
 C    0.0606577727   -1.3999548719   -2.4269503933
 C    0.0619843721    2.8016928488   -0.0000000000
 C    0.0606577727   -1.3999548719    2.4269503933
 H    2.0851940370   -1.6420848075   -2.8454346266
 H   -0.7678120970   -0.3906072547   -4.0270625407
 H   -0.7648564753   -3.2936585519   -2.3498681578
 H    2.0902740592    3.2936024345   -0.0000000000
 H   -0.7639477931    3.6760976140    1.6767733201
 H   -0.7639477931    3.6760976140   -1.6767733201
 H    2.0851940369   -1.6420848075    2.8454346266
 H   -0.7648564753   -3.2936585519    2.3498681578
 H   -0.7678120970   -0.3906072547    4.0270625407
units bohr
0 2
}

basis {

assign 6-31g_2dfp_

[ 6-31g_2dfp_ ]

spherical

!----------------------------------------------------------------------
! Basis Set Exchange
! Version v0.8.13
! https://www.basissetexchange.org
!----------------------------------------------------------------------
!   Basis set: 6-31G(2df,p)
! Description: 6-31G(2df,p)
!        Role: orbital
!     Version: 0  (Data from the original Basis Set Exchange)
!----------------------------------------------------------------------

****
H     0
S    3   1.00
     18.7311370              0.03349460
      2.8253937              0.23472695
      0.6401217              0.81375733
S    1   1.00
      0.1612778              1.00000000
P    1   1.00
      1.5000000              1.0000000
P    1   1.00
      0.3750000              1.0000000
****
B     0
S    6   1.00
   2068.8823000              0.0018663
    310.6495700              0.0142515
     70.6830330              0.0695516
     19.8610800              0.2325729
      6.2993048              0.4670787
      2.1270270              0.3634314
SP   3   1.00
      4.7279710             -0.1303938              0.0745976
      1.1903377             -0.1307889              0.3078467
      0.3594117              1.1309444              0.7434568
SP   1   1.00
      0.1267512              1.0000000              1.0000000
D    1   1.00
      0.8020000              1.0000000
D    1   1.00
      0.2005000              1.0000000
F    1   1.00
      0.5000000              1.0000000
****
C     0
S    6   1.00
   3047.5249000              0.0018347
    457.3695100              0.0140373
    103.9486900              0.0688426
     29.2101550              0.2321844
      9.2866630              0.4679413
      3.1639270              0.3623120
SP   3   1.00
      7.8682724             -0.1193324              0.0689991
      1.8812885             -0.1608542              0.3164240
      0.5442493              1.1434564              0.7443083
SP   1   1.00
      0.1687144              1.0000000              1.0000000
D    1   1.00
      1.2520000              1.0000000
D    1   1.00
      0.3130000              1.0000000
F    1   1.00
      0.8000000              1.0000000
****
N     0
S    6   1.00
   4173.5110000              0.0018348
    627.4579000              0.0139950
    142.9021000              0.0685870
     40.2343300              0.2322410
     12.8202100              0.4690700
      4.3904370              0.3604550
SP   3   1.00
     11.6263580             -0.1149610              0.0675800
      2.7162800             -0.1691180              0.3239070
      0.7722180              1.1458520              0.7408950
SP   1   1.00
      0.2120313              1.0000000              1.0000000
D    1   1.00
      1.8260000              1.0000000
D    1   1.00
      0.4565000              1.0000000
F    1   1.00
      1.0000000              1.0000000
****
O     0
S    6   1.00
   5484.6717000              0.0018311
    825.2349500              0.0139501
    188.0469600              0.0684451
     52.9645000              0.2327143
     16.8975700              0.4701930
      5.7996353              0.3585209
SP   3   1.00
     15.5396160             -0.1107775              0.0708743
      3.5999336             -0.1480263              0.3397528
      1.0137618              1.1307670              0.7271586
SP   1   1.00
      0.2700058              1.0000000              1.0000000
D    1   1.00
      2.5840000              1.0000000
D    1   1.00
      0.6460000              1.0000000
F    1   1.00
      1.4000000              1.0000000
****
F     0
S    6   1.00
   7001.7130900              0.0018196169
   1051.3660900              0.0139160796
    239.2856900              0.0684053245
     67.3974453              0.233185760
     21.5199573              0.471267439
      7.40310130             0.356618546
SP   3   1.00
     20.8479528             -0.108506975            0.0716287243
      4.80830834            -0.146451658            0.3459121030
      1.34406986             1.128688580            0.7224699570
SP   1   1.00
      0.358151393            1.0000000              1.0000000
D    1   1.00
      3.5000000              1.0000000
D    1   1.00
      0.8750000              1.0000000
F    1   1.00
      1.8500000              1.0000000
****
Al     0
S    6   1.00
  13983.1000000              0.00194267
   2098.7500000              0.0148599
    477.7050000              0.0728494
    134.3600000              0.2468300
     42.8709000              0.4872580
     14.5189000              0.3234960
SP   6   1.00
    239.6680000             -0.00292619             0.00460285
     57.4419000             -0.0374080              0.0331990
     18.2859000             -0.1144870              0.1362820
      6.5991400              0.1156350              0.3304760
      2.4904900              0.6125950              0.4491460
      0.9445400              0.3937990              0.2657040
SP   3   1.00
      1.2779000             -0.2276060             -0.0175130
      0.3975900              0.00144583             0.2445330
      0.1600950              1.0927900              0.8049340
SP   1   1.00
      0.0556577              1.0000000              1.0000000
D    1   1.00
      0.6500000              1.0000000
D    1   1.00
      0.1625000              1.0000000
F    1   1.00
      0.2500000              1.0000000
****
Si     0
S    6   1.00
  16115.9000000              0.00195948
   2425.5800000              0.01492880
    553.8670000              0.07284780
    156.3400000              0.24613000
     50.0683000              0.48591400
     17.0178000              0.32500200
SP   6   1.00
    292.7180000             -0.00278094             0.00443826
     69.8731000             -0.03571460             0.03266790
     22.3363000             -0.11498500             0.13472100
      8.1503900              0.09356340             0.32867800
      3.1345800              0.60301700             0.44964000
      1.2254300              0.41895900             0.26137200
SP   3   1.00
      1.7273800             -0.24463000            -0.01779510
      0.5729220              0.00431572             0.25353900
      0.2221920              1.09818000             0.80066900
SP   1   1.00
      0.0778369              1.00000000             1.00000000
D    1   1.00
      0.9000000              1.0000000
D    1   1.00
      0.2250000              1.0000000
F    1   1.00
      0.3200000              1.0000000
****
P     0
S    6   1.00
  19413.3000000              0.0018516
   2909.4200000              0.0142062
    661.3640000              0.0699995
    185.7590000              0.2400790
     59.1943000              0.4847620
     20.0310000              0.3352000
SP   6   1.00
    339.4780000             -0.00278217             0.00456462
     81.0101000             -0.0360499              0.03369360
     25.8780000             -0.1166310              0.13975500
      9.4522100              0.0968328              0.33936200
      3.6656600              0.6144180              0.45092100
      1.4674600              0.4037980              0.23858600
SP   3   1.00
      2.1562300             -0.2529230             -0.01776530
      0.7489970              0.0328517              0.27405800
      0.2831450              1.0812500              0.78542100
SP   1   1.00
      0.0998317              1.0000000              1.00000000
D    1   1.00
      1.1000000              1.0000000
D    1   1.00
      0.2750000              1.0000000
F    1   1.00
      0.4500000              1.0000000
****
S     0
S    6   1.00
  21917.1000000              0.0018690
   3301.4900000              0.0142300
    754.1460000              0.0696960
    212.7110000              0.2384870
     67.9896000              0.4833070
     23.0515000              0.3380740
SP   6   1.00
    423.7350000             -0.0023767              0.0040610
    100.7100000             -0.0316930              0.0306810
     32.1599000             -0.1133170              0.1304520
     11.8079000              0.0560900              0.3272050
      4.6311000              0.5922550              0.4528510
      1.8702500              0.4550060              0.2560420
SP   3   1.00
      2.6158400             -0.2503740             -0.0145110
      0.9221670              0.0669570              0.3102630
      0.3412870              1.0545100              0.7544830
SP   1   1.00
      0.1171670              1.0000000              1.0000000
D    1   1.00
      1.3000000              1.0000000
D    1   1.00
      0.3250000              1.0000000
F    1   1.00
      0.5500000              1.0000000
****
Cl     0
S    6   1.00
  25180.1000000              0.0018330
   3780.3500000              0.0140340
    860.4740000              0.0690970
    242.1450000              0.2374520
     77.3349000              0.4830340
     26.2470000              0.3398560
SP   6   1.00
    491.7650000             -0.0022974              0.0039894
    116.9840000             -0.0307140              0.0303180
     37.4153000             -0.1125280              0.1298800
     13.7834000              0.0450160              0.3279510
      5.4521500              0.5893530              0.4535270
      2.2258800              0.4652060              0.2521540
SP   3   1.00
      3.1864900             -0.2518300             -0.0142990
      1.1442700              0.0615890              0.3235720
      0.4203770              1.0601800              0.7435070
SP   1   1.00
      0.1426570              1.0000000              1.0000000
D    1   1.00
      1.5000000              1.0000000
D    1   1.00
      0.3750000              1.0000000
F    1   1.00
      0.7000000              1.0000000
****
}

set {
reference uhf
freeze_core true
e_convergence 10
d_convergence 10
dft_spherical_points 1202
dft_radial_points 99
}

e = energy('b3lyp')

print_out('Grab this energy {0}'.format(e))
--------------------------------------------------------------------------

    Molecular point group: cs

    Geometry (in Bohr), charge = 0, multiplicity = 2:

       Center              X                  Y                   Z               Mass
    ------------   -----------------  -----------------  -----------------  -----------------
         C           -0.323337717507     0.003771582880     0.000000000000    12.000000000000
         C            0.060657251493    -1.401279436020    -2.426950393300    12.000000000000
         C            0.061983850893     2.800368284680     0.000000000000    12.000000000000
         C            0.060657251493    -1.401279436020     2.426950393300    12.000000000000
         H            2.085193515743    -1.643409371620    -2.845434626600     1.007825032230
         H           -0.767812618207    -0.391931818820    -4.027062540700     1.007825032230
         H           -0.764856996507    -3.294983116020    -2.349868157800     1.007825032230
         H            2.090273537993     3.292277870380     0.000000000000     1.007825032230
         H           -0.763948314307     3.674773049880     1.676773320100     1.007825032230
         H           -0.763948314307     3.674773049880    -1.676773320100     1.007825032230
         H            2.085193515743    -1.643409371620     2.845434626600     1.007825032230
         H           -0.764856996507    -3.294983116020     2.349868157800     1.007825032230
         H           -0.767812618207    -0.391931818820     4.027062540700     1.007825032230

  Charge       = 0
  Multiplicity = 2
  Basis Set: ANONYMOUS309FD35F
    Blend: 6-31G_2DFP_
  Basis Set: (ANONYMOUS309FD35F AUX)
    Blend: DEF2-UNIVERSAL-JKFIT

    Orbital Energies [Eh]
    ---------------------

    Alpha Occupied:

       1Ap   -10.180342     1App  -10.167064     2Ap   -10.167038
       3Ap   -10.166942     4Ap    -0.797769     5Ap    -0.686347
       2App   -0.686028     6Ap    -0.530775     7Ap    -0.441128
       3App   -0.434975     8Ap    -0.434367     4App   -0.382710
       9Ap    -0.382493     5App   -0.363608    10Ap    -0.338364
       6App   -0.337630    11Ap    -0.168961

    Alpha Virtual:

      12Ap     0.076073    13Ap     0.134092     7App    0.134219
      14Ap     0.142595     8App    0.142656    15Ap     0.154879
      16Ap     0.178647     9App    0.178908    17Ap     0.203548
      10App    0.214802    11App    0.275716    18Ap     0.276253
      12App    0.398981    19Ap     0.399475    20Ap     0.403343
      13App    0.423995    21Ap     0.424199    22Ap     0.456597
      14App    0.495330    23Ap     0.495447    15App    0.512162
      24Ap     0.513978    16App    0.578488    25Ap     0.579110
      26Ap     0.591385    17App    0.591908    27Ap     0.602594
      28Ap     0.624757    18App    0.631738    29Ap     0.636191
      19App    0.636352    30Ap     0.663388    20App    0.663439
      21App    0.683788    31Ap     0.683914    32Ap     0.734992
      22App    0.825356    33Ap     0.825456    23App    0.853916
      34Ap     0.914598    24App    0.915456    25App    0.944106
      35Ap     0.944611    26App    0.961210    36Ap     0.961395
      37Ap     1.003452    27App    1.127465    38Ap     1.128693
      39Ap     1.142262    28App    1.162732    40Ap     1.163830
      41Ap     1.223330    42Ap     1.274115    29App    1.274858
      43Ap     1.279349    30App    1.324328    44Ap     1.324388
      45Ap     1.355983    31App    1.365777    46Ap     1.366343
      32App    1.392419    47Ap     1.403595    33App    1.404455
      48Ap     1.416467    34App    1.417771    35App    1.427957
      36App    1.491497    49Ap     1.499059    37App    1.542818
      50Ap     1.542857    51Ap     1.573942    38App    1.574967
      52Ap     1.669827    39App    1.739314    53Ap     1.739517
      54Ap     1.768333    40App    1.830705    55Ap     1.832079
      41App    1.971719    56Ap     2.018254    57Ap     2.018438
      42App    2.019709    43App    2.052571    58Ap     2.052732
      44App    2.738260    59Ap     2.738718    60Ap     2.790932
      45App    2.811422    46App    2.889228    61Ap     2.890628
      62Ap     2.894980    47App    2.929416    63Ap     2.929576
      48App    2.959004    49App    2.964354    64Ap     2.964400
      65Ap     3.033995    66Ap     3.071165    50App    3.071412
      51App    3.084347    52App    3.168632    67Ap     3.168871
      68Ap     3.180657    53App    3.284905    69Ap     3.285732
      54App    3.326673    70Ap     3.327644    71Ap     3.375614
      72Ap     3.489634    55App    3.490660    56App    3.514027
      73Ap     3.525344    74Ap     3.568237    57App    3.568455
      58App    3.575227    75Ap     3.665618    59App    3.667149
      76Ap     3.679660    77Ap     3.693453    60App    3.694788
      61App    3.776015    78Ap     3.777505    79Ap     3.789208
      62App    3.911640    80Ap     3.912828    81Ap     4.034460
      63App    4.111178    82Ap     4.111550    64App    4.147160
      83Ap     4.149026    84Ap     4.173259    65App    4.202287
      85Ap     4.202689    86Ap     4.203853    66App    4.210841
      67App    4.315634    87Ap     4.316332    68App    4.358976
      88Ap     4.424435    69App    4.424464    70App    4.443412
      89Ap     4.516336    71App    4.517354    90Ap     4.577838
      72App    4.578412    91Ap     4.617839    92Ap     4.709424
      93Ap     4.774616    73App    4.774627    74App    4.836916
      94Ap     4.962847    95Ap     5.002158    75App    5.003752
      96Ap     5.228078    97Ap     5.246297    76App    5.247323
      77App    5.354909    98Ap     5.356118    78App    5.479351

    Beta Occupied:

       1App  -10.167813     1Ap   -10.167797     2Ap   -10.167713
       3Ap   -10.166520     4Ap    -0.781094     5Ap    -0.684142
       2App   -0.683837     6Ap    -0.511746     3App   -0.431353
       7Ap    -0.430736     8Ap    -0.421820     4App   -0.376843
       9Ap    -0.376529     5App   -0.362591    10Ap    -0.333509
       6App   -0.332732

    Beta Virtual:

      11Ap    -0.025744    12Ap     0.077082    13Ap     0.135006
       7App    0.135085    14Ap     0.144477     8App    0.144515
      15Ap     0.163339    16Ap     0.182326     9App    0.182571
      10App    0.215032    17Ap     0.218930    11App    0.282103
      18Ap     0.282562    12App    0.400157    19Ap     0.400637
      20Ap     0.419791    13App    0.426793    21Ap     0.427023
      22Ap     0.468504    14App    0.497587    23Ap     0.497712
      15App    0.513897    24Ap     0.556322    16App    0.584011
      25Ap     0.584696    26Ap     0.597568    17App    0.598081
      27Ap     0.610011    28Ap     0.628133    18App    0.631907
      29Ap     0.639495    19App    0.639607    30Ap     0.666967
      20App    0.666988    21App    0.686440    31Ap     0.686531
      32Ap     0.757515    22App    0.830526    33Ap     0.830623
      23App    0.855269    34Ap     0.922569    24App    0.923427
      25App    0.945946    35Ap     0.953541    26App    0.966492
      36Ap     0.966722    37Ap     1.008692    27App    1.131563
      38Ap     1.132675    39Ap     1.155610    28App    1.167777
      40Ap     1.168938    41Ap     1.232301    42Ap     1.279748
      29App    1.280416    43Ap     1.285107    30App    1.329334
      44Ap     1.329359    45Ap     1.365393    31App    1.371052
      46Ap     1.371561    32App    1.393481    47Ap     1.407110
      33App    1.407865    48Ap     1.421529    34App    1.422780
      35App    1.428254    36App    1.492546    49Ap     1.509499
      37App    1.547122    50Ap     1.547375    51Ap     1.581750
      38App    1.582898    52Ap     1.674674    39App    1.745069
      53Ap     1.745290    54Ap     1.779110    40App    1.834550
      55Ap     1.835945    41App    1.972579    56Ap     2.024832
      42App    2.026077    57Ap     2.039654    43App    2.059311
      58Ap     2.059438    44App    2.746576    59Ap     2.747073
      45App    2.811833    60Ap     2.816068    46App    2.901977
      61Ap     2.903286    62Ap     2.924639    47App    2.931831
      63Ap     2.932137    48App    2.960067    49App    2.968897
      64Ap     2.968948    65Ap     3.041930    66Ap     3.080954
      50App    3.081444    51App    3.086162    52App    3.184292
      67Ap     3.184571    68Ap     3.188476    53App    3.289707
      69Ap     3.290526    54App    3.330489    70Ap     3.331437
      71Ap     3.383433    72Ap     3.492395    55App    3.493353
      56App    3.512400    73Ap     3.528389    57App    3.574913
      74Ap     3.581413    58App    3.582135    75Ap     3.670461
      59App    3.671802    76Ap     3.692940    77Ap     3.725210
      60App    3.726303    61App    3.780577    78Ap     3.782068
      79Ap     3.817677    62App    3.921453    80Ap     3.922655
      81Ap     4.045347    63App    4.118011    82Ap     4.118353
      64App    4.154477    83Ap     4.156130    84Ap     4.187316
      65App    4.208233    85Ap     4.209780    86Ap     4.210655
      66App    4.215315    67App    4.322984    87Ap     4.323865
      68App    4.362337    88Ap     4.432633    69App    4.432684
      70App    4.446305    89Ap     4.524182    71App    4.525090
      90Ap     4.588437    72App    4.588993    91Ap     4.625050
      92Ap     4.719771    73App    4.781574    93Ap     4.781577
      74App    4.839833    94Ap     4.967640    95Ap     5.006231
      75App    5.007760    96Ap     5.233793    97Ap     5.248077
      76App    5.249111    77App    5.361371    98Ap     5.362617
      78App    5.481672

    Final Occupation by Irrep:
             Ap   App
    DOCC [    10,    6 ]
    SOCC [     1,    0 ]

  @DF-UKS Final Energy:  -157.81306050166171

   => Energetics <=

    Nuclear Repulsion Energy =            125.3946821405720726
    One-Electron Energy =                -458.7489990837199230
    Two-Electron Energy =                 195.8484026832844904
    DFT Exchange-Correlation Energy =     -20.3071462417983497
    Empirical Dispersion Energy =           0.0000000000000000
    VV10 Nonlocal Energy =                  0.0000000000000000
    Total Energy =                       -157.8130605016617096

  UHF NO Occupations:
  HONO-2 :    9 Ap 1.9996008
  HONO-1 :   10 Ap 1.9989805
  HONO-0 :   11 Ap 1.0000000
  LUNO+0 :   12 Ap 0.0010195
  LUNO+1 :   13 Ap 0.0003992
  LUNO+2 :    7App 0.0001985
  LUNO+3 :   14 Ap 0.0001966

Computation Completed

Properties will be evaluated at   0.000000,   0.000000,   0.000000 [a0]

Properties computed using the SCF density matrix

  Nuclear Dipole Moment: [e a0]
     X:     0.8272      Y:    -0.0093      Z:    -0.0000

  Electronic Dipole Moment: [e a0]
     X:    -0.7493      Y:     0.0098      Z:     0.0000

  Dipole Moment: [e a0]
     X:     0.0779      Y:     0.0005      Z:    -0.0000     Total:     0.0779

  Dipole Moment: [D]
     X:     0.1980      Y:     0.0012      Z:    -0.0000     Total:     0.1980

*** tstop() called on n073 at Fri Nov  5 13:47:13 2021
Module time:
	user time   =     567.54 seconds =       9.46 minutes
	system time =      13.19 seconds =       0.22 minutes
	total time  =        146 seconds =       2.43 minutes
Total time:
	user time   =     567.54 seconds =       9.46 minutes
	system time =      13.19 seconds =       0.22 minutes
	total time  =        146 seconds =       2.43 minutes
Grab this energy -157.8130605016617
    Psi4 stopped on: Friday, 05 November 2021 01:47PM
    Psi4 wall time for execution: 0:02:26.04

*** Psi4 exiting successfully. Buy a developer a beer!
