                               Psi4 1.4a2.dev629

  ==> Input File <==

--------------------------------------------------------------------------
import os
memory 14 GB

molecule {
 C   -0.3233392033   -0.0000016643    0.0012458418
 C    0.0606367470   -1.4014577107   -2.4287086194
 C    0.0610199950    2.8017590630   -0.0013190870
 C    0.0616423259   -1.4002939658    2.4240543305
 H    2.0870761045   -1.6439830087   -2.8467280883
 H   -0.7653749669   -0.3878188442   -4.0250243657
 H   -0.7654517296   -3.2919255874   -2.3482465793
 H    2.0867979838    3.2881021578    0.0005138897
 H   -0.7655598152    3.6801748034    1.6766906335
 H   -0.7657326751    3.6803306379   -1.6763116543
 H    2.0867933343   -1.6442130213    2.8481544310
 H   -0.7656827979   -3.2920679933    2.3497335355
 H   -0.7654331791   -0.3886291798    4.0259457321
units bohr
0 2
}

basis {

assign 6-31g_2dfp_

[ 6-31g_2dfp_ ]

spherical

!----------------------------------------------------------------------
! Basis Set Exchange
! Version v0.8.13
! https://www.basissetexchange.org
!----------------------------------------------------------------------
!   Basis set: 6-31G(2df,p)
! Description: 6-31G(2df,p)
!        Role: orbital
!     Version: 0  (Data from the original Basis Set Exchange)
!----------------------------------------------------------------------

****
H     0
S    3   1.00
     18.7311370              0.03349460
      2.8253937              0.23472695
      0.6401217              0.81375733
S    1   1.00
      0.1612778              1.00000000
P    1   1.00
      1.5000000              1.0000000
P    1   1.00
      0.3750000              1.0000000
****
B     0
S    6   1.00
   2068.8823000              0.0018663
    310.6495700              0.0142515
     70.6830330              0.0695516
     19.8610800              0.2325729
      6.2993048              0.4670787
      2.1270270              0.3634314
SP   3   1.00
      4.7279710             -0.1303938              0.0745976
      1.1903377             -0.1307889              0.3078467
      0.3594117              1.1309444              0.7434568
SP   1   1.00
      0.1267512              1.0000000              1.0000000
D    1   1.00
      0.8020000              1.0000000
D    1   1.00
      0.2005000              1.0000000
F    1   1.00
      0.5000000              1.0000000
****
C     0
S    6   1.00
   3047.5249000              0.0018347
    457.3695100              0.0140373
    103.9486900              0.0688426
     29.2101550              0.2321844
      9.2866630              0.4679413
      3.1639270              0.3623120
SP   3   1.00
      7.8682724             -0.1193324              0.0689991
      1.8812885             -0.1608542              0.3164240
      0.5442493              1.1434564              0.7443083
SP   1   1.00
      0.1687144              1.0000000              1.0000000
D    1   1.00
      1.2520000              1.0000000
D    1   1.00
      0.3130000              1.0000000
F    1   1.00
      0.8000000              1.0000000
****
N     0
S    6   1.00
   4173.5110000              0.0018348
    627.4579000              0.0139950
    142.9021000              0.0685870
     40.2343300              0.2322410
     12.8202100              0.4690700
      4.3904370              0.3604550
SP   3   1.00
     11.6263580             -0.1149610              0.0675800
      2.7162800             -0.1691180              0.3239070
      0.7722180              1.1458520              0.7408950
SP   1   1.00
      0.2120313              1.0000000              1.0000000
D    1   1.00
      1.8260000              1.0000000
D    1   1.00
      0.4565000              1.0000000
F    1   1.00
      1.0000000              1.0000000
****
O     0
S    6   1.00
   5484.6717000              0.0018311
    825.2349500              0.0139501
    188.0469600              0.0684451
     52.9645000              0.2327143
     16.8975700              0.4701930
      5.7996353              0.3585209
SP   3   1.00
     15.5396160             -0.1107775              0.0708743
      3.5999336             -0.1480263              0.3397528
      1.0137618              1.1307670              0.7271586
SP   1   1.00
      0.2700058              1.0000000              1.0000000
D    1   1.00
      2.5840000              1.0000000
D    1   1.00
      0.6460000              1.0000000
F    1   1.00
      1.4000000              1.0000000
****
F     0
S    6   1.00
   7001.7130900              0.0018196169
   1051.3660900              0.0139160796
    239.2856900              0.0684053245
     67.3974453              0.233185760
     21.5199573              0.471267439
      7.40310130             0.356618546
SP   3   1.00
     20.8479528             -0.108506975            0.0716287243
      4.80830834            -0.146451658            0.3459121030
      1.34406986             1.128688580            0.7224699570
SP   1   1.00
      0.358151393            1.0000000              1.0000000
D    1   1.00
      3.5000000              1.0000000
D    1   1.00
      0.8750000              1.0000000
F    1   1.00
      1.8500000              1.0000000
****
Al     0
S    6   1.00
  13983.1000000              0.00194267
   2098.7500000              0.0148599
    477.7050000              0.0728494
    134.3600000              0.2468300
     42.8709000              0.4872580
     14.5189000              0.3234960
SP   6   1.00
    239.6680000             -0.00292619             0.00460285
     57.4419000             -0.0374080              0.0331990
     18.2859000             -0.1144870              0.1362820
      6.5991400              0.1156350              0.3304760
      2.4904900              0.6125950              0.4491460
      0.9445400              0.3937990              0.2657040
SP   3   1.00
      1.2779000             -0.2276060             -0.0175130
      0.3975900              0.00144583             0.2445330
      0.1600950              1.0927900              0.8049340
SP   1   1.00
      0.0556577              1.0000000              1.0000000
D    1   1.00
      0.6500000              1.0000000
D    1   1.00
      0.1625000              1.0000000
F    1   1.00
      0.2500000              1.0000000
****
Si     0
S    6   1.00
  16115.9000000              0.00195948
   2425.5800000              0.01492880
    553.8670000              0.07284780
    156.3400000              0.24613000
     50.0683000              0.48591400
     17.0178000              0.32500200
SP   6   1.00
    292.7180000             -0.00278094             0.00443826
     69.8731000             -0.03571460             0.03266790
     22.3363000             -0.11498500             0.13472100
      8.1503900              0.09356340             0.32867800
      3.1345800              0.60301700             0.44964000
      1.2254300              0.41895900             0.26137200
SP   3   1.00
      1.7273800             -0.24463000            -0.01779510
      0.5729220              0.00431572             0.25353900
      0.2221920              1.09818000             0.80066900
SP   1   1.00
      0.0778369              1.00000000             1.00000000
D    1   1.00
      0.9000000              1.0000000
D    1   1.00
      0.2250000              1.0000000
F    1   1.00
      0.3200000              1.0000000
****
P     0
S    6   1.00
  19413.3000000              0.0018516
   2909.4200000              0.0142062
    661.3640000              0.0699995
    185.7590000              0.2400790
     59.1943000              0.4847620
     20.0310000              0.3352000
SP   6   1.00
    339.4780000             -0.00278217             0.00456462
     81.0101000             -0.0360499              0.03369360
     25.8780000             -0.1166310              0.13975500
      9.4522100              0.0968328              0.33936200
      3.6656600              0.6144180              0.45092100
      1.4674600              0.4037980              0.23858600
SP   3   1.00
      2.1562300             -0.2529230             -0.01776530
      0.7489970              0.0328517              0.27405800
      0.2831450              1.0812500              0.78542100
SP   1   1.00
      0.0998317              1.0000000              1.00000000
D    1   1.00
      1.1000000              1.0000000
D    1   1.00
      0.2750000              1.0000000
F    1   1.00
      0.4500000              1.0000000
****
S     0
S    6   1.00
  21917.1000000              0.0018690
   3301.4900000              0.0142300
    754.1460000              0.0696960
    212.7110000              0.2384870
     67.9896000              0.4833070
     23.0515000              0.3380740
SP   6   1.00
    423.7350000             -0.0023767              0.0040610
    100.7100000             -0.0316930              0.0306810
     32.1599000             -0.1133170              0.1304520
     11.8079000              0.0560900              0.3272050
      4.6311000              0.5922550              0.4528510
      1.8702500              0.4550060              0.2560420
SP   3   1.00
      2.6158400             -0.2503740             -0.0145110
      0.9221670              0.0669570              0.3102630
      0.3412870              1.0545100              0.7544830
SP   1   1.00
      0.1171670              1.0000000              1.0000000
D    1   1.00
      1.3000000              1.0000000
D    1   1.00
      0.3250000              1.0000000
F    1   1.00
      0.5500000              1.0000000
****
Cl     0
S    6   1.00
  25180.1000000              0.0018330
   3780.3500000              0.0140340
    860.4740000              0.0690970
    242.1450000              0.2374520
     77.3349000              0.4830340
     26.2470000              0.3398560
SP   6   1.00
    491.7650000             -0.0022974              0.0039894
    116.9840000             -0.0307140              0.0303180
     37.4153000             -0.1125280              0.1298800
     13.7834000              0.0450160              0.3279510
      5.4521500              0.5893530              0.4535270
      2.2258800              0.4652060              0.2521540
SP   3   1.00
      3.1864900             -0.2518300             -0.0142990
      1.1442700              0.0615890              0.3235720
      0.4203770              1.0601800              0.7435070
SP   1   1.00
      0.1426570              1.0000000              1.0000000
D    1   1.00
      1.5000000              1.0000000
D    1   1.00
      0.3750000              1.0000000
F    1   1.00
      0.7000000              1.0000000
****
}

set {
reference uhf
freeze_core true
e_convergence 10
d_convergence 10
dft_spherical_points 1202
dft_radial_points 99
}

e = energy('b3lyp')

print_out('Grab this energy {0}'.format(e))
--------------------------------------------------------------------------

    Molecular point group: c1

    Geometry (in Bohr), charge = 0, multiplicity = 2:

       Center              X                  Y                   Z               Mass
    ------------   -----------------  -----------------  -----------------  -----------------
         C           -0.323339174304    -0.000002337079     0.002156398917    12.000000000000
         C            0.060636775996    -1.401458383479    -2.427798062283    12.000000000000
         C            0.061020023996     2.801758390221    -0.000408529883    12.000000000000
         C            0.061642354896    -1.400294638579     2.424964887617    12.000000000000
         H            2.087076133496    -1.643983681479    -2.845817531183     1.007825032230
         H           -0.765374937904    -0.387819516979    -4.024113808583     1.007825032230
         H           -0.765451700604    -3.291926260179    -2.347336022183     1.007825032230
         H            2.086798012796     3.288101485021     0.001424446817     1.007825032230
         H           -0.765559786204     3.680174130621     1.677601190617     1.007825032230
         H           -0.765732646104     3.680329965121    -1.675401097183     1.007825032230
         H            2.086793363296    -1.644213694079     2.849064988117     1.007825032230
         H           -0.765682768904    -3.292068666079     2.350644092617     1.007825032230
         H           -0.765433150104    -0.388629852579     4.026856289217     1.007825032230

  Charge       = 0
  Multiplicity = 2
  Basis Set: ANONYMOUS43E69646
    Blend: 6-31G_2DFP_
  Basis Set: (ANONYMOUS43E69646 AUX)
    Blend: DEF2-UNIVERSAL-JKFIT

    Orbital Energies [Eh]
    ---------------------

    Alpha Occupied:

       1A    -10.180342     2A    -10.167082     3A    -10.167017
       4A    -10.166946     5A     -0.797766     6A     -0.686243
       7A     -0.686130     8A     -0.530777     9A     -0.441124
      10A     -0.434744    11A     -0.434598    12A     -0.382651
      13A     -0.382547    14A     -0.363610    15A     -0.338501
      16A     -0.337498    17A     -0.168961

    Alpha Virtual:

      18A      0.076072    19A      0.134134    20A      0.134174
      21A      0.142502    22A      0.142758    23A      0.154879
      24A      0.178645    25A      0.178910    26A      0.203544
      27A      0.214803    28A      0.275635    29A      0.276337
      30A      0.399109    31A      0.399347    32A      0.403345
      33A      0.424058    34A      0.424137    35A      0.456592
      36A      0.495376    37A      0.495402    38A      0.512160
      39A      0.513980    40A      0.578736    41A      0.578894
      42A      0.591593    43A      0.591676    44A      0.602574
      45A      0.624762    46A      0.631757    47A      0.636091
      48A      0.636425    49A      0.663261    50A      0.663562
      51A      0.683821    52A      0.683884    53A      0.734994
      54A      0.825350    55A      0.825466    56A      0.853916
      57A      0.914936    58A      0.915116    59A      0.944126
      60A      0.944613    61A      0.961261    62A      0.961323
      63A      1.003450    64A      1.128052    65A      1.128168
      66A      1.142222    67A      1.162999    68A      1.163532
      69A      1.223328    70A      1.273991    71A      1.274953
      72A      1.279388    73A      1.324239    74A      1.324484
      75A      1.355988    76A      1.365970    77A      1.366140
      78A      1.392457    79A      1.403973    80A      1.404104
      81A      1.416703    82A      1.417537    83A      1.427912
      84A      1.491493    85A      1.499081    86A      1.542586
      87A      1.543071    88A      1.574323    89A      1.574571
      90A      1.669816    91A      1.739387    92A      1.739444
      93A      1.768327    94A      1.830829    95A      1.831979
      96A      1.971731    97A      2.018009    98A      2.019011
      99A      2.019359   100A      2.052567   101A      2.052726
     102A      2.738412   103A      2.738559   104A      2.790923
     105A      2.811427   106A      2.889205   107A      2.890698
     108A      2.894949   109A      2.929268   110A      2.929724
     111A      2.958996   112A      2.964162   113A      2.964589
     114A      3.034008   115A      3.071280   116A      3.071292
     117A      3.084350   118A      3.168660   119A      3.168819
     120A      3.180669   121A      3.285086   122A      3.285543
     123A      3.327014   124A      3.327298   125A      3.375614
     126A      3.489786   127A      3.490523   128A      3.514012
     129A      3.525328   130A      3.568375   131A      3.568417
     132A      3.575142   133A      3.665845   134A      3.666801
     135A      3.679764   136A      3.694019   137A      3.694232
     138A      3.776627   139A      3.776983   140A      3.789119
     141A      3.911118   142A      3.913324   143A      4.034452
     144A      4.111311   145A      4.111440   146A      4.147628
     147A      4.148597   148A      4.173264   149A      4.202170
     150A      4.202949   151A      4.203692   152A      4.210858
     153A      4.314443   154A      4.317465   155A      4.358979
     156A      4.423946   157A      4.424726   158A      4.443661
     159A      4.516000   160A      4.517682   161A      4.577959
     162A      4.578578   163A      4.617542   164A      4.709463
     165A      4.774104   166A      4.775044   167A      4.836920
     168A      4.962838   169A      5.001974   170A      5.003960
     171A      5.228038   172A      5.246375   173A      5.247251
     174A      5.355418   175A      5.355593   176A      5.479350

    Beta Occupied:

       1A    -10.167842     2A    -10.167775     3A    -10.167706
       4A    -10.166519     5A     -0.781091     6A     -0.684038
       7A     -0.683941     8A     -0.511748     9A     -0.431110
      10A     -0.430974    11A     -0.421821    12A     -0.376749
      13A     -0.376620    14A     -0.362593    15A     -0.333624
      16A     -0.332620

    Beta Virtual:

      17A     -0.025743    18A      0.077081    19A      0.134991
      20A      0.135097    21A      0.144407    22A      0.144593
      23A      0.163338    24A      0.182341    25A      0.182558
      26A      0.215033    27A      0.218926    28A      0.282006
      29A      0.282662    30A      0.400282    31A      0.400514
      32A      0.419790    33A      0.426869    34A      0.426948
      35A      0.468500    36A      0.497646    37A      0.497654
      38A      0.513895    39A      0.556325    40A      0.584281
      41A      0.584450    42A      0.597782    43A      0.597846
      44A      0.609997    45A      0.628136    46A      0.631922
      47A      0.639381    48A      0.639698    49A      0.666815
      50A      0.667136    51A      0.686466    52A      0.686509
      53A      0.757517    54A      0.830517    55A      0.830636
      56A      0.855269    57A      0.922910    58A      0.923086
      59A      0.945963    60A      0.953541    61A      0.966573
      62A      0.966623    63A      1.008690    64A      1.132075
      65A      1.132203    66A      1.155599    67A      1.168065
      68A      1.168613    69A      1.232300    70A      1.279557
      71A      1.280577    72A      1.285148    73A      1.329232
      74A      1.329470    75A      1.365405    76A      1.371159
      77A      1.371436    78A      1.393513    79A      1.407381
      80A      1.407633    81A      1.421789    82A      1.422546
      83A      1.428181    84A      1.492541    85A      1.509524
      86A      1.546973    87A      1.547499    88A      1.582209
      89A      1.582429    90A      1.674663    91A      1.745144
      92A      1.745212    93A      1.779105    94A      1.834696
      95A      1.835822    96A      1.972590    97A      2.025306
      98A      2.025578    99A      2.039661   100A      2.059307
     101A      2.059430   102A      2.746763   103A      2.746878
     104A      2.811839   105A      2.816059   106A      2.901931
     107A      2.903353   108A      2.924654   109A      2.931729
     110A      2.932222   111A      2.960058   112A      2.968733
     113A      2.969107   114A      3.041943   115A      3.081184
     116A      3.081206   117A      3.086169   118A      3.184278
     119A      3.184548   120A      3.188505   121A      3.289942
     122A      3.290284   123A      3.330840   124A      3.331081
     125A      3.383433   126A      3.492479   127A      3.493291
     128A      3.512376   129A      3.528373   130A      3.575001
     131A      3.581688   132A      3.581783   133A      3.670676
     134A      3.671500   135A      3.693038   136A      3.725446
     137A      3.726058   138A      3.781052   139A      3.781611
     140A      3.817663   141A      3.920964   142A      3.923111
     143A      4.045339   144A      4.118151   145A      4.118227
     146A      4.154973   147A      4.155678   148A      4.187319
     149A      4.208480   150A      4.209335   151A      4.210839
     152A      4.215333   153A      4.321822   154A      4.324967
     155A      4.362341   156A      4.432137   157A      4.432887
     158A      4.446623   159A      4.523811   160A      4.525452
     161A      4.588565   162A      4.589172   163A      4.624736
     164A      4.719809   165A      4.781095   166A      4.781957
     167A      4.839839   168A      4.967633   169A      5.006027
     170A      5.007985   171A      5.233754   172A      5.248175
     173A      5.249019   174A      5.361858   175A      5.362113
     176A      5.481672

    Final Occupation by Irrep:
              A
    DOCC [    16 ]
    SOCC [     1 ]

  @DF-UKS Final Energy:  -157.81306881455805

   => Energetics <=

    Nuclear Repulsion Energy =            125.3946155692351851
    One-Electron Energy =                -458.7488926740301736
    Two-Electron Energy =                 195.8483514691855021
    DFT Exchange-Correlation Energy =     -20.3071431789485892
    Empirical Dispersion Energy =           0.0000000000000000
    VV10 Nonlocal Energy =                  0.0000000000000000
    Total Energy =                       -157.8130688145580507

  UHF NO Occupations:
  HONO-2 :   15  A 1.9996009
  HONO-1 :   16  A 1.9989805
  HONO-0 :   17  A 1.0000000
  LUNO+0 :   18  A 0.0010195
  LUNO+1 :   19  A 0.0003991
  LUNO+2 :   20  A 0.0001983
  LUNO+3 :   21  A 0.0001968

Computation Completed

Properties will be evaluated at   0.000000,   0.000000,   0.000000 [a0]

Properties computed using the SCF density matrix

  Nuclear Dipole Moment: [e a0]
     X:     0.8272      Y:    -0.0000      Z:     0.0064

  Electronic Dipole Moment: [e a0]
     X:    -0.7493      Y:     0.0000      Z:    -0.0064

  Dipole Moment: [e a0]
     X:     0.0779      Y:     0.0000      Z:    -0.0000     Total:     0.0779

  Dipole Moment: [D]
     X:     0.1980      Y:     0.0000      Z:    -0.0000     Total:     0.1980

*** tstop() called on n083 at Fri Nov  5 12:01:08 2021
Module time:
	user time   =     497.96 seconds =       8.30 minutes
	system time =       4.60 seconds =       0.08 minutes
	total time  =        126 seconds =       2.10 minutes
Total time:
	user time   =     497.96 seconds =       8.30 minutes
	system time =       4.60 seconds =       0.08 minutes
	total time  =        126 seconds =       2.10 minutes
Grab this energy -157.81306881455805
    Psi4 stopped on: Friday, 05 November 2021 12:01PM
    Psi4 wall time for execution: 0:02:06.38

*** Psi4 exiting successfully. Buy a developer a beer!
