                               Psi4 1.4a2.dev629

  ==> Input File <==

--------------------------------------------------------------------------
import os
memory 14 GB

molecule {
 C   -0.3233420995    0.0024272345    0.0000010092
 C    0.0615356854   -1.3995603686   -2.4278636219
 C    0.0602229549    2.8005070861    0.0007978447
 C    0.0615374803   -1.4009431544    2.4270663636
 H    2.0882165821   -1.6450361220   -2.8464277722
 H   -0.7602455164   -0.3891568272   -4.0346235758
 H   -0.7693020260   -3.2857565030   -2.3462460767
 H    2.0842256243    3.2889243282    0.0015805960
 H   -0.7663904720    3.6818086160    1.6777480541
 H   -0.7677308748    3.6729398663   -1.6757235787
 H    2.0882170826   -1.6477757582    2.8448401186
 H   -0.7679570074   -3.2919472139    2.3529096213
 H   -0.7615952900   -0.3864554973    4.0259410178
units bohr
0 2
}

basis {

assign 6-31g_2dfp_

[ 6-31g_2dfp_ ]

spherical

!----------------------------------------------------------------------
! Basis Set Exchange
! Version v0.8.13
! https://www.basissetexchange.org
!----------------------------------------------------------------------
!   Basis set: 6-31G(2df,p)
! Description: 6-31G(2df,p)
!        Role: orbital
!     Version: 0  (Data from the original Basis Set Exchange)
!----------------------------------------------------------------------

****
H     0
S    3   1.00
     18.7311370              0.03349460
      2.8253937              0.23472695
      0.6401217              0.81375733
S    1   1.00
      0.1612778              1.00000000
P    1   1.00
      1.5000000              1.0000000
P    1   1.00
      0.3750000              1.0000000
****
B     0
S    6   1.00
   2068.8823000              0.0018663
    310.6495700              0.0142515
     70.6830330              0.0695516
     19.8610800              0.2325729
      6.2993048              0.4670787
      2.1270270              0.3634314
SP   3   1.00
      4.7279710             -0.1303938              0.0745976
      1.1903377             -0.1307889              0.3078467
      0.3594117              1.1309444              0.7434568
SP   1   1.00
      0.1267512              1.0000000              1.0000000
D    1   1.00
      0.8020000              1.0000000
D    1   1.00
      0.2005000              1.0000000
F    1   1.00
      0.5000000              1.0000000
****
C     0
S    6   1.00
   3047.5249000              0.0018347
    457.3695100              0.0140373
    103.9486900              0.0688426
     29.2101550              0.2321844
      9.2866630              0.4679413
      3.1639270              0.3623120
SP   3   1.00
      7.8682724             -0.1193324              0.0689991
      1.8812885             -0.1608542              0.3164240
      0.5442493              1.1434564              0.7443083
SP   1   1.00
      0.1687144              1.0000000              1.0000000
D    1   1.00
      1.2520000              1.0000000
D    1   1.00
      0.3130000              1.0000000
F    1   1.00
      0.8000000              1.0000000
****
N     0
S    6   1.00
   4173.5110000              0.0018348
    627.4579000              0.0139950
    142.9021000              0.0685870
     40.2343300              0.2322410
     12.8202100              0.4690700
      4.3904370              0.3604550
SP   3   1.00
     11.6263580             -0.1149610              0.0675800
      2.7162800             -0.1691180              0.3239070
      0.7722180              1.1458520              0.7408950
SP   1   1.00
      0.2120313              1.0000000              1.0000000
D    1   1.00
      1.8260000              1.0000000
D    1   1.00
      0.4565000              1.0000000
F    1   1.00
      1.0000000              1.0000000
****
O     0
S    6   1.00
   5484.6717000              0.0018311
    825.2349500              0.0139501
    188.0469600              0.0684451
     52.9645000              0.2327143
     16.8975700              0.4701930
      5.7996353              0.3585209
SP   3   1.00
     15.5396160             -0.1107775              0.0708743
      3.5999336             -0.1480263              0.3397528
      1.0137618              1.1307670              0.7271586
SP   1   1.00
      0.2700058              1.0000000              1.0000000
D    1   1.00
      2.5840000              1.0000000
D    1   1.00
      0.6460000              1.0000000
F    1   1.00
      1.4000000              1.0000000
****
F     0
S    6   1.00
   7001.7130900              0.0018196169
   1051.3660900              0.0139160796
    239.2856900              0.0684053245
     67.3974453              0.233185760
     21.5199573              0.471267439
      7.40310130             0.356618546
SP   3   1.00
     20.8479528             -0.108506975            0.0716287243
      4.80830834            -0.146451658            0.3459121030
      1.34406986             1.128688580            0.7224699570
SP   1   1.00
      0.358151393            1.0000000              1.0000000
D    1   1.00
      3.5000000              1.0000000
D    1   1.00
      0.8750000              1.0000000
F    1   1.00
      1.8500000              1.0000000
****
Al     0
S    6   1.00
  13983.1000000              0.00194267
   2098.7500000              0.0148599
    477.7050000              0.0728494
    134.3600000              0.2468300
     42.8709000              0.4872580
     14.5189000              0.3234960
SP   6   1.00
    239.6680000             -0.00292619             0.00460285
     57.4419000             -0.0374080              0.0331990
     18.2859000             -0.1144870              0.1362820
      6.5991400              0.1156350              0.3304760
      2.4904900              0.6125950              0.4491460
      0.9445400              0.3937990              0.2657040
SP   3   1.00
      1.2779000             -0.2276060             -0.0175130
      0.3975900              0.00144583             0.2445330
      0.1600950              1.0927900              0.8049340
SP   1   1.00
      0.0556577              1.0000000              1.0000000
D    1   1.00
      0.6500000              1.0000000
D    1   1.00
      0.1625000              1.0000000
F    1   1.00
      0.2500000              1.0000000
****
Si     0
S    6   1.00
  16115.9000000              0.00195948
   2425.5800000              0.01492880
    553.8670000              0.07284780
    156.3400000              0.24613000
     50.0683000              0.48591400
     17.0178000              0.32500200
SP   6   1.00
    292.7180000             -0.00278094             0.00443826
     69.8731000             -0.03571460             0.03266790
     22.3363000             -0.11498500             0.13472100
      8.1503900              0.09356340             0.32867800
      3.1345800              0.60301700             0.44964000
      1.2254300              0.41895900             0.26137200
SP   3   1.00
      1.7273800             -0.24463000            -0.01779510
      0.5729220              0.00431572             0.25353900
      0.2221920              1.09818000             0.80066900
SP   1   1.00
      0.0778369              1.00000000             1.00000000
D    1   1.00
      0.9000000              1.0000000
D    1   1.00
      0.2250000              1.0000000
F    1   1.00
      0.3200000              1.0000000
****
P     0
S    6   1.00
  19413.3000000              0.0018516
   2909.4200000              0.0142062
    661.3640000              0.0699995
    185.7590000              0.2400790
     59.1943000              0.4847620
     20.0310000              0.3352000
SP   6   1.00
    339.4780000             -0.00278217             0.00456462
     81.0101000             -0.0360499              0.03369360
     25.8780000             -0.1166310              0.13975500
      9.4522100              0.0968328              0.33936200
      3.6656600              0.6144180              0.45092100
      1.4674600              0.4037980              0.23858600
SP   3   1.00
      2.1562300             -0.2529230             -0.01776530
      0.7489970              0.0328517              0.27405800
      0.2831450              1.0812500              0.78542100
SP   1   1.00
      0.0998317              1.0000000              1.00000000
D    1   1.00
      1.1000000              1.0000000
D    1   1.00
      0.2750000              1.0000000
F    1   1.00
      0.4500000              1.0000000
****
S     0
S    6   1.00
  21917.1000000              0.0018690
   3301.4900000              0.0142300
    754.1460000              0.0696960
    212.7110000              0.2384870
     67.9896000              0.4833070
     23.0515000              0.3380740
SP   6   1.00
    423.7350000             -0.0023767              0.0040610
    100.7100000             -0.0316930              0.0306810
     32.1599000             -0.1133170              0.1304520
     11.8079000              0.0560900              0.3272050
      4.6311000              0.5922550              0.4528510
      1.8702500              0.4550060              0.2560420
SP   3   1.00
      2.6158400             -0.2503740             -0.0145110
      0.9221670              0.0669570              0.3102630
      0.3412870              1.0545100              0.7544830
SP   1   1.00
      0.1171670              1.0000000              1.0000000
D    1   1.00
      1.3000000              1.0000000
D    1   1.00
      0.3250000              1.0000000
F    1   1.00
      0.5500000              1.0000000
****
Cl     0
S    6   1.00
  25180.1000000              0.0018330
   3780.3500000              0.0140340
    860.4740000              0.0690970
    242.1450000              0.2374520
     77.3349000              0.4830340
     26.2470000              0.3398560
SP   6   1.00
    491.7650000             -0.0022974              0.0039894
    116.9840000             -0.0307140              0.0303180
     37.4153000             -0.1125280              0.1298800
     13.7834000              0.0450160              0.3279510
      5.4521500              0.5893530              0.4535270
      2.2258800              0.4652060              0.2521540
SP   3   1.00
      3.1864900             -0.2518300             -0.0142990
      1.1442700              0.0615890              0.3235720
      0.4203770              1.0601800              0.7435070
SP   1   1.00
      0.1426570              1.0000000              1.0000000
D    1   1.00
      1.5000000              1.0000000
D    1   1.00
      0.3750000              1.0000000
F    1   1.00
      0.7000000              1.0000000
****
}

set {
reference uhf
freeze_core true
e_convergence 10
d_convergence 10
dft_spherical_points 1202
dft_radial_points 99
}

e = energy('b3lyp')

print_out('Grab this energy {0}'.format(e))
--------------------------------------------------------------------------

    Molecular point group: c1

    Geometry (in Bohr), charge = 0, multiplicity = 2:

       Center              X                  Y                   Z               Mass
    ------------   -----------------  -----------------  -----------------  -----------------
         C           -0.323340945005     0.001959474734     0.000000701876    12.000000000000
         C            0.061536839895    -1.400028128366    -2.427863929224    12.000000000000
         C            0.060224109395     2.800039326334     0.000797537376    12.000000000000
         C            0.061538634795    -1.401410914166     2.427066056276    12.000000000000
         H            2.088217736595    -1.645503881766    -2.846428079524     1.007825032230
         H           -0.760244361905    -0.389624586966    -4.034623883124     1.007825032230
         H           -0.769300871505    -3.286224262766    -2.346246384024     1.007825032230
         H            2.084226778795     3.288456568434     0.001580288676     1.007825032230
         H           -0.766389317505     3.681340856234     1.677747746776     1.007825032230
         H           -0.767729720305     3.672472106534    -1.675723886024     1.007825032230
         H            2.088218237095    -1.648243517966     2.844839811276     1.007825032230
         H           -0.767955852905    -3.292414973666     2.352909313976     1.007825032230
         H           -0.761594135505    -0.386923257066     4.025940710476     1.007825032230

  Charge       = 0
  Multiplicity = 2
  Basis Set: ANONYMOUSCD1AF3CA
    Blend: 6-31G_2DFP_
  Basis Set: (ANONYMOUSCD1AF3CA AUX)
    Blend: DEF2-UNIVERSAL-JKFIT

    Orbital Energies [Eh]
    ---------------------

    Alpha Occupied:

       1A    -10.180342     2A    -10.167138     3A    -10.167109
       4A    -10.166797     5A     -0.797768     6A     -0.686330
       7A     -0.686044     8A     -0.530775     9A     -0.441125
      10A     -0.434746    11A     -0.434601    12A     -0.382643
      13A     -0.382553    14A     -0.363609    15A     -0.338147
      16A     -0.337849    17A     -0.168961

    Alpha Virtual:

      18A      0.076073    19A      0.134092    20A      0.134217
      21A      0.142615    22A      0.142641    23A      0.154879
      24A      0.178774    25A      0.178781    26A      0.203529
      27A      0.214818    28A      0.275649    29A      0.276321
      30A      0.399222    31A      0.399225    32A      0.403355
      33A      0.424064    34A      0.424134    35A      0.456594
      36A      0.495339    37A      0.495441    38A      0.512160
      39A      0.513979    40A      0.578629    41A      0.578998
      42A      0.591409    43A      0.591864    44A      0.602573
      45A      0.624687    46A      0.631848    47A      0.636162
      48A      0.636341    49A      0.663208    50A      0.663616
      51A      0.683831    52A      0.683875    53A      0.734993
      54A      0.825375    55A      0.825439    56A      0.853916
      57A      0.914893    58A      0.915160    59A      0.944018
      60A      0.944703    61A      0.961246    62A      0.961341
      63A      1.003469    64A      1.128039    65A      1.128151
      66A      1.142205    67A      1.163159    68A      1.163407
      69A      1.223327    70A      1.274313    71A      1.274677
      72A      1.279356    73A      1.324233    74A      1.324477
      75A      1.355981    76A      1.365739    77A      1.366348
      78A      1.392455    79A      1.403711    80A      1.404346
      81A      1.416868    82A      1.417397    83A      1.427923
      84A      1.491493    85A      1.499087    86A      1.542696
      87A      1.542966    88A      1.574223    89A      1.574668
      90A      1.669838    91A      1.739162    92A      1.739684
      93A      1.768316    94A      1.830977    95A      1.831810
      96A      1.971729    97A      2.018199    98A      2.019011
      99A      2.019177   100A      2.051678   101A      2.053620
     102A      2.738430   103A      2.738535   104A      2.790925
     105A      2.811424   106A      2.889545   107A      2.890305
     108A      2.895001   109A      2.929326   110A      2.929672
     111A      2.958995   112A      2.964106   113A      2.964649
     114A      3.034013   115A      3.070986   116A      3.071585
     117A      3.084343   118A      3.168736   119A      3.168804
     120A      3.180613   121A      3.285256   122A      3.285349
     123A      3.326739   124A      3.327611   125A      3.375616
     126A      3.489906   127A      3.490396   128A      3.513917
     129A      3.525405   130A      3.567549   131A      3.569238
     132A      3.575150   133A      3.666142   134A      3.666597
     135A      3.679674   136A      3.693760   137A      3.694454
     138A      3.775442   139A      3.778163   140A      3.789162
     141A      3.911756   142A      3.912734   143A      4.034457
     144A      4.110344   145A      4.112391   146A      4.147571
     147A      4.148675   148A      4.173232   149A      4.202512
     150A      4.202582   151A      4.203677   152A      4.210884
     153A      4.315446   154A      4.316471   155A      4.358962
     156A      4.423958   157A      4.424947   158A      4.443446
     159A      4.516084   160A      4.517594   161A      4.577606
     162A      4.578909   163A      4.617542   164A      4.709428
     165A      4.774023   166A      4.775204   167A      4.836927
     168A      4.962875   169A      5.002324   170A      5.003598
     171A      5.228027   172A      5.246704   173A      5.246936
     174A      5.354556   175A      5.356465   176A      5.479351

    Beta Occupied:

       1A    -10.167890     2A    -10.167873     3A    -10.167561
       4A    -10.166519     5A     -0.781093     6A     -0.684121
       7A     -0.683858     8A     -0.511747     9A     -0.431123
      10A     -0.430964    11A     -0.421824    12A     -0.376716
      13A     -0.376650    14A     -0.362593    15A     -0.333270
      16A     -0.332971

    Beta Virtual:

      17A     -0.025742    18A      0.077082    19A      0.134978
      20A      0.135110    21A      0.144475    22A      0.144522
      23A      0.163338    24A      0.182445    25A      0.182454
      26A      0.214983    27A      0.218977    28A      0.282007
      29A      0.282658    30A      0.400395    31A      0.400399
      32A      0.419792    33A      0.426862    34A      0.426958
      35A      0.468502    36A      0.497607    37A      0.497694
      38A      0.513896    39A      0.556323    40A      0.584167
      41A      0.584561    42A      0.597609    43A      0.598022
      44A      0.609995    45A      0.628008    46A      0.632062
      47A      0.639425    48A      0.639649    49A      0.666783
      50A      0.667168    51A      0.686479    52A      0.686498
      53A      0.757516    54A      0.830572    55A      0.830580
      56A      0.855270    57A      0.922860    58A      0.923136
      59A      0.945935    60A      0.953552    61A      0.966523
      62A      0.966678    63A      1.008707    64A      1.132016
      65A      1.132230    66A      1.155579    67A      1.168300
      68A      1.168420    69A      1.232299    70A      1.279904
      71A      1.280275    72A      1.285113    73A      1.329236
      74A      1.329454    75A      1.365394    76A      1.371020
      77A      1.371552    78A      1.393515    79A      1.407152
      80A      1.407843    81A      1.421921    82A      1.422437
      83A      1.428194    84A      1.492543    85A      1.509529
      86A      1.547135    87A      1.547342    88A      1.582139
      89A      1.582495    90A      1.674685    91A      1.744910
      92A      1.745459    93A      1.779096    94A      1.834826
      95A      1.835673    96A      1.972591    97A      2.025368
      98A      2.025514    99A      2.039679   100A      2.058427
     101A      2.060305   102A      2.746738   103A      2.746899
     104A      2.811827   105A      2.816069   106A      2.902289
     107A      2.902989   108A      2.924631   109A      2.931830
     110A      2.932150   111A      2.960062   112A      2.968669
     113A      2.969178   114A      3.041947   115A      3.080937
     116A      3.081454   117A      3.086159   118A      3.184418
     119A      3.184568   120A      3.188351   121A      3.290051
     122A      3.290149   123A      3.330552   124A      3.331410
     125A      3.383433   126A      3.492615   127A      3.493148
     128A      3.512309   129A      3.528429   130A      3.574995
     131A      3.580926   132A      3.582540   133A      3.671033
     134A      3.671219   135A      3.692949   136A      3.725552
     137A      3.725932   138A      3.780036   139A      3.782644
     140A      3.817686   141A      3.921617   142A      3.922508
     143A      4.045344   144A      4.117162   145A      4.119205
     146A      4.154846   147A      4.155817   148A      4.187290
     149A      4.208506   150A      4.209374   151A      4.210727
     152A      4.215367   153A      4.322854   154A      4.323943
     155A      4.362326   156A      4.432196   157A      4.433135
     158A      4.446335   159A      4.523884   160A      4.525372
     161A      4.588205   162A      4.589510   163A      4.624737
     164A      4.719771   165A      4.781018   166A      4.782117
     167A      4.839847   168A      4.967668   169A      5.006345
     170A      5.007656   171A      5.233742   172A      5.248477
     173A      5.248732   174A      5.361015   175A      5.362967
     176A      5.481672

    Final Occupation by Irrep:
              A
    DOCC [    16 ]
    SOCC [     1 ]

  @DF-UKS Final Energy:  -157.81306324521833

   => Energetics <=

    Nuclear Repulsion Energy =            125.3946389869519038
    One-Electron Energy =                -458.7489268866713701
    Two-Electron Energy =                 195.8483689933321443
    DFT Exchange-Correlation Energy =     -20.3071443388310158
    Empirical Dispersion Energy =           0.0000000000000000
    VV10 Nonlocal Energy =                  0.0000000000000000
    Total Energy =                       -157.8130632452183306

  UHF NO Occupations:
  HONO-2 :   15  A 1.9996009
  HONO-1 :   16  A 1.9989804
  HONO-0 :   17  A 1.0000000
  LUNO+0 :   18  A 0.0010196
  LUNO+1 :   19  A 0.0003991
  LUNO+2 :   20  A 0.0001981
  LUNO+3 :   21  A 0.0001970

Computation Completed

Properties will be evaluated at   0.000000,   0.000000,   0.000000 [a0]

Properties computed using the SCF density matrix

  Nuclear Dipole Moment: [e a0]
     X:     0.8272      Y:    -0.0033      Z:    -0.0000

  Electronic Dipole Moment: [e a0]
     X:    -0.7493      Y:     0.0033      Z:     0.0000

  Dipole Moment: [e a0]
     X:     0.0779      Y:    -0.0000      Z:     0.0000     Total:     0.0779

  Dipole Moment: [D]
     X:     0.1980      Y:    -0.0001      Z:     0.0000     Total:     0.1980

*** tstop() called on n033 at Fri Nov  5 15:29:07 2021
Module time:
	user time   =     600.20 seconds =      10.00 minutes
	system time =      11.35 seconds =       0.19 minutes
	total time  =        154 seconds =       2.57 minutes
Total time:
	user time   =     600.20 seconds =      10.00 minutes
	system time =      11.35 seconds =       0.19 minutes
	total time  =        154 seconds =       2.57 minutes
Grab this energy -157.81306324521833
    Psi4 stopped on: Friday, 05 November 2021 03:29PM
    Psi4 wall time for execution: 0:02:33.78

*** Psi4 exiting successfully. Buy a developer a beer!
