                               Psi4 1.4a2.dev629

  ==> Input File <==

--------------------------------------------------------------------------
import os
memory 14 GB

molecule {
 C   -0.3233401014   -0.0004957137    0.0000022108
 C    0.0611869685   -1.4010818063   -2.4267586890
 C    0.0609237029    2.8009024489    0.0000483905
 C    0.0611905511   -1.4011623495    2.4267105292
 H    2.0848411663   -1.6401724438   -2.8499952186
 H   -0.7682484128   -0.3916524543   -4.0239568398
 H   -0.7605521347   -3.2912690913   -2.3483548391
 H    2.0909760974    3.2876057220    0.0046605419
 H   -0.7718348055    3.6810026993    1.6785426628
 H   -0.7638039947    3.6805431728   -1.6825340195
 H    2.0848428165   -1.6482295534    2.8453424332
 H   -0.7685628594   -3.2880415895    2.3507372207
 H   -0.7602268707   -0.3879733548    4.0255556171
units bohr
0 2
}

basis {

assign 6-31g_2dfp_

[ 6-31g_2dfp_ ]

spherical

!----------------------------------------------------------------------
! Basis Set Exchange
! Version v0.8.13
! https://www.basissetexchange.org
!----------------------------------------------------------------------
!   Basis set: 6-31G(2df,p)
! Description: 6-31G(2df,p)
!        Role: orbital
!     Version: 0  (Data from the original Basis Set Exchange)
!----------------------------------------------------------------------

****
H     0
S    3   1.00
     18.7311370              0.03349460
      2.8253937              0.23472695
      0.6401217              0.81375733
S    1   1.00
      0.1612778              1.00000000
P    1   1.00
      1.5000000              1.0000000
P    1   1.00
      0.3750000              1.0000000
****
B     0
S    6   1.00
   2068.8823000              0.0018663
    310.6495700              0.0142515
     70.6830330              0.0695516
     19.8610800              0.2325729
      6.2993048              0.4670787
      2.1270270              0.3634314
SP   3   1.00
      4.7279710             -0.1303938              0.0745976
      1.1903377             -0.1307889              0.3078467
      0.3594117              1.1309444              0.7434568
SP   1   1.00
      0.1267512              1.0000000              1.0000000
D    1   1.00
      0.8020000              1.0000000
D    1   1.00
      0.2005000              1.0000000
F    1   1.00
      0.5000000              1.0000000
****
C     0
S    6   1.00
   3047.5249000              0.0018347
    457.3695100              0.0140373
    103.9486900              0.0688426
     29.2101550              0.2321844
      9.2866630              0.4679413
      3.1639270              0.3623120
SP   3   1.00
      7.8682724             -0.1193324              0.0689991
      1.8812885             -0.1608542              0.3164240
      0.5442493              1.1434564              0.7443083
SP   1   1.00
      0.1687144              1.0000000              1.0000000
D    1   1.00
      1.2520000              1.0000000
D    1   1.00
      0.3130000              1.0000000
F    1   1.00
      0.8000000              1.0000000
****
N     0
S    6   1.00
   4173.5110000              0.0018348
    627.4579000              0.0139950
    142.9021000              0.0685870
     40.2343300              0.2322410
     12.8202100              0.4690700
      4.3904370              0.3604550
SP   3   1.00
     11.6263580             -0.1149610              0.0675800
      2.7162800             -0.1691180              0.3239070
      0.7722180              1.1458520              0.7408950
SP   1   1.00
      0.2120313              1.0000000              1.0000000
D    1   1.00
      1.8260000              1.0000000
D    1   1.00
      0.4565000              1.0000000
F    1   1.00
      1.0000000              1.0000000
****
O     0
S    6   1.00
   5484.6717000              0.0018311
    825.2349500              0.0139501
    188.0469600              0.0684451
     52.9645000              0.2327143
     16.8975700              0.4701930
      5.7996353              0.3585209
SP   3   1.00
     15.5396160             -0.1107775              0.0708743
      3.5999336             -0.1480263              0.3397528
      1.0137618              1.1307670              0.7271586
SP   1   1.00
      0.2700058              1.0000000              1.0000000
D    1   1.00
      2.5840000              1.0000000
D    1   1.00
      0.6460000              1.0000000
F    1   1.00
      1.4000000              1.0000000
****
F     0
S    6   1.00
   7001.7130900              0.0018196169
   1051.3660900              0.0139160796
    239.2856900              0.0684053245
     67.3974453              0.233185760
     21.5199573              0.471267439
      7.40310130             0.356618546
SP   3   1.00
     20.8479528             -0.108506975            0.0716287243
      4.80830834            -0.146451658            0.3459121030
      1.34406986             1.128688580            0.7224699570
SP   1   1.00
      0.358151393            1.0000000              1.0000000
D    1   1.00
      3.5000000              1.0000000
D    1   1.00
      0.8750000              1.0000000
F    1   1.00
      1.8500000              1.0000000
****
Al     0
S    6   1.00
  13983.1000000              0.00194267
   2098.7500000              0.0148599
    477.7050000              0.0728494
    134.3600000              0.2468300
     42.8709000              0.4872580
     14.5189000              0.3234960
SP   6   1.00
    239.6680000             -0.00292619             0.00460285
     57.4419000             -0.0374080              0.0331990
     18.2859000             -0.1144870              0.1362820
      6.5991400              0.1156350              0.3304760
      2.4904900              0.6125950              0.4491460
      0.9445400              0.3937990              0.2657040
SP   3   1.00
      1.2779000             -0.2276060             -0.0175130
      0.3975900              0.00144583             0.2445330
      0.1600950              1.0927900              0.8049340
SP   1   1.00
      0.0556577              1.0000000              1.0000000
D    1   1.00
      0.6500000              1.0000000
D    1   1.00
      0.1625000              1.0000000
F    1   1.00
      0.2500000              1.0000000
****
Si     0
S    6   1.00
  16115.9000000              0.00195948
   2425.5800000              0.01492880
    553.8670000              0.07284780
    156.3400000              0.24613000
     50.0683000              0.48591400
     17.0178000              0.32500200
SP   6   1.00
    292.7180000             -0.00278094             0.00443826
     69.8731000             -0.03571460             0.03266790
     22.3363000             -0.11498500             0.13472100
      8.1503900              0.09356340             0.32867800
      3.1345800              0.60301700             0.44964000
      1.2254300              0.41895900             0.26137200
SP   3   1.00
      1.7273800             -0.24463000            -0.01779510
      0.5729220              0.00431572             0.25353900
      0.2221920              1.09818000             0.80066900
SP   1   1.00
      0.0778369              1.00000000             1.00000000
D    1   1.00
      0.9000000              1.0000000
D    1   1.00
      0.2250000              1.0000000
F    1   1.00
      0.3200000              1.0000000
****
P     0
S    6   1.00
  19413.3000000              0.0018516
   2909.4200000              0.0142062
    661.3640000              0.0699995
    185.7590000              0.2400790
     59.1943000              0.4847620
     20.0310000              0.3352000
SP   6   1.00
    339.4780000             -0.00278217             0.00456462
     81.0101000             -0.0360499              0.03369360
     25.8780000             -0.1166310              0.13975500
      9.4522100              0.0968328              0.33936200
      3.6656600              0.6144180              0.45092100
      1.4674600              0.4037980              0.23858600
SP   3   1.00
      2.1562300             -0.2529230             -0.01776530
      0.7489970              0.0328517              0.27405800
      0.2831450              1.0812500              0.78542100
SP   1   1.00
      0.0998317              1.0000000              1.00000000
D    1   1.00
      1.1000000              1.0000000
D    1   1.00
      0.2750000              1.0000000
F    1   1.00
      0.4500000              1.0000000
****
S     0
S    6   1.00
  21917.1000000              0.0018690
   3301.4900000              0.0142300
    754.1460000              0.0696960
    212.7110000              0.2384870
     67.9896000              0.4833070
     23.0515000              0.3380740
SP   6   1.00
    423.7350000             -0.0023767              0.0040610
    100.7100000             -0.0316930              0.0306810
     32.1599000             -0.1133170              0.1304520
     11.8079000              0.0560900              0.3272050
      4.6311000              0.5922550              0.4528510
      1.8702500              0.4550060              0.2560420
SP   3   1.00
      2.6158400             -0.2503740             -0.0145110
      0.9221670              0.0669570              0.3102630
      0.3412870              1.0545100              0.7544830
SP   1   1.00
      0.1171670              1.0000000              1.0000000
D    1   1.00
      1.3000000              1.0000000
D    1   1.00
      0.3250000              1.0000000
F    1   1.00
      0.5500000              1.0000000
****
Cl     0
S    6   1.00
  25180.1000000              0.0018330
   3780.3500000              0.0140340
    860.4740000              0.0690970
    242.1450000              0.2374520
     77.3349000              0.4830340
     26.2470000              0.3398560
SP   6   1.00
    491.7650000             -0.0022974              0.0039894
    116.9840000             -0.0307140              0.0303180
     37.4153000             -0.1125280              0.1298800
     13.7834000              0.0450160              0.3279510
      5.4521500              0.5893530              0.4535270
      2.2258800              0.4652060              0.2521540
SP   3   1.00
      3.1864900             -0.2518300             -0.0142990
      1.1442700              0.0615890              0.3235720
      0.4203770              1.0601800              0.7435070
SP   1   1.00
      0.1426570              1.0000000              1.0000000
D    1   1.00
      1.5000000              1.0000000
D    1   1.00
      0.3750000              1.0000000
F    1   1.00
      0.7000000              1.0000000
****
}

set {
reference uhf
freeze_core true
e_convergence 10
d_convergence 10
dft_spherical_points 1202
dft_radial_points 99
}

e = energy('b3lyp')

print_out('Grab this energy {0}'.format(e))
--------------------------------------------------------------------------

    Molecular point group: c1

    Geometry (in Bohr), charge = 0, multiplicity = 2:

       Center              X                  Y                   Z               Mass
    ------------   -----------------  -----------------  -----------------  -----------------
         C           -0.323340314416    -0.000141383896     0.000001740546    12.000000000000
         C            0.061186755484    -1.400727476496    -2.426759159254    12.000000000000
         C            0.060923489884     2.801256778704     0.000047920246    12.000000000000
         C            0.061190338084    -1.400808019696     2.426710058946    12.000000000000
         H            2.084840953284    -1.639818113996    -2.849995688854     1.007825032230
         H           -0.768248625816    -0.391298124496    -4.023957310054     1.007825032230
         H           -0.760552347716    -3.290914761496    -2.348355309354     1.007825032230
         H            2.090975884384     3.287960051804     0.004660071646     1.007825032230
         H           -0.771835018516     3.681357029104     1.678542192546     1.007825032230
         H           -0.763804207716     3.680897502604    -1.682534489754     1.007825032230
         H            2.084842603484    -1.647875223596     2.845341962946     1.007825032230
         H           -0.768563072416    -3.287687259696     2.350736750446     1.007825032230
         H           -0.760227083716    -0.387619024996     4.025555146846     1.007825032230

  Charge       = 0
  Multiplicity = 2
  Basis Set: ANONYMOUS597608AE
    Blend: 6-31G_2DFP_
  Basis Set: (ANONYMOUS597608AE AUX)
    Blend: DEF2-UNIVERSAL-JKFIT

    Orbital Energies [Eh]
    ---------------------

    Alpha Occupied:

       1A    -10.180342     2A    -10.167685     3A    -10.166695
       4A    -10.166664     5A     -0.797766     6A     -0.686508
       7A     -0.685867     8A     -0.530775     9A     -0.441125
      10A     -0.434757    11A     -0.434585    12A     -0.382821
      13A     -0.382376    14A     -0.363612    15A     -0.338031
      16A     -0.337966    17A     -0.168961

    Alpha Virtual:

      18A      0.076071    19A      0.134146    20A      0.134150
      21A      0.142531    22A      0.142738    23A      0.154875
      24A      0.178459    25A      0.179100    26A      0.203546
      27A      0.214805    28A      0.275940    29A      0.276032
      30A      0.399146    31A      0.399310    32A      0.403345
      33A      0.424001    34A      0.424193    35A      0.456592
      36A      0.495320    37A      0.495460    38A      0.512148
      39A      0.513992    40A      0.578685    41A      0.578944
      42A      0.591315    43A      0.591933    44A      0.602588
      45A      0.624765    46A      0.631690    47A      0.635952
      48A      0.636630    49A      0.663232    50A      0.663596
      51A      0.683549    52A      0.684170    53A      0.734994
      54A      0.825000    55A      0.825807    56A      0.853915
      57A      0.915011    58A      0.915039    59A      0.944014
      60A      0.944717    61A      0.961045    62A      0.961557
      63A      1.003466    64A      1.127774    65A      1.128446
      66A      1.142224    67A      1.163186    68A      1.163349
      69A      1.223324    70A      1.274303    71A      1.274668
      72A      1.279350    73A      1.323994    74A      1.324714
      75A      1.355964    76A      1.365794    77A      1.366309
      78A      1.392471    79A      1.403657    80A      1.404437
      81A      1.416798    82A      1.417419    83A      1.427911
      84A      1.491465    85A      1.499108    86A      1.542774
      87A      1.542888    88A      1.574166    89A      1.574729
      90A      1.669799    91A      1.739340    92A      1.739468
      93A      1.768327    94A      1.829857    95A      1.833004
      96A      1.971697    97A      2.018075    98A      2.018951
      99A      2.019348   100A      2.052597   101A      2.052730
     102A      2.738039   103A      2.738934   104A      2.790917
     105A      2.811429   106A      2.889631   107A      2.890231
     108A      2.894981   109A      2.929392   110A      2.929597
     111A      2.959005   112A      2.963847   113A      2.964918
     114A      3.034020   115A      3.071076   116A      3.071483
     117A      3.084380   118A      3.168659   119A      3.168903
     120A      3.180593   121A      3.285251   122A      3.285384
     123A      3.327117   124A      3.327207   125A      3.375613
     126A      3.489325   127A      3.491005   128A      3.514000
     129A      3.525349   130A      3.568363   131A      3.568374
     132A      3.575200   133A      3.665568   134A      3.667126
     135A      3.679646   136A      3.693714   137A      3.694574
     138A      3.776214   139A      3.777412   140A      3.789121
     141A      3.911762   142A      3.912665   143A      4.034441
     144A      4.110568   145A      4.112051   146A      4.146023
     147A      4.150143   148A      4.173315   149A      4.200551
     150A      4.203575   151A      4.204597   152A      4.211158
     153A      4.315274   154A      4.316644   155A      4.358946
     156A      4.424132   157A      4.424689   158A      4.443545
     159A      4.516578   160A      4.517067   161A      4.577858
     162A      4.578728   163A      4.617533   164A      4.709476
     165A      4.774481   166A      4.774699   167A      4.836872
     168A      4.962866   169A      5.002418   170A      5.003525
     171A      5.227838   172A      5.243068   173A      5.250524
     174A      5.352665   175A      5.358531   176A      5.479431

    Beta Occupied:

       1A    -10.168447     2A    -10.167445     3A    -10.167433
       4A    -10.166517     5A     -0.781092     6A     -0.684311
       7A     -0.683669     8A     -0.511746     9A     -0.431139
      10A     -0.430945    11A     -0.421823    12A     -0.376916
      13A     -0.376452    14A     -0.362596    15A     -0.333147
      16A     -0.333096

    Beta Virtual:

      17A     -0.025743    18A      0.077080    19A      0.134980
      20A      0.135098    21A      0.144449    22A      0.144560
      23A      0.163334    24A      0.182139    25A      0.182763
      26A      0.215033    27A      0.218930    28A      0.282285
      29A      0.282382    30A      0.400312    31A      0.400483
      32A      0.419791    33A      0.426810    34A      0.427007
      35A      0.468500    36A      0.497580    37A      0.497720
      38A      0.513896    39A      0.556324    40A      0.584228
      41A      0.584501    42A      0.597522    43A      0.598090
      44A      0.610007    45A      0.628141    46A      0.631888
      47A      0.639219    48A      0.639895    49A      0.666783
      50A      0.667173    51A      0.686218    52A      0.686770
      53A      0.757518    54A      0.830142    55A      0.831001
      56A      0.855270    57A      0.922983    58A      0.923008
      59A      0.945948    60A      0.953549    61A      0.966380
      62A      0.966835    63A      1.008706    64A      1.131788
      65A      1.132489    66A      1.155600    67A      1.168246
      68A      1.168437    69A      1.232296    70A      1.279899
      71A      1.280268    72A      1.285103    73A      1.328937
      74A      1.329750    75A      1.365367    76A      1.371058
      77A      1.371539    78A      1.393536    79A      1.407104
      80A      1.407921    81A      1.421804    82A      1.422514
      83A      1.428180    84A      1.492527    85A      1.509537
      86A      1.547136    87A      1.547339    88A      1.582045
      89A      1.582594    90A      1.674644    91A      1.745117
      92A      1.745218    93A      1.779104    94A      1.833741
      95A      1.836830    96A      1.972561    97A      2.025415
      98A      2.025455    99A      2.039674   100A      2.059250
     101A      2.059511   102A      2.746360   103A      2.747284
     104A      2.811794   105A      2.816100   106A      2.902430
     107A      2.902834   108A      2.924660   109A      2.931924
     110A      2.932029   111A      2.960069   112A      2.968354
     113A      2.969500   114A      3.041953   115A      3.080930
     116A      3.081411   117A      3.086236   118A      3.184373
     119A      3.184671   120A      3.188292   121A      3.290023
     122A      3.290209   123A      3.330942   124A      3.330992
     125A      3.383431   126A      3.492087   127A      3.493703
     128A      3.512369   129A      3.528389   130A      3.574960
     131A      3.581732   132A      3.581784   133A      3.670272
     134A      3.671926   135A      3.692968   136A      3.725309
     137A      3.726207   138A      3.780772   139A      3.781907
     140A      3.817667   141A      3.921593   142A      3.922469
     143A      4.045323   144A      4.117602   145A      4.118623
     146A      4.153461   147A      4.157157   148A      4.187368
     149A      4.207195   150A      4.209559   151A      4.211804
     152A      4.215644   153A      4.322837   154A      4.323958
     155A      4.362311   156A      4.432355   157A      4.432850
     158A      4.446474   159A      4.524431   160A      4.524797
     161A      4.588505   162A      4.589283   163A      4.624724
     164A      4.719820   165A      4.781402   166A      4.781684
     167A      4.839789   168A      4.967662   169A      5.006474
     170A      5.007547   171A      5.233551   172A      5.244855
     173A      5.252314   174A      5.359156   175A      5.364996
     176A      5.481751

    Final Occupation by Irrep:
              A
    DOCC [    16 ]
    SOCC [     1 ]

  @DF-UKS Final Energy:  -157.81305837303665

   => Energetics <=

    Nuclear Repulsion Energy =            125.3946341593933056
    One-Electron Energy =                -458.7489040349889819
    Two-Electron Energy =                 195.8483580969083278
    DFT Exchange-Correlation Energy =     -20.3071465943493124
    Empirical Dispersion Energy =           0.0000000000000000
    VV10 Nonlocal Energy =                  0.0000000000000000
    Total Energy =                       -157.8130583730366538

  UHF NO Occupations:
  HONO-2 :   15  A 1.9996009
  HONO-1 :   16  A 1.9989805
  HONO-0 :   17  A 1.0000000
  LUNO+0 :   18  A 0.0010195
  LUNO+1 :   19  A 0.0003991
  LUNO+2 :   20  A 0.0001976
  LUNO+3 :   21  A 0.0001975

Computation Completed

Properties will be evaluated at   0.000000,   0.000000,   0.000000 [a0]

Properties computed using the SCF density matrix

  Nuclear Dipole Moment: [e a0]
     X:     0.8272      Y:     0.0025      Z:    -0.0000

  Electronic Dipole Moment: [e a0]
     X:    -0.7493      Y:    -0.0049      Z:     0.0000

  Dipole Moment: [e a0]
     X:     0.0779      Y:    -0.0025      Z:    -0.0000     Total:     0.0780

  Dipole Moment: [D]
     X:     0.1980      Y:    -0.0062      Z:    -0.0000     Total:     0.1981

*** tstop() called on n071 at Fri Nov  5 15:13:36 2021
Module time:
	user time   =     663.51 seconds =      11.06 minutes
	system time =      17.47 seconds =       0.29 minutes
	total time  =        210 seconds =       3.50 minutes
Total time:
	user time   =     663.51 seconds =      11.06 minutes
	system time =      17.47 seconds =       0.29 minutes
	total time  =        210 seconds =       3.50 minutes
Grab this energy -157.81305837303665
    Psi4 stopped on: Friday, 05 November 2021 03:13PM
    Psi4 wall time for execution: 0:03:29.58

*** Psi4 exiting successfully. Buy a developer a beer!
