                               Psi4 1.4a2.dev629

  ==> Input File <==

--------------------------------------------------------------------------
import os
memory 14 GB

molecule {
 C   -0.3233505565    0.0053426744   -0.0000000000
 C    0.0610304879   -1.3992132415   -2.4254120824
 C    0.0606896278    2.8001780643   -0.0000000000
 C    0.0610304879   -1.3992132415    2.4254120824
 H    2.0867634869   -1.6452498275   -2.8476997733
 H   -0.7660381184   -0.3891086664   -4.0251456028
 H   -0.7647494104   -3.2931099955   -2.3502416298
 H    2.0869840044    3.2880008624    0.0000000000
 H   -0.7654719222    3.6799087735    1.6767861688
 H   -0.7654719222    3.6799087735   -1.6767861688
 H    2.0867634869   -1.6452498275    2.8476997733
 H   -0.7647494104   -3.2931099955    2.3502416298
 H   -0.7660381184   -0.3891086664    4.0251456028
units bohr
0 2
}

basis {

assign 6-31g_2dfp_

[ 6-31g_2dfp_ ]

spherical

!----------------------------------------------------------------------
! Basis Set Exchange
! Version v0.8.13
! https://www.basissetexchange.org
!----------------------------------------------------------------------
!   Basis set: 6-31G(2df,p)
! Description: 6-31G(2df,p)
!        Role: orbital
!     Version: 0  (Data from the original Basis Set Exchange)
!----------------------------------------------------------------------

****
H     0
S    3   1.00
     18.7311370              0.03349460
      2.8253937              0.23472695
      0.6401217              0.81375733
S    1   1.00
      0.1612778              1.00000000
P    1   1.00
      1.5000000              1.0000000
P    1   1.00
      0.3750000              1.0000000
****
B     0
S    6   1.00
   2068.8823000              0.0018663
    310.6495700              0.0142515
     70.6830330              0.0695516
     19.8610800              0.2325729
      6.2993048              0.4670787
      2.1270270              0.3634314
SP   3   1.00
      4.7279710             -0.1303938              0.0745976
      1.1903377             -0.1307889              0.3078467
      0.3594117              1.1309444              0.7434568
SP   1   1.00
      0.1267512              1.0000000              1.0000000
D    1   1.00
      0.8020000              1.0000000
D    1   1.00
      0.2005000              1.0000000
F    1   1.00
      0.5000000              1.0000000
****
C     0
S    6   1.00
   3047.5249000              0.0018347
    457.3695100              0.0140373
    103.9486900              0.0688426
     29.2101550              0.2321844
      9.2866630              0.4679413
      3.1639270              0.3623120
SP   3   1.00
      7.8682724             -0.1193324              0.0689991
      1.8812885             -0.1608542              0.3164240
      0.5442493              1.1434564              0.7443083
SP   1   1.00
      0.1687144              1.0000000              1.0000000
D    1   1.00
      1.2520000              1.0000000
D    1   1.00
      0.3130000              1.0000000
F    1   1.00
      0.8000000              1.0000000
****
N     0
S    6   1.00
   4173.5110000              0.0018348
    627.4579000              0.0139950
    142.9021000              0.0685870
     40.2343300              0.2322410
     12.8202100              0.4690700
      4.3904370              0.3604550
SP   3   1.00
     11.6263580             -0.1149610              0.0675800
      2.7162800             -0.1691180              0.3239070
      0.7722180              1.1458520              0.7408950
SP   1   1.00
      0.2120313              1.0000000              1.0000000
D    1   1.00
      1.8260000              1.0000000
D    1   1.00
      0.4565000              1.0000000
F    1   1.00
      1.0000000              1.0000000
****
O     0
S    6   1.00
   5484.6717000              0.0018311
    825.2349500              0.0139501
    188.0469600              0.0684451
     52.9645000              0.2327143
     16.8975700              0.4701930
      5.7996353              0.3585209
SP   3   1.00
     15.5396160             -0.1107775              0.0708743
      3.5999336             -0.1480263              0.3397528
      1.0137618              1.1307670              0.7271586
SP   1   1.00
      0.2700058              1.0000000              1.0000000
D    1   1.00
      2.5840000              1.0000000
D    1   1.00
      0.6460000              1.0000000
F    1   1.00
      1.4000000              1.0000000
****
F     0
S    6   1.00
   7001.7130900              0.0018196169
   1051.3660900              0.0139160796
    239.2856900              0.0684053245
     67.3974453              0.233185760
     21.5199573              0.471267439
      7.40310130             0.356618546
SP   3   1.00
     20.8479528             -0.108506975            0.0716287243
      4.80830834            -0.146451658            0.3459121030
      1.34406986             1.128688580            0.7224699570
SP   1   1.00
      0.358151393            1.0000000              1.0000000
D    1   1.00
      3.5000000              1.0000000
D    1   1.00
      0.8750000              1.0000000
F    1   1.00
      1.8500000              1.0000000
****
Al     0
S    6   1.00
  13983.1000000              0.00194267
   2098.7500000              0.0148599
    477.7050000              0.0728494
    134.3600000              0.2468300
     42.8709000              0.4872580
     14.5189000              0.3234960
SP   6   1.00
    239.6680000             -0.00292619             0.00460285
     57.4419000             -0.0374080              0.0331990
     18.2859000             -0.1144870              0.1362820
      6.5991400              0.1156350              0.3304760
      2.4904900              0.6125950              0.4491460
      0.9445400              0.3937990              0.2657040
SP   3   1.00
      1.2779000             -0.2276060             -0.0175130
      0.3975900              0.00144583             0.2445330
      0.1600950              1.0927900              0.8049340
SP   1   1.00
      0.0556577              1.0000000              1.0000000
D    1   1.00
      0.6500000              1.0000000
D    1   1.00
      0.1625000              1.0000000
F    1   1.00
      0.2500000              1.0000000
****
Si     0
S    6   1.00
  16115.9000000              0.00195948
   2425.5800000              0.01492880
    553.8670000              0.07284780
    156.3400000              0.24613000
     50.0683000              0.48591400
     17.0178000              0.32500200
SP   6   1.00
    292.7180000             -0.00278094             0.00443826
     69.8731000             -0.03571460             0.03266790
     22.3363000             -0.11498500             0.13472100
      8.1503900              0.09356340             0.32867800
      3.1345800              0.60301700             0.44964000
      1.2254300              0.41895900             0.26137200
SP   3   1.00
      1.7273800             -0.24463000            -0.01779510
      0.5729220              0.00431572             0.25353900
      0.2221920              1.09818000             0.80066900
SP   1   1.00
      0.0778369              1.00000000             1.00000000
D    1   1.00
      0.9000000              1.0000000
D    1   1.00
      0.2250000              1.0000000
F    1   1.00
      0.3200000              1.0000000
****
P     0
S    6   1.00
  19413.3000000              0.0018516
   2909.4200000              0.0142062
    661.3640000              0.0699995
    185.7590000              0.2400790
     59.1943000              0.4847620
     20.0310000              0.3352000
SP   6   1.00
    339.4780000             -0.00278217             0.00456462
     81.0101000             -0.0360499              0.03369360
     25.8780000             -0.1166310              0.13975500
      9.4522100              0.0968328              0.33936200
      3.6656600              0.6144180              0.45092100
      1.4674600              0.4037980              0.23858600
SP   3   1.00
      2.1562300             -0.2529230             -0.01776530
      0.7489970              0.0328517              0.27405800
      0.2831450              1.0812500              0.78542100
SP   1   1.00
      0.0998317              1.0000000              1.00000000
D    1   1.00
      1.1000000              1.0000000
D    1   1.00
      0.2750000              1.0000000
F    1   1.00
      0.4500000              1.0000000
****
S     0
S    6   1.00
  21917.1000000              0.0018690
   3301.4900000              0.0142300
    754.1460000              0.0696960
    212.7110000              0.2384870
     67.9896000              0.4833070
     23.0515000              0.3380740
SP   6   1.00
    423.7350000             -0.0023767              0.0040610
    100.7100000             -0.0316930              0.0306810
     32.1599000             -0.1133170              0.1304520
     11.8079000              0.0560900              0.3272050
      4.6311000              0.5922550              0.4528510
      1.8702500              0.4550060              0.2560420
SP   3   1.00
      2.6158400             -0.2503740             -0.0145110
      0.9221670              0.0669570              0.3102630
      0.3412870              1.0545100              0.7544830
SP   1   1.00
      0.1171670              1.0000000              1.0000000
D    1   1.00
      1.3000000              1.0000000
D    1   1.00
      0.3250000              1.0000000
F    1   1.00
      0.5500000              1.0000000
****
Cl     0
S    6   1.00
  25180.1000000              0.0018330
   3780.3500000              0.0140340
    860.4740000              0.0690970
    242.1450000              0.2374520
     77.3349000              0.4830340
     26.2470000              0.3398560
SP   6   1.00
    491.7650000             -0.0022974              0.0039894
    116.9840000             -0.0307140              0.0303180
     37.4153000             -0.1125280              0.1298800
     13.7834000              0.0450160              0.3279510
      5.4521500              0.5893530              0.4535270
      2.2258800              0.4652060              0.2521540
SP   3   1.00
      3.1864900             -0.2518300             -0.0142990
      1.1442700              0.0615890              0.3235720
      0.4203770              1.0601800              0.7435070
SP   1   1.00
      0.1426570              1.0000000              1.0000000
D    1   1.00
      1.5000000              1.0000000
D    1   1.00
      0.3750000              1.0000000
F    1   1.00
      0.7000000              1.0000000
****
}

set {
reference uhf
freeze_core true
e_convergence 10
d_convergence 10
dft_spherical_points 1202
dft_radial_points 99
}

e = energy('b3lyp')

print_out('Grab this energy {0}'.format(e))
--------------------------------------------------------------------------

    Molecular point group: cs

    Geometry (in Bohr), charge = 0, multiplicity = 2:

       Center              X                  Y                   Z               Mass
    ------------   -----------------  -----------------  -----------------  -----------------
         C           -0.323242702619     0.003976699018     0.000000000000    12.000000000000
         C            0.061138341781    -1.400579216882    -2.425412082400    12.000000000000
         C            0.060797481681     2.798812088918     0.000000000000    12.000000000000
         C            0.061138341781    -1.400579216882     2.425412082400    12.000000000000
         H            2.086871340781    -1.646615802882    -2.847699773300     1.007825032230
         H           -0.765930264519    -0.390474641782    -4.025145602800     1.007825032230
         H           -0.764641556519    -3.294475970882    -2.350241629800     1.007825032230
         H            2.087091858281     3.286634887018     0.000000000000     1.007825032230
         H           -0.765364068319     3.678542798118     1.676786168800     1.007825032230
         H           -0.765364068319     3.678542798118    -1.676786168800     1.007825032230
         H            2.086871340781    -1.646615802882     2.847699773300     1.007825032230
         H           -0.764641556519    -3.294475970882     2.350241629800     1.007825032230
         H           -0.765930264519    -0.390474641782     4.025145602800     1.007825032230

  Charge       = 0
  Multiplicity = 2
  Basis Set: ANONYMOUSD2E7F356
    Blend: 6-31G_2DFP_
  Basis Set: (ANONYMOUSD2E7F356 AUX)
    Blend: DEF2-UNIVERSAL-JKFIT

    Orbital Energies [Eh]
    ---------------------

    Alpha Occupied:

       1Ap   -10.180290     1App  -10.167100     2Ap   -10.167079
       3Ap   -10.167023     4Ap    -0.798026     5Ap    -0.686384
       2App   -0.686007     6Ap    -0.530942     7Ap    -0.441140
       3App   -0.434954     8Ap    -0.434520     9Ap    -0.382579
       4App   -0.382347     5App   -0.363407    10Ap    -0.338677
       6App   -0.337638    11Ap    -0.168981

    Alpha Virtual:

      12Ap     0.076064    13Ap     0.134083     7App    0.134112
       8App    0.142318    14Ap     0.142669    15Ap     0.154985
       9App    0.178606    16Ap     0.178619    17Ap     0.203833
      10App    0.214679    11App    0.275936    18Ap     0.276515
      12App    0.399100    19Ap     0.399346    20Ap     0.403253
      21Ap     0.424043    13App    0.424045    22Ap     0.456774
      14App    0.495332    23Ap     0.495427    15App    0.512105
      24Ap     0.513920    16App    0.578584    25Ap     0.578958
      17App    0.591539    26Ap     0.591546    27Ap     0.602531
      28Ap     0.624632    18App    0.631544    19App    0.636150
      29Ap     0.636473    30Ap     0.663462    20App    0.663594
      31Ap     0.683787    21App    0.683888    32Ap     0.734862
      22App    0.825318    33Ap     0.825537    23App    0.854052
      34Ap     0.914867    24App    0.915094    25App    0.944173
      35Ap     0.944930    26App    0.961042    36Ap     0.961409
      37Ap     1.003284    27App    1.127948    38Ap     1.128386
      39Ap     1.142682    28App    1.162279    40Ap     1.163037
      41Ap     1.223757    42Ap     1.274148    29App    1.275091
      43Ap     1.279514    30App    1.324461    44Ap     1.324652
      45Ap     1.356331    31App    1.365923    46Ap     1.366471
      32App    1.391948    33App    1.403268    47Ap     1.403387
      48Ap     1.416775    34App    1.417418    35App    1.427671
      36App    1.492013    49Ap     1.498496    37App    1.542985
      50Ap     1.542996    51Ap     1.574525    38App    1.574571
      52Ap     1.669039    39App    1.739723    53Ap     1.740124
      54Ap     1.768288    40App    1.830703    55Ap     1.831230
      41App    1.972330    56Ap     2.018078    57Ap     2.019220
      42App    2.020371    43App    2.052538    58Ap     2.053625
      44App    2.738423    59Ap     2.738900    60Ap     2.791148
      45App    2.811511    46App    2.889496    61Ap     2.890618
      62Ap     2.895344    47App    2.928950    63Ap     2.929726
      48App    2.958941    64Ap     2.964184    49App    2.964518
      65Ap     3.034175    50App    3.070719    66Ap     3.071758
      51App    3.084754    67Ap     3.168756    52App    3.168960
      68Ap     3.181248    53App    3.284678    69Ap     3.285282
      70Ap     3.327013    54App    3.327787    71Ap     3.375506
      55App    3.489690    72Ap     3.490777    56App    3.514171
      73Ap     3.525682    74Ap     3.568405    57App    3.568859
      58App    3.575010    75Ap     3.665285    59App    3.665895
      76Ap     3.679091    77Ap     3.693985    60App    3.694058
      61App    3.776142    78Ap     3.777548    79Ap     3.788882
      62App    3.912867    80Ap     3.913787    81Ap     4.034996
      63App    4.110766    82Ap     4.111414    64App    4.147137
      83Ap     4.149099    84Ap     4.173941    85Ap     4.203174
      65App    4.203293    86Ap     4.204533    66App    4.211232
      67App    4.315290    87Ap     4.316393    68App    4.358344
      69App    4.423210    88Ap     4.423343    70App    4.441479
      71App    4.517047    89Ap     4.517313    90Ap     4.578555
      72App    4.579133    91Ap     4.618214    92Ap     4.710749
      73App    4.774824    93Ap     4.775972    74App    4.838213
      94Ap     4.961514    95Ap     5.001852    75App    5.002355
      96Ap     5.227516    76App    5.246502    97Ap     5.246569
      77App    5.355105    98Ap     5.356224    78App    5.480568

    Beta Occupied:

       1App  -10.167853     1Ap   -10.167838     2Ap   -10.167794
       3Ap   -10.166478     4Ap    -0.781336     5Ap    -0.684170
       2App   -0.683816     6Ap    -0.511959     3App   -0.431302
       7Ap    -0.430885     8Ap    -0.421785     9Ap    -0.376606
       4App   -0.376458     5App   -0.362387    10Ap    -0.333824
       6App   -0.332766

    Beta Virtual:

      11Ap    -0.025912    12Ap     0.077077     7App    0.134993
      13Ap     0.134998     8App    0.144201    14Ap     0.144531
      15Ap     0.163487     9App    0.182281    16Ap     0.182317
      10App    0.214910    17Ap     0.219167    11App    0.282299
      18Ap     0.282809    12App    0.400278    19Ap     0.400519
      20Ap     0.419708    13App    0.426846    21Ap     0.426866
      22Ap     0.468758    14App    0.497597    23Ap     0.497698
      15App    0.513849    24Ap     0.556231    16App    0.584110
      25Ap     0.584534    17App    0.597700    26Ap     0.597723
      27Ap     0.609949    28Ap     0.628043    18App    0.631704
      19App    0.639439    29Ap     0.639792    30Ap     0.667034
      20App    0.667153    31Ap     0.686432    21App    0.686535
      32Ap     0.757308    22App    0.830507    33Ap     0.830717
      23App    0.855417    34Ap     0.922808    24App    0.923089
      25App    0.946016    35Ap     0.953872    26App    0.966350
      36Ap     0.966732    37Ap     1.008515    27App    1.131993
      38Ap     1.132402    39Ap     1.156081    28App    1.167347
      40Ap     1.168094    41Ap     1.232671    42Ap     1.279832
      29App    1.280668    43Ap     1.285242    30App    1.329485
      44Ap     1.329651    45Ap     1.365757    31App    1.371153
      46Ap     1.371605    32App    1.393016    33App    1.406710
      47Ap     1.406941    48Ap     1.421835    34App    1.422459
      35App    1.427931    36App    1.493074    49Ap     1.508961
      37App    1.547411    50Ap     1.547431    38App    1.582396
      51Ap     1.582407    52Ap     1.673880    39App    1.745477
      53Ap     1.745886    54Ap     1.779108    40App    1.834569
      55Ap     1.835124    41App    1.973197    56Ap     2.025684
      42App    2.026822    57Ap     2.039466    43App    2.059224
      58Ap     2.060294    44App    2.746695    59Ap     2.747236
      45App    2.811922    60Ap     2.816250    46App    2.902232
      61Ap     2.903177    62Ap     2.925090    47App    2.931405
      63Ap     2.932293    48App    2.960003    64Ap     2.968762
      49App    2.969089    65Ap     3.042152    50App    3.080751
      66Ap     3.081635    51App    3.086578    67Ap     3.184404
      52App    3.184531    68Ap     3.188998    53App    3.289567
      69Ap     3.290089    70Ap     3.330811    54App    3.331588
      71Ap     3.383358    55App    3.492416    72Ap     3.493524
      56App    3.512537    73Ap     3.528691    57App    3.574865
      74Ap     3.581723    58App    3.582091    75Ap     3.669927
      59App    3.670398    76Ap     3.692385    77Ap     3.725604
      60App    3.725915    61App    3.780738    78Ap     3.782156
      79Ap     3.817337    62App    3.922648    80Ap     3.923570
      81Ap     4.045804    63App    4.117724    82Ap     4.118282
      64App    4.154316    83Ap     4.156231    84Ap     4.188055
      65App    4.209235    85Ap     4.209871    86Ap     4.211766
      66App    4.215728    67App    4.322575    87Ap     4.323803
      68App    4.361728    69App    4.431487    88Ap     4.431624
      70App    4.444370    71App    4.524855    89Ap     4.525211
      90Ap     4.589154    72App    4.589750    91Ap     4.625449
      92Ap     4.721098    73App    4.781738    93Ap     4.782960
      74App    4.841127    94Ap     4.966328    95Ap     5.005931
      75App    5.006402    96Ap     5.233248    76App    5.248301
      97Ap     5.248358    77App    5.361588    98Ap     5.362759
      78App    5.482897

    Final Occupation by Irrep:
             Ap   App
    DOCC [    10,    6 ]
    SOCC [     1,    0 ]

  @DF-UKS Final Energy:  -157.81308550816232

   => Energetics <=

    Nuclear Repulsion Energy =            125.4226401624576965
    One-Electron Energy =                -458.8040247138421250
    Two-Electron Energy =                 195.8753288261108878
    DFT Exchange-Correlation Energy =     -20.3070297828887831
    Empirical Dispersion Energy =           0.0000000000000000
    VV10 Nonlocal Energy =                  0.0000000000000000
    Total Energy =                       -157.8130855081623167

  UHF NO Occupations:
  HONO-2 :    9 Ap 1.9995992
  HONO-1 :   10 Ap 1.9989827
  HONO-0 :   11 Ap 1.0000000
  LUNO+0 :   12 Ap 0.0010173
  LUNO+1 :   13 Ap 0.0004008
  LUNO+2 :    7App 0.0001978
  LUNO+3 :   14 Ap 0.0001957

Computation Completed

Properties will be evaluated at   0.000000,   0.000000,   0.000000 [a0]

Properties computed using the SCF density matrix

  Nuclear Dipole Moment: [e a0]
     X:     0.8280      Y:    -0.0096      Z:    -0.0000

  Electronic Dipole Moment: [e a0]
     X:    -0.7502      Y:     0.0109      Z:     0.0000

  Dipole Moment: [e a0]
     X:     0.0778      Y:     0.0012      Z:    -0.0000     Total:     0.0778

  Dipole Moment: [D]
     X:     0.1977      Y:     0.0031      Z:    -0.0000     Total:     0.1977

*** tstop() called on n031 at Fri Nov  5 13:20:05 2021
Module time:
	user time   =     635.24 seconds =      10.59 minutes
	system time =      12.02 seconds =       0.20 minutes
	total time  =        163 seconds =       2.72 minutes
Total time:
	user time   =     635.24 seconds =      10.59 minutes
	system time =      12.02 seconds =       0.20 minutes
	total time  =        163 seconds =       2.72 minutes
Grab this energy -157.81308550816232
    Psi4 stopped on: Friday, 05 November 2021 01:20PM
    Psi4 wall time for execution: 0:02:42.76

*** Psi4 exiting successfully. Buy a developer a beer!
