                               Psi4 1.4a2.dev629

  ==> Input File <==

--------------------------------------------------------------------------
import os
memory 14 GB

molecule {
 C   -0.3233394797   -0.0000023137    0.0026531019
 C    0.0619757908   -1.4031534188   -2.4285895262
 C    0.0610210252    2.8017592578    0.0017345912
 C    0.0603065808   -1.3986008219    2.4241730484
 H    2.0892292939   -1.6419170763   -2.8471951254
 H   -0.7664344954   -0.3899286855   -4.0250412551
 H   -0.7623082677   -3.2950268762   -2.3511417335
 H    2.0867931196    3.2881017733   -0.0035384113
 H   -0.7613459095    3.6831606903    1.6797409519
 H   -0.7699412650    3.6773480015   -1.6732449184
 H    2.0846355994   -1.6462747260    2.8476866341
 H   -0.7688260618   -3.2889697433    2.3468396220
 H   -0.7643738073   -0.3865203747    4.0259230203
units bohr
0 2
}

basis {

assign 6-31g_2dfp_

[ 6-31g_2dfp_ ]

spherical

!----------------------------------------------------------------------
! Basis Set Exchange
! Version v0.8.13
! https://www.basissetexchange.org
!----------------------------------------------------------------------
!   Basis set: 6-31G(2df,p)
! Description: 6-31G(2df,p)
!        Role: orbital
!     Version: 0  (Data from the original Basis Set Exchange)
!----------------------------------------------------------------------

****
H     0
S    3   1.00
     18.7311370              0.03349460
      2.8253937              0.23472695
      0.6401217              0.81375733
S    1   1.00
      0.1612778              1.00000000
P    1   1.00
      1.5000000              1.0000000
P    1   1.00
      0.3750000              1.0000000
****
B     0
S    6   1.00
   2068.8823000              0.0018663
    310.6495700              0.0142515
     70.6830330              0.0695516
     19.8610800              0.2325729
      6.2993048              0.4670787
      2.1270270              0.3634314
SP   3   1.00
      4.7279710             -0.1303938              0.0745976
      1.1903377             -0.1307889              0.3078467
      0.3594117              1.1309444              0.7434568
SP   1   1.00
      0.1267512              1.0000000              1.0000000
D    1   1.00
      0.8020000              1.0000000
D    1   1.00
      0.2005000              1.0000000
F    1   1.00
      0.5000000              1.0000000
****
C     0
S    6   1.00
   3047.5249000              0.0018347
    457.3695100              0.0140373
    103.9486900              0.0688426
     29.2101550              0.2321844
      9.2866630              0.4679413
      3.1639270              0.3623120
SP   3   1.00
      7.8682724             -0.1193324              0.0689991
      1.8812885             -0.1608542              0.3164240
      0.5442493              1.1434564              0.7443083
SP   1   1.00
      0.1687144              1.0000000              1.0000000
D    1   1.00
      1.2520000              1.0000000
D    1   1.00
      0.3130000              1.0000000
F    1   1.00
      0.8000000              1.0000000
****
N     0
S    6   1.00
   4173.5110000              0.0018348
    627.4579000              0.0139950
    142.9021000              0.0685870
     40.2343300              0.2322410
     12.8202100              0.4690700
      4.3904370              0.3604550
SP   3   1.00
     11.6263580             -0.1149610              0.0675800
      2.7162800             -0.1691180              0.3239070
      0.7722180              1.1458520              0.7408950
SP   1   1.00
      0.2120313              1.0000000              1.0000000
D    1   1.00
      1.8260000              1.0000000
D    1   1.00
      0.4565000              1.0000000
F    1   1.00
      1.0000000              1.0000000
****
O     0
S    6   1.00
   5484.6717000              0.0018311
    825.2349500              0.0139501
    188.0469600              0.0684451
     52.9645000              0.2327143
     16.8975700              0.4701930
      5.7996353              0.3585209
SP   3   1.00
     15.5396160             -0.1107775              0.0708743
      3.5999336             -0.1480263              0.3397528
      1.0137618              1.1307670              0.7271586
SP   1   1.00
      0.2700058              1.0000000              1.0000000
D    1   1.00
      2.5840000              1.0000000
D    1   1.00
      0.6460000              1.0000000
F    1   1.00
      1.4000000              1.0000000
****
F     0
S    6   1.00
   7001.7130900              0.0018196169
   1051.3660900              0.0139160796
    239.2856900              0.0684053245
     67.3974453              0.233185760
     21.5199573              0.471267439
      7.40310130             0.356618546
SP   3   1.00
     20.8479528             -0.108506975            0.0716287243
      4.80830834            -0.146451658            0.3459121030
      1.34406986             1.128688580            0.7224699570
SP   1   1.00
      0.358151393            1.0000000              1.0000000
D    1   1.00
      3.5000000              1.0000000
D    1   1.00
      0.8750000              1.0000000
F    1   1.00
      1.8500000              1.0000000
****
Al     0
S    6   1.00
  13983.1000000              0.00194267
   2098.7500000              0.0148599
    477.7050000              0.0728494
    134.3600000              0.2468300
     42.8709000              0.4872580
     14.5189000              0.3234960
SP   6   1.00
    239.6680000             -0.00292619             0.00460285
     57.4419000             -0.0374080              0.0331990
     18.2859000             -0.1144870              0.1362820
      6.5991400              0.1156350              0.3304760
      2.4904900              0.6125950              0.4491460
      0.9445400              0.3937990              0.2657040
SP   3   1.00
      1.2779000             -0.2276060             -0.0175130
      0.3975900              0.00144583             0.2445330
      0.1600950              1.0927900              0.8049340
SP   1   1.00
      0.0556577              1.0000000              1.0000000
D    1   1.00
      0.6500000              1.0000000
D    1   1.00
      0.1625000              1.0000000
F    1   1.00
      0.2500000              1.0000000
****
Si     0
S    6   1.00
  16115.9000000              0.00195948
   2425.5800000              0.01492880
    553.8670000              0.07284780
    156.3400000              0.24613000
     50.0683000              0.48591400
     17.0178000              0.32500200
SP   6   1.00
    292.7180000             -0.00278094             0.00443826
     69.8731000             -0.03571460             0.03266790
     22.3363000             -0.11498500             0.13472100
      8.1503900              0.09356340             0.32867800
      3.1345800              0.60301700             0.44964000
      1.2254300              0.41895900             0.26137200
SP   3   1.00
      1.7273800             -0.24463000            -0.01779510
      0.5729220              0.00431572             0.25353900
      0.2221920              1.09818000             0.80066900
SP   1   1.00
      0.0778369              1.00000000             1.00000000
D    1   1.00
      0.9000000              1.0000000
D    1   1.00
      0.2250000              1.0000000
F    1   1.00
      0.3200000              1.0000000
****
P     0
S    6   1.00
  19413.3000000              0.0018516
   2909.4200000              0.0142062
    661.3640000              0.0699995
    185.7590000              0.2400790
     59.1943000              0.4847620
     20.0310000              0.3352000
SP   6   1.00
    339.4780000             -0.00278217             0.00456462
     81.0101000             -0.0360499              0.03369360
     25.8780000             -0.1166310              0.13975500
      9.4522100              0.0968328              0.33936200
      3.6656600              0.6144180              0.45092100
      1.4674600              0.4037980              0.23858600
SP   3   1.00
      2.1562300             -0.2529230             -0.01776530
      0.7489970              0.0328517              0.27405800
      0.2831450              1.0812500              0.78542100
SP   1   1.00
      0.0998317              1.0000000              1.00000000
D    1   1.00
      1.1000000              1.0000000
D    1   1.00
      0.2750000              1.0000000
F    1   1.00
      0.4500000              1.0000000
****
S     0
S    6   1.00
  21917.1000000              0.0018690
   3301.4900000              0.0142300
    754.1460000              0.0696960
    212.7110000              0.2384870
     67.9896000              0.4833070
     23.0515000              0.3380740
SP   6   1.00
    423.7350000             -0.0023767              0.0040610
    100.7100000             -0.0316930              0.0306810
     32.1599000             -0.1133170              0.1304520
     11.8079000              0.0560900              0.3272050
      4.6311000              0.5922550              0.4528510
      1.8702500              0.4550060              0.2560420
SP   3   1.00
      2.6158400             -0.2503740             -0.0145110
      0.9221670              0.0669570              0.3102630
      0.3412870              1.0545100              0.7544830
SP   1   1.00
      0.1171670              1.0000000              1.0000000
D    1   1.00
      1.3000000              1.0000000
D    1   1.00
      0.3250000              1.0000000
F    1   1.00
      0.5500000              1.0000000
****
Cl     0
S    6   1.00
  25180.1000000              0.0018330
   3780.3500000              0.0140340
    860.4740000              0.0690970
    242.1450000              0.2374520
     77.3349000              0.4830340
     26.2470000              0.3398560
SP   6   1.00
    491.7650000             -0.0022974              0.0039894
    116.9840000             -0.0307140              0.0303180
     37.4153000             -0.1125280              0.1298800
     13.7834000              0.0450160              0.3279510
      5.4521500              0.5893530              0.4535270
      2.2258800              0.4652060              0.2521540
SP   3   1.00
      3.1864900             -0.2518300             -0.0142990
      1.1442700              0.0615890              0.3235720
      0.4203770              1.0601800              0.7435070
SP   1   1.00
      0.1426570              1.0000000              1.0000000
D    1   1.00
      1.5000000              1.0000000
D    1   1.00
      0.3750000              1.0000000
F    1   1.00
      0.7000000              1.0000000
****
}

set {
reference uhf
freeze_core true
e_convergence 10
d_convergence 10
dft_spherical_points 1202
dft_radial_points 99
}

e = energy('b3lyp')

print_out('Grab this energy {0}'.format(e))
--------------------------------------------------------------------------

    Molecular point group: c1

    Geometry (in Bohr), charge = 0, multiplicity = 2:

       Center              X                  Y                   Z               Mass
    ------------   -----------------  -----------------  -----------------  -----------------
         C           -0.323340231243    -0.000002405034     0.002658646042    12.000000000000
         C            0.061975039257    -1.403153510134    -2.428583982058    12.000000000000
         C            0.061020273657     2.801759166466     0.001740135342    12.000000000000
         C            0.060305829257    -1.398600913234     2.424178592542    12.000000000000
         H            2.089228542357    -1.641917167634    -2.847189581258     1.007825032230
         H           -0.766435246943    -0.389928776834    -4.025035710958     1.007825032230
         H           -0.762309019243    -3.295026967534    -2.351136189358     1.007825032230
         H            2.086792368057     3.288101681966    -0.003532867158     1.007825032230
         H           -0.761346661043     3.683160598966     1.679746496042     1.007825032230
         H           -0.769942016543     3.677347910166    -1.673239374258     1.007825032230
         H            2.084634847857    -1.646274817334     2.847692178242     1.007825032230
         H           -0.768826813343    -3.288969834634     2.346845166142     1.007825032230
         H           -0.764374558843    -0.386520466034     4.025928564442     1.007825032230

  Charge       = 0
  Multiplicity = 2
  Basis Set: ANONYMOUS83C7117E
    Blend: 6-31G_2DFP_
  Basis Set: (ANONYMOUS83C7117E AUX)
    Blend: DEF2-UNIVERSAL-JKFIT

    Orbital Energies [Eh]
    ---------------------

    Alpha Occupied:

       1A    -10.180341     2A    -10.167168     3A    -10.167015
       4A    -10.166861     5A     -0.797769     6A     -0.686306
       7A     -0.686067     8A     -0.530777     9A     -0.441124
      10A     -0.434682    11A     -0.434661    12A     -0.382645
      13A     -0.382554    14A     -0.363615    15A     -0.338353
      16A     -0.337639    17A     -0.168960

    Alpha Virtual:

      18A      0.076073    19A      0.134110    20A      0.134200
      21A      0.142576    22A      0.142680    23A      0.154878
      24A      0.178692    25A      0.178863    26A      0.203542
      27A      0.214802    28A      0.275426    29A      0.276548
      30A      0.399197    31A      0.399235    32A      0.403368
      33A      0.424020    34A      0.424176    35A      0.456596
      36A      0.495360    37A      0.495417    38A      0.512160
      39A      0.513980    40A      0.578583    41A      0.579032
      42A      0.591475    43A      0.591807    44A      0.602577
      45A      0.624762    46A      0.631778    47A      0.635994
      48A      0.636504    49A      0.663146    50A      0.663677
      51A      0.683812    52A      0.683894    53A      0.734996
      54A      0.825383    55A      0.825432    56A      0.853916
      57A      0.914879    58A      0.915175    59A      0.944123
      60A      0.944612    61A      0.961284    62A      0.961306
      63A      1.003454    64A      1.128070    65A      1.128136
      66A      1.142181    67A      1.163122    68A      1.163458
      69A      1.223334    70A      1.273983    71A      1.274951
      72A      1.279399    73A      1.324172    74A      1.324546
      75A      1.355991    76A      1.365605    77A      1.366501
      78A      1.392457    79A      1.403893    80A      1.404181
      81A      1.416690    82A      1.417527    83A      1.427942
      84A      1.491489    85A      1.499082    86A      1.542624
      87A      1.543040    88A      1.574416    89A      1.574474
      90A      1.669825    91A      1.739290    92A      1.739551
      93A      1.768318    94A      1.831303    95A      1.831487
      96A      1.971724    97A      2.017959    98A      2.018684
      99A      2.019719   100A      2.051011   101A      2.054310
     102A      2.738412   103A      2.738547   104A      2.790930
     105A      2.811418   106A      2.889408   107A      2.890394
     108A      2.895048   109A      2.929390   110A      2.929612
     111A      2.958994   112A      2.964189   113A      2.964558
     114A      3.034007   115A      3.071128   116A      3.071445
     117A      3.084348   118A      3.168488   119A      3.168976
     120A      3.180685   121A      3.285260   122A      3.285371
     123A      3.326528   124A      3.327789   125A      3.375607
     126A      3.489584   127A      3.490714   128A      3.513986
     129A      3.525312   130A      3.567495   131A      3.569327
     132A      3.575151   133A      3.665509   134A      3.667285
     135A      3.679593   136A      3.693912   137A      3.694356
     138A      3.775612   139A      3.777915   140A      3.789191
     141A      3.910996   142A      3.913475   143A      4.034450
     144A      4.110183   145A      4.112546   146A      4.147259
     147A      4.148960   148A      4.173249   149A      4.201798
     150A      4.202842   151A      4.204153   152A      4.210923
     153A      4.314721   154A      4.317196   155A      4.358969
     156A      4.424007   157A      4.424875   158A      4.443481
     159A      4.515409   160A      4.518238   161A      4.577557
     162A      4.578932   163A      4.617575   164A      4.709460
     165A      4.773664   166A      4.775523   167A      4.836952
     168A      4.962845   169A      5.002874   170A      5.003050
     171A      5.228034   172A      5.246737   173A      5.246892
     174A      5.354489   175A      5.356527   176A      5.479351

    Beta Occupied:

       1A    -10.167921     2A    -10.167775     3A    -10.167628
       4A    -10.166518     5A     -0.781094     6A     -0.684092
       7A     -0.683886     8A     -0.511748     9A     -0.431047
      10A     -0.431038    11A     -0.421822    12A     -0.376761
      13A     -0.376607    14A     -0.362599    15A     -0.333477
      16A     -0.332761

    Beta Virtual:

      17A     -0.025742    18A      0.077081    19A      0.134975
      20A      0.135115    21A      0.144473    22A      0.144523
      23A      0.163337    24A      0.182385    25A      0.182515
      26A      0.215032    27A      0.218924    28A      0.281794
      29A      0.282876    30A      0.400386    31A      0.400403
      32A      0.419796    33A      0.426817    34A      0.427002
      35A      0.468504    36A      0.497635    37A      0.497665
      38A      0.513895    39A      0.556322    40A      0.584118
      41A      0.584602    42A      0.597673    43A      0.597965
      44A      0.609999    45A      0.628137    46A      0.631934
      47A      0.639265    48A      0.639808    49A      0.666715
      50A      0.667235    51A      0.686472    52A      0.686505
      53A      0.757518    54A      0.830519    55A      0.830633
      56A      0.855269    57A      0.922844    58A      0.923152
      59A      0.945960    60A      0.953539    61A      0.966561
      62A      0.966643    63A      1.008693    64A      1.132105
      65A      1.132157    66A      1.155547    67A      1.168119
      68A      1.168619    69A      1.232307    70A      1.279567
      71A      1.280552    72A      1.285163    73A      1.329189
      74A      1.329509    75A      1.365406    76A      1.370914
      77A      1.371678    78A      1.393514    79A      1.407278
      80A      1.407722    81A      1.421761    82A      1.422545
      83A      1.428227    84A      1.492537    85A      1.509525
      86A      1.547054    87A      1.547425    88A      1.582298
      89A      1.582337    90A      1.674672    91A      1.745041
      92A      1.745322    93A      1.779100    94A      1.835174
      95A      1.835325    96A      1.972584    97A      2.024814
      98A      2.026057    99A      2.039646   100A      2.057772
     101A      2.061003   102A      2.746797   103A      2.746834
     104A      2.811831   105A      2.816062   106A      2.902217
     107A      2.903048   108A      2.924624   109A      2.931875
     110A      2.932132   111A      2.960056   112A      2.968764
     113A      2.969074   114A      3.041943   115A      3.081074
     116A      3.081320   117A      3.086165   118A      3.184032
     119A      3.184727   120A      3.188572   121A      3.290083
     122A      3.290145   123A      3.330347   124A      3.331578
     125A      3.383427   126A      3.492272   127A      3.493487
     128A      3.512360   129A      3.528361   130A      3.574974
     131A      3.580861   132A      3.582664   133A      3.670354
     134A      3.671934   135A      3.692906   136A      3.725699
     137A      3.725817   138A      3.780235   139A      3.782366
     140A      3.817711   141A      3.920908   142A      3.923198
     143A      4.045339   144A      4.116899   145A      4.119458
     146A      4.154633   147A      4.156011   148A      4.187302
     149A      4.207996   150A      4.209600   151A      4.211027
     152A      4.215411   153A      4.322102   154A      4.324697
     155A      4.362331   156A      4.432231   157A      4.433078
     158A      4.446368   159A      4.523215   160A      4.526010
     161A      4.588135   162A      4.589550   163A      4.624775
     164A      4.719806   165A      4.780677   166A      4.782417
     167A      4.839872   168A      4.967641   169A      5.006946
     170A      5.007056   171A      5.233749   172A      5.248540
     173A      5.248657   174A      5.360928   175A      5.363050
     176A      5.481673

    Final Occupation by Irrep:
              A
    DOCC [    16 ]
    SOCC [     1 ]

  @DF-UKS Final Energy:  -157.81306488999957

   => Energetics <=

    Nuclear Repulsion Energy =            125.3946732774751638
    One-Electron Energy =                -458.7489990651382641
    Two-Electron Energy =                 195.8484071379078841
    DFT Exchange-Correlation Energy =     -20.3071462402443075
    Empirical Dispersion Energy =           0.0000000000000000
    VV10 Nonlocal Energy =                  0.0000000000000000
    Total Energy =                       -157.8130648899995663

  UHF NO Occupations:
  HONO-2 :   15  A 1.9996008
  HONO-1 :   16  A 1.9989804
  HONO-0 :   17  A 1.0000000
  LUNO+0 :   18  A 0.0010196
  LUNO+1 :   19  A 0.0003992
  LUNO+2 :   20  A 0.0001985
  LUNO+3 :   21  A 0.0001966

Computation Completed

Properties will be evaluated at   0.000000,   0.000000,   0.000000 [a0]

Properties computed using the SCF density matrix

  Nuclear Dipole Moment: [e a0]
     X:     0.8272      Y:    -0.0000      Z:     0.0000

  Electronic Dipole Moment: [e a0]
     X:    -0.7493      Y:     0.0000      Z:    -0.0001

  Dipole Moment: [e a0]
     X:     0.0779      Y:    -0.0000      Z:    -0.0001     Total:     0.0779

  Dipole Moment: [D]
     X:     0.1980      Y:    -0.0000      Z:    -0.0003     Total:     0.1980

*** tstop() called on n067 at Fri Nov  5 13:16:52 2021
Module time:
	user time   =     542.42 seconds =       9.04 minutes
	system time =      11.77 seconds =       0.20 minutes
	total time  =        140 seconds =       2.33 minutes
Total time:
	user time   =     542.42 seconds =       9.04 minutes
	system time =      11.77 seconds =       0.20 minutes
	total time  =        140 seconds =       2.33 minutes
Grab this energy -157.81306488999957
    Psi4 stopped on: Friday, 05 November 2021 01:16PM
    Psi4 wall time for execution: 0:02:19.35

*** Psi4 exiting successfully. Buy a developer a beer!
