                               Psi4 1.4a2.dev629

  ==> Input File <==

--------------------------------------------------------------------------
import os
memory 14 GB

molecule {
 C   -0.3201730001   -0.0000014726    0.0002246012
 C    0.0626106830   -1.4019786119   -2.4278055127
 C    0.0623461434    2.8015795704    0.0004831964
 C    0.0623206975   -1.3995952881    2.4246433706
 H    2.0866742917   -1.6435913733   -2.8467479071
 H   -0.7665104737   -0.3882470457   -4.0250784337
 H   -0.7667349794   -3.2915629152   -2.3488657397
 H    2.0864673969    3.2878372114   -0.0001834713
 H   -0.7667331367    3.6805072760    1.6760047790
 H   -0.7666102895    3.6804847574   -1.6761898226
 H    2.0865339719   -1.6443392490    2.8476765371
 H   -0.7664504376   -3.2919781845    2.3499374627
 H   -0.7663487442   -0.3891389885    4.0259009401
units bohr
0 2
}

basis {

assign 6-31g_2dfp_

[ 6-31g_2dfp_ ]

spherical

!----------------------------------------------------------------------
! Basis Set Exchange
! Version v0.8.13
! https://www.basissetexchange.org
!----------------------------------------------------------------------
!   Basis set: 6-31G(2df,p)
! Description: 6-31G(2df,p)
!        Role: orbital
!     Version: 0  (Data from the original Basis Set Exchange)
!----------------------------------------------------------------------

****
H     0
S    3   1.00
     18.7311370              0.03349460
      2.8253937              0.23472695
      0.6401217              0.81375733
S    1   1.00
      0.1612778              1.00000000
P    1   1.00
      1.5000000              1.0000000
P    1   1.00
      0.3750000              1.0000000
****
B     0
S    6   1.00
   2068.8823000              0.0018663
    310.6495700              0.0142515
     70.6830330              0.0695516
     19.8610800              0.2325729
      6.2993048              0.4670787
      2.1270270              0.3634314
SP   3   1.00
      4.7279710             -0.1303938              0.0745976
      1.1903377             -0.1307889              0.3078467
      0.3594117              1.1309444              0.7434568
SP   1   1.00
      0.1267512              1.0000000              1.0000000
D    1   1.00
      0.8020000              1.0000000
D    1   1.00
      0.2005000              1.0000000
F    1   1.00
      0.5000000              1.0000000
****
C     0
S    6   1.00
   3047.5249000              0.0018347
    457.3695100              0.0140373
    103.9486900              0.0688426
     29.2101550              0.2321844
      9.2866630              0.4679413
      3.1639270              0.3623120
SP   3   1.00
      7.8682724             -0.1193324              0.0689991
      1.8812885             -0.1608542              0.3164240
      0.5442493              1.1434564              0.7443083
SP   1   1.00
      0.1687144              1.0000000              1.0000000
D    1   1.00
      1.2520000              1.0000000
D    1   1.00
      0.3130000              1.0000000
F    1   1.00
      0.8000000              1.0000000
****
N     0
S    6   1.00
   4173.5110000              0.0018348
    627.4579000              0.0139950
    142.9021000              0.0685870
     40.2343300              0.2322410
     12.8202100              0.4690700
      4.3904370              0.3604550
SP   3   1.00
     11.6263580             -0.1149610              0.0675800
      2.7162800             -0.1691180              0.3239070
      0.7722180              1.1458520              0.7408950
SP   1   1.00
      0.2120313              1.0000000              1.0000000
D    1   1.00
      1.8260000              1.0000000
D    1   1.00
      0.4565000              1.0000000
F    1   1.00
      1.0000000              1.0000000
****
O     0
S    6   1.00
   5484.6717000              0.0018311
    825.2349500              0.0139501
    188.0469600              0.0684451
     52.9645000              0.2327143
     16.8975700              0.4701930
      5.7996353              0.3585209
SP   3   1.00
     15.5396160             -0.1107775              0.0708743
      3.5999336             -0.1480263              0.3397528
      1.0137618              1.1307670              0.7271586
SP   1   1.00
      0.2700058              1.0000000              1.0000000
D    1   1.00
      2.5840000              1.0000000
D    1   1.00
      0.6460000              1.0000000
F    1   1.00
      1.4000000              1.0000000
****
F     0
S    6   1.00
   7001.7130900              0.0018196169
   1051.3660900              0.0139160796
    239.2856900              0.0684053245
     67.3974453              0.233185760
     21.5199573              0.471267439
      7.40310130             0.356618546
SP   3   1.00
     20.8479528             -0.108506975            0.0716287243
      4.80830834            -0.146451658            0.3459121030
      1.34406986             1.128688580            0.7224699570
SP   1   1.00
      0.358151393            1.0000000              1.0000000
D    1   1.00
      3.5000000              1.0000000
D    1   1.00
      0.8750000              1.0000000
F    1   1.00
      1.8500000              1.0000000
****
Al     0
S    6   1.00
  13983.1000000              0.00194267
   2098.7500000              0.0148599
    477.7050000              0.0728494
    134.3600000              0.2468300
     42.8709000              0.4872580
     14.5189000              0.3234960
SP   6   1.00
    239.6680000             -0.00292619             0.00460285
     57.4419000             -0.0374080              0.0331990
     18.2859000             -0.1144870              0.1362820
      6.5991400              0.1156350              0.3304760
      2.4904900              0.6125950              0.4491460
      0.9445400              0.3937990              0.2657040
SP   3   1.00
      1.2779000             -0.2276060             -0.0175130
      0.3975900              0.00144583             0.2445330
      0.1600950              1.0927900              0.8049340
SP   1   1.00
      0.0556577              1.0000000              1.0000000
D    1   1.00
      0.6500000              1.0000000
D    1   1.00
      0.1625000              1.0000000
F    1   1.00
      0.2500000              1.0000000
****
Si     0
S    6   1.00
  16115.9000000              0.00195948
   2425.5800000              0.01492880
    553.8670000              0.07284780
    156.3400000              0.24613000
     50.0683000              0.48591400
     17.0178000              0.32500200
SP   6   1.00
    292.7180000             -0.00278094             0.00443826
     69.8731000             -0.03571460             0.03266790
     22.3363000             -0.11498500             0.13472100
      8.1503900              0.09356340             0.32867800
      3.1345800              0.60301700             0.44964000
      1.2254300              0.41895900             0.26137200
SP   3   1.00
      1.7273800             -0.24463000            -0.01779510
      0.5729220              0.00431572             0.25353900
      0.2221920              1.09818000             0.80066900
SP   1   1.00
      0.0778369              1.00000000             1.00000000
D    1   1.00
      0.9000000              1.0000000
D    1   1.00
      0.2250000              1.0000000
F    1   1.00
      0.3200000              1.0000000
****
P     0
S    6   1.00
  19413.3000000              0.0018516
   2909.4200000              0.0142062
    661.3640000              0.0699995
    185.7590000              0.2400790
     59.1943000              0.4847620
     20.0310000              0.3352000
SP   6   1.00
    339.4780000             -0.00278217             0.00456462
     81.0101000             -0.0360499              0.03369360
     25.8780000             -0.1166310              0.13975500
      9.4522100              0.0968328              0.33936200
      3.6656600              0.6144180              0.45092100
      1.4674600              0.4037980              0.23858600
SP   3   1.00
      2.1562300             -0.2529230             -0.01776530
      0.7489970              0.0328517              0.27405800
      0.2831450              1.0812500              0.78542100
SP   1   1.00
      0.0998317              1.0000000              1.00000000
D    1   1.00
      1.1000000              1.0000000
D    1   1.00
      0.2750000              1.0000000
F    1   1.00
      0.4500000              1.0000000
****
S     0
S    6   1.00
  21917.1000000              0.0018690
   3301.4900000              0.0142300
    754.1460000              0.0696960
    212.7110000              0.2384870
     67.9896000              0.4833070
     23.0515000              0.3380740
SP   6   1.00
    423.7350000             -0.0023767              0.0040610
    100.7100000             -0.0316930              0.0306810
     32.1599000             -0.1133170              0.1304520
     11.8079000              0.0560900              0.3272050
      4.6311000              0.5922550              0.4528510
      1.8702500              0.4550060              0.2560420
SP   3   1.00
      2.6158400             -0.2503740             -0.0145110
      0.9221670              0.0669570              0.3102630
      0.3412870              1.0545100              0.7544830
SP   1   1.00
      0.1171670              1.0000000              1.0000000
D    1   1.00
      1.3000000              1.0000000
D    1   1.00
      0.3250000              1.0000000
F    1   1.00
      0.5500000              1.0000000
****
Cl     0
S    6   1.00
  25180.1000000              0.0018330
   3780.3500000              0.0140340
    860.4740000              0.0690970
    242.1450000              0.2374520
     77.3349000              0.4830340
     26.2470000              0.3398560
SP   6   1.00
    491.7650000             -0.0022974              0.0039894
    116.9840000             -0.0307140              0.0303180
     37.4153000             -0.1125280              0.1298800
     13.7834000              0.0450160              0.3279510
      5.4521500              0.5893530              0.4535270
      2.2258800              0.4652060              0.2521540
SP   3   1.00
      3.1864900             -0.2518300             -0.0142990
      1.1442700              0.0615890              0.3235720
      0.4203770              1.0601800              0.7435070
SP   1   1.00
      0.1426570              1.0000000              1.0000000
D    1   1.00
      1.5000000              1.0000000
D    1   1.00
      0.3750000              1.0000000
F    1   1.00
      0.7000000              1.0000000
****
}

set {
reference uhf
freeze_core true
e_convergence 10
d_convergence 10
dft_spherical_points 1202
dft_radial_points 99
}

e = energy('b3lyp')

print_out('Grab this energy {0}'.format(e))
--------------------------------------------------------------------------

    Molecular point group: c1

    Geometry (in Bohr), charge = 0, multiplicity = 2:

       Center              X                  Y                   Z               Mass
    ------------   -----------------  -----------------  -----------------  -----------------
         C           -0.321549083922    -0.000001851765     0.000697325628    12.000000000000
         C            0.061234599178    -1.401978991065    -2.427332788272    12.000000000000
         C            0.060970059578     2.801579191235     0.000955920828    12.000000000000
         C            0.060944613678    -1.399595667265     2.425116095028    12.000000000000
         H            2.085298207878    -1.643591752465    -2.846275182672     1.007825032230
         H           -0.767886557522    -0.388247424865    -4.024605709272     1.007825032230
         H           -0.768111063222    -3.291563294365    -2.348393015272     1.007825032230
         H            2.085091313078     3.287836832235     0.000289253128     1.007825032230
         H           -0.768109220522     3.680506896835     1.676477503428     1.007825032230
         H           -0.767986373322     3.680484378235    -1.675717098172     1.007825032230
         H            2.085157888078    -1.644339628165     2.848149261528     1.007825032230
         H           -0.767826521422    -3.291978563665     2.350410187128     1.007825032230
         H           -0.767724828022    -0.389139367665     4.026373664528     1.007825032230

  Charge       = 0
  Multiplicity = 2
  Basis Set: ANONYMOUS7E49F8D1
    Blend: 6-31G_2DFP_
  Basis Set: (ANONYMOUS7E49F8D1 AUX)
    Blend: DEF2-UNIVERSAL-JKFIT

    Orbital Energies [Eh]
    ---------------------

    Alpha Occupied:

       1A    -10.180229     2A    -10.167034     3A    -10.166995
       4A    -10.166945     5A     -0.797820     6A     -0.686222
       7A     -0.686176     8A     -0.530755     9A     -0.441359
      10A     -0.434608    11A     -0.434444    12A     -0.382937
      13A     -0.382756    14A     -0.363330    15A     -0.338157
      16A     -0.337741    17A     -0.168846

    Alpha Virtual:

      18A      0.076056    19A      0.134131    20A      0.134162
      21A      0.142486    22A      0.142610    23A      0.154944
      24A      0.178801    25A      0.178966    26A      0.203591
      27A      0.214670    28A      0.275899    29A      0.276350
      30A      0.399236    31A      0.399255    32A      0.403385
      33A      0.424059    34A      0.424147    35A      0.456597
      36A      0.495316    37A      0.495361    38A      0.512265
      39A      0.513977    40A      0.578686    41A      0.578763
      42A      0.591878    43A      0.592003    44A      0.602884
      45A      0.624620    46A      0.631632    47A      0.635953
      48A      0.636283    49A      0.663523    50A      0.663644
      51A      0.683808    52A      0.683848    53A      0.735123
      54A      0.825527    55A      0.825636    56A      0.853869
      57A      0.915177    58A      0.915208    59A      0.944230
      60A      0.944630    61A      0.961166    62A      0.961234
      63A      1.002572    64A      1.127793    65A      1.127944
      66A      1.142599    67A      1.163141    68A      1.163712
      69A      1.223742    70A      1.274467    71A      1.275070
      72A      1.279521    73A      1.324179    74A      1.324306
      75A      1.357025    76A      1.365559    77A      1.365860
      78A      1.392370    79A      1.404485    80A      1.404855
      81A      1.417555    82A      1.417878    83A      1.428107
      84A      1.491026    85A      1.499583    86A      1.542349
      87A      1.542500    88A      1.574180    89A      1.574566
      90A      1.669287    91A      1.739494    92A      1.739771
      93A      1.768525    94A      1.830571    95A      1.831578
      96A      1.971170    97A      2.018480    98A      2.018875
      99A      2.019904   100A      2.052339   101A      2.053703
     102A      2.738696   103A      2.738937   104A      2.791145
     105A      2.811150   106A      2.890051   107A      2.890203
     108A      2.894912   109A      2.929287   110A      2.929408
     111A      2.958831   112A      2.964326   113A      2.964485
     114A      3.034050   115A      3.071769   116A      3.072040
     117A      3.084291   118A      3.168603   119A      3.168978
     120A      3.180408   121A      3.284950   122A      3.284977
     123A      3.326046   124A      3.326416   125A      3.375911
     126A      3.490013   127A      3.490677   128A      3.514474
     129A      3.525171   130A      3.568730   131A      3.568897
     132A      3.575599   133A      3.665699   134A      3.667065
     135A      3.678639   136A      3.694294   137A      3.694538
     138A      3.777494   139A      3.777868   140A      3.790440
     141A      3.911376   142A      3.912869   143A      4.035626
     144A      4.110841   145A      4.111158   146A      4.147594
     147A      4.148195   148A      4.173378   149A      4.202685
     150A      4.203243   151A      4.203896   152A      4.210956
     153A      4.315436   154A      4.316877   155A      4.358862
     156A      4.424069   157A      4.425959   158A      4.442668
     159A      4.516071   160A      4.517360   161A      4.578153
     162A      4.578202   163A      4.618366   164A      4.709897
     165A      4.774511   166A      4.775137   167A      4.837153
     168A      4.962761   169A      5.002963   170A      5.004390
     171A      5.228124   172A      5.246593   173A      5.246992
     174A      5.354996   175A      5.355126   176A      5.479858

    Beta Occupied:

       1A    -10.167793     2A    -10.167752     3A    -10.167709
       4A    -10.166404     5A     -0.781129     6A     -0.684027
       7A     -0.683969     8A     -0.511721     9A     -0.430968
      10A     -0.430802    11A     -0.422063    12A     -0.377054
      13A     -0.376833    14A     -0.362313    15A     -0.333284
      16A     -0.332866

    Beta Virtual:

      17A     -0.025595    18A      0.077063    19A      0.134999
      20A      0.135010    21A      0.144382    22A      0.144473
      23A      0.163372    24A      0.182495    25A      0.182635
      26A      0.214903    27A      0.218996    28A      0.282244
      29A      0.282677    30A      0.400404    31A      0.400418
      32A      0.419771    33A      0.426873    34A      0.426963
      35A      0.468569    36A      0.497570    37A      0.497628
      38A      0.513995    39A      0.556368    40A      0.584240
      41A      0.584328    42A      0.598041    43A      0.598165
      44A      0.610282    45A      0.628027    46A      0.631790
      47A      0.639260    48A      0.639581    49A      0.667054
      50A      0.667186    51A      0.686458    52A      0.686473
      53A      0.757640    54A      0.830670    55A      0.830788
      56A      0.855220    57A      0.923141    58A      0.923177
      59A      0.946067    60A      0.953594    61A      0.966494
      62A      0.966555    63A      1.007763    64A      1.131933
      65A      1.132075    66A      1.155960    67A      1.168136
      68A      1.168743    69A      1.232722    70A      1.280044
      71A      1.280653    72A      1.285282    73A      1.329124
      74A      1.329224    75A      1.366459    76A      1.370825
      77A      1.371071    78A      1.393417    79A      1.408021
      80A      1.408287    81A      1.422635    82A      1.422919
      83A      1.428401    84A      1.492071    85A      1.510047
      86A      1.546645    87A      1.546813    88A      1.582145
      89A      1.582542    90A      1.674149    91A      1.745243
      92A      1.745527    93A      1.779300    94A      1.834443
      95A      1.835429    96A      1.972031    97A      2.025241
      98A      2.026331    99A      2.039913   100A      2.059032
     101A      2.060398   102A      2.747051   103A      2.747247
     104A      2.811562   105A      2.816332   106A      2.902750
     107A      2.902859   108A      2.924697   109A      2.931810
     110A      2.931900   111A      2.959892   112A      2.968841
     113A      2.969029   114A      3.041946   115A      3.081658
     116A      3.081917   117A      3.086106   118A      3.184389
     119A      3.184792   120A      3.188081   121A      3.289792
     122A      3.289820   123A      3.329840   124A      3.330197
     125A      3.383768   126A      3.492713   127A      3.493421
     128A      3.512837   129A      3.528254   130A      3.575462
     131A      3.581984   132A      3.582186   133A      3.670489
     134A      3.671918   135A      3.691950   136A      3.725889
     137A      3.726149   138A      3.781938   139A      3.782398
     140A      3.818960   141A      3.921242   142A      3.922632
     143A      4.046502   144A      4.117577   145A      4.118097
     146A      4.154883   147A      4.155292   148A      4.187408
     149A      4.208880   150A      4.209671   151A      4.211135
     152A      4.215396   153A      4.322861   154A      4.324357
     155A      4.362211   156A      4.432241   157A      4.434065
     158A      4.445617   159A      4.523866   160A      4.525142
     161A      4.588762   162A      4.588843   163A      4.625634
     164A      4.720151   165A      4.781507   166A      4.782094
     167A      4.840073   168A      4.967541   169A      5.007004
     170A      5.008402   171A      5.233870   172A      5.248395
     173A      5.248778   174A      5.361472   175A      5.361645
     176A      5.482181

    Final Occupation by Irrep:
              A
    DOCC [    16 ]
    SOCC [     1 ]

  @DF-UKS Final Energy:  -157.81307348021633

   => Energetics <=

    Nuclear Repulsion Energy =            125.4033468580319663
    One-Electron Energy =                -458.7664594189039917
    Two-Electron Energy =                 195.8574369956501187
    DFT Exchange-Correlation Energy =     -20.3073979149944250
    Empirical Dispersion Energy =           0.0000000000000000
    VV10 Nonlocal Energy =                  0.0000000000000000
    Total Energy =                       -157.8130734802163317

  UHF NO Occupations:
  HONO-2 :   15  A 1.9996019
  HONO-1 :   16  A 1.9989796
  HONO-0 :   17  A 1.0000000
  LUNO+0 :   18  A 0.0010204
  LUNO+1 :   19  A 0.0003981
  LUNO+2 :   20  A 0.0001978
  LUNO+3 :   21  A 0.0001971

Computation Completed

Properties will be evaluated at   0.000000,   0.000000,   0.000000 [a0]

Properties computed using the SCF density matrix

  Nuclear Dipole Moment: [e a0]
     X:     0.8175      Y:    -0.0000      Z:     0.0033

  Electronic Dipole Moment: [e a0]
     X:    -0.7395      Y:     0.0000      Z:    -0.0034

  Dipole Moment: [e a0]
     X:     0.0780      Y:     0.0000      Z:    -0.0001     Total:     0.0780

  Dipole Moment: [D]
     X:     0.1983      Y:     0.0000      Z:    -0.0002     Total:     0.1983

*** tstop() called on n079 at Fri Nov  5 13:07:31 2021
Module time:
	user time   =     468.45 seconds =       7.81 minutes
	system time =       4.52 seconds =       0.08 minutes
	total time  =        119 seconds =       1.98 minutes
Total time:
	user time   =     468.45 seconds =       7.81 minutes
	system time =       4.52 seconds =       0.08 minutes
	total time  =        119 seconds =       1.98 minutes
Grab this energy -157.81307348021633
    Psi4 stopped on: Friday, 05 November 2021 01:07PM
    Psi4 wall time for execution: 0:01:58.96

*** Psi4 exiting successfully. Buy a developer a beer!
