                               Psi4 1.4a2.dev629

  ==> Input File <==

--------------------------------------------------------------------------
import os
memory 14 GB

molecule {
 C   -0.3247914545    0.0002422504   -0.0000000000
 C    0.0625526406   -1.4009106792   -2.4261799587
 C    0.0607658285    2.8017859993    0.0000000000
 C    0.0625526406   -1.4009106792    2.4261799587
 H    2.0885077299   -1.6470340076   -2.8493152687
 H   -0.7639118232   -0.3864413666   -4.0231634820
 H   -0.7657440288   -3.2912521226   -2.3489133349
 H    2.0834978880    3.2820549166    0.0000000000
 H   -0.7674445879    3.6835844360    1.6765542366
 H   -0.7674445879    3.6835844360   -1.6765542366
 H    2.0885077299   -1.6470340076    2.8493152687
 H   -0.7657440288   -3.2912521226    2.3489133349
 H   -0.7639118232   -0.3864413666    4.0231634820
units bohr
0 2
}

basis {

assign 6-31g_2dfp_

[ 6-31g_2dfp_ ]

spherical

!----------------------------------------------------------------------
! Basis Set Exchange
! Version v0.8.13
! https://www.basissetexchange.org
!----------------------------------------------------------------------
!   Basis set: 6-31G(2df,p)
! Description: 6-31G(2df,p)
!        Role: orbital
!     Version: 0  (Data from the original Basis Set Exchange)
!----------------------------------------------------------------------

****
H     0
S    3   1.00
     18.7311370              0.03349460
      2.8253937              0.23472695
      0.6401217              0.81375733
S    1   1.00
      0.1612778              1.00000000
P    1   1.00
      1.5000000              1.0000000
P    1   1.00
      0.3750000              1.0000000
****
B     0
S    6   1.00
   2068.8823000              0.0018663
    310.6495700              0.0142515
     70.6830330              0.0695516
     19.8610800              0.2325729
      6.2993048              0.4670787
      2.1270270              0.3634314
SP   3   1.00
      4.7279710             -0.1303938              0.0745976
      1.1903377             -0.1307889              0.3078467
      0.3594117              1.1309444              0.7434568
SP   1   1.00
      0.1267512              1.0000000              1.0000000
D    1   1.00
      0.8020000              1.0000000
D    1   1.00
      0.2005000              1.0000000
F    1   1.00
      0.5000000              1.0000000
****
C     0
S    6   1.00
   3047.5249000              0.0018347
    457.3695100              0.0140373
    103.9486900              0.0688426
     29.2101550              0.2321844
      9.2866630              0.4679413
      3.1639270              0.3623120
SP   3   1.00
      7.8682724             -0.1193324              0.0689991
      1.8812885             -0.1608542              0.3164240
      0.5442493              1.1434564              0.7443083
SP   1   1.00
      0.1687144              1.0000000              1.0000000
D    1   1.00
      1.2520000              1.0000000
D    1   1.00
      0.3130000              1.0000000
F    1   1.00
      0.8000000              1.0000000
****
N     0
S    6   1.00
   4173.5110000              0.0018348
    627.4579000              0.0139950
    142.9021000              0.0685870
     40.2343300              0.2322410
     12.8202100              0.4690700
      4.3904370              0.3604550
SP   3   1.00
     11.6263580             -0.1149610              0.0675800
      2.7162800             -0.1691180              0.3239070
      0.7722180              1.1458520              0.7408950
SP   1   1.00
      0.2120313              1.0000000              1.0000000
D    1   1.00
      1.8260000              1.0000000
D    1   1.00
      0.4565000              1.0000000
F    1   1.00
      1.0000000              1.0000000
****
O     0
S    6   1.00
   5484.6717000              0.0018311
    825.2349500              0.0139501
    188.0469600              0.0684451
     52.9645000              0.2327143
     16.8975700              0.4701930
      5.7996353              0.3585209
SP   3   1.00
     15.5396160             -0.1107775              0.0708743
      3.5999336             -0.1480263              0.3397528
      1.0137618              1.1307670              0.7271586
SP   1   1.00
      0.2700058              1.0000000              1.0000000
D    1   1.00
      2.5840000              1.0000000
D    1   1.00
      0.6460000              1.0000000
F    1   1.00
      1.4000000              1.0000000
****
F     0
S    6   1.00
   7001.7130900              0.0018196169
   1051.3660900              0.0139160796
    239.2856900              0.0684053245
     67.3974453              0.233185760
     21.5199573              0.471267439
      7.40310130             0.356618546
SP   3   1.00
     20.8479528             -0.108506975            0.0716287243
      4.80830834            -0.146451658            0.3459121030
      1.34406986             1.128688580            0.7224699570
SP   1   1.00
      0.358151393            1.0000000              1.0000000
D    1   1.00
      3.5000000              1.0000000
D    1   1.00
      0.8750000              1.0000000
F    1   1.00
      1.8500000              1.0000000
****
Al     0
S    6   1.00
  13983.1000000              0.00194267
   2098.7500000              0.0148599
    477.7050000              0.0728494
    134.3600000              0.2468300
     42.8709000              0.4872580
     14.5189000              0.3234960
SP   6   1.00
    239.6680000             -0.00292619             0.00460285
     57.4419000             -0.0374080              0.0331990
     18.2859000             -0.1144870              0.1362820
      6.5991400              0.1156350              0.3304760
      2.4904900              0.6125950              0.4491460
      0.9445400              0.3937990              0.2657040
SP   3   1.00
      1.2779000             -0.2276060             -0.0175130
      0.3975900              0.00144583             0.2445330
      0.1600950              1.0927900              0.8049340
SP   1   1.00
      0.0556577              1.0000000              1.0000000
D    1   1.00
      0.6500000              1.0000000
D    1   1.00
      0.1625000              1.0000000
F    1   1.00
      0.2500000              1.0000000
****
Si     0
S    6   1.00
  16115.9000000              0.00195948
   2425.5800000              0.01492880
    553.8670000              0.07284780
    156.3400000              0.24613000
     50.0683000              0.48591400
     17.0178000              0.32500200
SP   6   1.00
    292.7180000             -0.00278094             0.00443826
     69.8731000             -0.03571460             0.03266790
     22.3363000             -0.11498500             0.13472100
      8.1503900              0.09356340             0.32867800
      3.1345800              0.60301700             0.44964000
      1.2254300              0.41895900             0.26137200
SP   3   1.00
      1.7273800             -0.24463000            -0.01779510
      0.5729220              0.00431572             0.25353900
      0.2221920              1.09818000             0.80066900
SP   1   1.00
      0.0778369              1.00000000             1.00000000
D    1   1.00
      0.9000000              1.0000000
D    1   1.00
      0.2250000              1.0000000
F    1   1.00
      0.3200000              1.0000000
****
P     0
S    6   1.00
  19413.3000000              0.0018516
   2909.4200000              0.0142062
    661.3640000              0.0699995
    185.7590000              0.2400790
     59.1943000              0.4847620
     20.0310000              0.3352000
SP   6   1.00
    339.4780000             -0.00278217             0.00456462
     81.0101000             -0.0360499              0.03369360
     25.8780000             -0.1166310              0.13975500
      9.4522100              0.0968328              0.33936200
      3.6656600              0.6144180              0.45092100
      1.4674600              0.4037980              0.23858600
SP   3   1.00
      2.1562300             -0.2529230             -0.01776530
      0.7489970              0.0328517              0.27405800
      0.2831450              1.0812500              0.78542100
SP   1   1.00
      0.0998317              1.0000000              1.00000000
D    1   1.00
      1.1000000              1.0000000
D    1   1.00
      0.2750000              1.0000000
F    1   1.00
      0.4500000              1.0000000
****
S     0
S    6   1.00
  21917.1000000              0.0018690
   3301.4900000              0.0142300
    754.1460000              0.0696960
    212.7110000              0.2384870
     67.9896000              0.4833070
     23.0515000              0.3380740
SP   6   1.00
    423.7350000             -0.0023767              0.0040610
    100.7100000             -0.0316930              0.0306810
     32.1599000             -0.1133170              0.1304520
     11.8079000              0.0560900              0.3272050
      4.6311000              0.5922550              0.4528510
      1.8702500              0.4550060              0.2560420
SP   3   1.00
      2.6158400             -0.2503740             -0.0145110
      0.9221670              0.0669570              0.3102630
      0.3412870              1.0545100              0.7544830
SP   1   1.00
      0.1171670              1.0000000              1.0000000
D    1   1.00
      1.3000000              1.0000000
D    1   1.00
      0.3250000              1.0000000
F    1   1.00
      0.5500000              1.0000000
****
Cl     0
S    6   1.00
  25180.1000000              0.0018330
   3780.3500000              0.0140340
    860.4740000              0.0690970
    242.1450000              0.2374520
     77.3349000              0.4830340
     26.2470000              0.3398560
SP   6   1.00
    491.7650000             -0.0022974              0.0039894
    116.9840000             -0.0307140              0.0303180
     37.4153000             -0.1125280              0.1298800
     13.7834000              0.0450160              0.3279510
      5.4521500              0.5893530              0.4535270
      2.2258800              0.4652060              0.2521540
SP   3   1.00
      3.1864900             -0.2518300             -0.0142990
      1.1442700              0.0615890              0.3235720
      0.4203770              1.0601800              0.7435070
SP   1   1.00
      0.1426570              1.0000000              1.0000000
D    1   1.00
      1.5000000              1.0000000
D    1   1.00
      0.3750000              1.0000000
F    1   1.00
      0.7000000              1.0000000
****
}

set {
reference uhf
freeze_core true
e_convergence 10
d_convergence 10
dft_spherical_points 1202
dft_radial_points 99
}

e = energy('b3lyp')

print_out('Grab this energy {0}'.format(e))
--------------------------------------------------------------------------

    Molecular point group: cs

    Geometry (in Bohr), charge = 0, multiplicity = 2:

       Center              X                  Y                   Z               Mass
    ------------   -----------------  -----------------  -----------------  -----------------
         C           -0.325007105235     0.000202831009     0.000000000000    12.000000000000
         C            0.062336989865    -1.400950098591    -2.426179958700    12.000000000000
         C            0.060550177765     2.801746579909     0.000000000000    12.000000000000
         C            0.062336989865    -1.400950098591     2.426179958700    12.000000000000
         H            2.088292079165    -1.647073426991    -2.849315268700     1.007825032230
         H           -0.764127473935    -0.386480785991    -4.023163482000     1.007825032230
         H           -0.765959679535    -3.291291541991    -2.348913334900     1.007825032230
         H            2.083282237265     3.282015497209     0.000000000000     1.007825032230
         H           -0.767660238635     3.683545016609     1.676554236600     1.007825032230
         H           -0.767660238635     3.683545016609    -1.676554236600     1.007825032230
         H            2.088292079165    -1.647073426991     2.849315268700     1.007825032230
         H           -0.765959679535    -3.291291541991     2.348913334900     1.007825032230
         H           -0.764127473935    -0.386480785991     4.023163482000     1.007825032230

  Charge       = 0
  Multiplicity = 2
  Basis Set: ANONYMOUSDE92B095
    Blend: 6-31G_2DFP_
  Basis Set: (ANONYMOUSDE92B095 AUX)
    Blend: DEF2-UNIVERSAL-JKFIT

    Orbital Energies [Eh]
    ---------------------

    Alpha Occupied:

       1Ap   -10.180408     2Ap   -10.167047     1App  -10.167005
       3Ap   -10.166968     4Ap    -0.797751     5Ap    -0.686199
       2App   -0.686139     6Ap    -0.530781     7Ap    -0.441182
       8Ap    -0.434693     3App   -0.434523     9Ap    -0.382930
       4App   -0.382481     5App   -0.363485    10Ap    -0.338061
       6App   -0.337753    11Ap    -0.169144

    Alpha Virtual:

      12Ap     0.076076     7App    0.134104    13Ap     0.134199
       8App    0.142399    14Ap     0.142810    15Ap     0.154959
       9App    0.178711    16Ap     0.178979    17Ap     0.203577
      10App    0.214754    11App    0.275792    18Ap     0.275834
      19Ap     0.399080    12App    0.399337    20Ap     0.403264
      21Ap     0.423967    13App    0.424172    22Ap     0.456688
      23Ap     0.495352    14App    0.495375    15App    0.512207
      24Ap     0.513882    25Ap     0.578805    16App    0.579075
      17App    0.591406    26Ap     0.591896    27Ap     0.602821
      28Ap     0.624682    18App    0.631687    19App    0.635897
      29Ap     0.636309    30Ap     0.663532    20App    0.663611
      31Ap     0.683628    21App    0.683856    32Ap     0.734796
      22App    0.825291    33Ap     0.825412    23App    0.853917
      24App    0.914641    34Ap     0.915279    25App    0.944157
      35Ap     0.944662    26App    0.961243    36Ap     0.961398
      37Ap     1.003453    38Ap     1.127795    27App    1.128618
      39Ap     1.142221    40Ap     1.163546    28App    1.163867
      41Ap     1.223163    42Ap     1.274314    29App    1.274526
      43Ap     1.279609    30App    1.324030    44Ap     1.324181
      45Ap     1.356212    31App    1.365680    46Ap     1.365691
      32App    1.392458    33App    1.403598    47Ap     1.404585
      34App    1.416997    48Ap     1.417682    35App    1.427975
      36App    1.491319    49Ap     1.499454    37App    1.542876
      50Ap     1.542898    38App    1.573684    51Ap     1.574653
      52Ap     1.669560    39App    1.739088    53Ap     1.739249
      54Ap     1.768382    55Ap     1.830590    40App    1.831436
      41App    1.971458    56Ap     2.017291    42App    2.019269
      57Ap     2.019430    43App    2.052565    58Ap     2.053493
      44App    2.738277    59Ap     2.738305    60Ap     2.791124
      45App    2.811398    61Ap     2.889516    46App    2.889872
      62Ap     2.895289    47App    2.929209    63Ap     2.929819
      48App    2.958922    64Ap     2.964074    49App    2.964465
      65Ap     3.034351    50App    3.069792    66Ap     3.071091
      51App    3.084279    67Ap     3.168673    52App    3.169135
      68Ap     3.180548    69Ap     3.285993    53App    3.286226
      70Ap     3.326644    54App    3.328407    71Ap     3.375784
      55App    3.488858    72Ap     3.491006    56App    3.513829
      73Ap     3.525798    74Ap     3.568023    57App    3.568048
      58App    3.575894    59App    3.665384    75Ap     3.666212
      76Ap     3.679439    60App    3.693519    77Ap     3.694828
      78Ap     3.776445    61App    3.776603    79Ap     3.787904
      80Ap     3.912079    62App    3.912334    81Ap     4.034137
      63App    4.111004    82Ap     4.111265    64App    4.148053
      83Ap     4.148117    84Ap     4.173193    85Ap     4.201971
      86Ap     4.203337    65App    4.203693    66App    4.210892
      67App    4.315967    87Ap     4.316347    68App    4.359458
      69App    4.424239    88Ap     4.424379    70App    4.443148
      71App    4.516529    89Ap     4.517719    90Ap     4.578379
      72App    4.578424    91Ap     4.617083    92Ap     4.709723
      73App    4.773836    93Ap     4.775058    74App    4.835713
      94Ap     4.962963    75App    5.002548    95Ap     5.003646
      96Ap     5.227961    76App    5.246153    97Ap     5.247252
      98Ap     5.355191    77App    5.355274    78App    5.478979

    Beta Occupied:

       1Ap   -10.167796     1App  -10.167757     2Ap   -10.167739
       3Ap   -10.166581     4Ap    -0.781080     5Ap    -0.683995
       2App   -0.683945     6Ap    -0.511744     7Ap    -0.431066
       3App   -0.430872     8Ap    -0.421911     9Ap    -0.377031
       4App   -0.376570     5App   -0.362468    10Ap    -0.333176
       6App   -0.332892

    Beta Virtual:

      11Ap    -0.025844    12Ap     0.077080     7App    0.134990
      13Ap     0.135072     8App    0.144295    14Ap     0.144661
      15Ap     0.163408     9App    0.182379    16Ap     0.182656
      10App    0.214984    17Ap     0.218936    11App    0.282147
      18Ap     0.282199    19Ap     0.400252    12App    0.400501
      20Ap     0.419685    21Ap     0.426779    13App    0.426987
      22Ap     0.468609    23Ap     0.497617    14App    0.497641
      15App    0.513938    24Ap     0.556226    25Ap     0.584337
      16App    0.584617    17App    0.597587    26Ap     0.598090
      27Ap     0.610212    28Ap     0.628082    18App    0.631855
      19App    0.639178    29Ap     0.639598    30Ap     0.667090
      20App    0.667186    31Ap     0.686273    21App    0.686470
      32Ap     0.757340    22App    0.830466    33Ap     0.830581
      23App    0.855266    24App    0.922648    34Ap     0.923237
      25App    0.945992    35Ap     0.953582    26App    0.966527
      36Ap     0.966660    37Ap     1.008712    38Ap     1.131875
      27App    1.132608    39Ap     1.155563    40Ap     1.168590
      28App    1.168969    41Ap     1.232132    42Ap     1.279942
      29App    1.280126    43Ap     1.285370    30App    1.329023
      44Ap     1.329183    45Ap     1.365587    46Ap     1.370931
      31App    1.370936    32App    1.393510    33App    1.407058
      47Ap     1.408055    34App    1.422014    48Ap     1.422708
      35App    1.428263    36App    1.492365    49Ap     1.509901
      50Ap     1.547208    37App    1.547386    38App    1.581463
      51Ap     1.582615    52Ap     1.674422    39App    1.744850
      53Ap     1.745008    54Ap     1.779141    55Ap     1.834442
      40App    1.835279    41App    1.972317    42App    2.025686
      56Ap     2.025808    57Ap     2.038671    43App    2.059286
      58Ap     2.060242    44App    2.746600    59Ap     2.746653
      45App    2.811819    60Ap     2.816240    61Ap     2.902245
      46App    2.902629    62Ap     2.924957    47App    2.931687
      63Ap     2.932279    48App    2.959988    64Ap     2.968631
      49App    2.969015    65Ap     3.042245    50App    3.079698
      66Ap     3.081083    51App    3.086091    67Ap     3.184328
      52App    3.184790    68Ap     3.188272    69Ap     3.290713
      53App    3.291024    70Ap     3.330469    54App    3.332207
      71Ap     3.383612    55App    3.491629    72Ap     3.493732
      56App    3.512198    73Ap     3.528852    57App    3.575487
      58App    3.581487    74Ap     3.581618    59App    3.670124
      75Ap     3.670932    76Ap     3.692723    60App    3.725405
      77Ap     3.726229    78Ap     3.781052    61App    3.781144
      79Ap     3.816425    80Ap     3.921851    62App    3.922120
      81Ap     4.045054    63App    4.117832    82Ap     4.118042
      64App    4.155192    83Ap     4.155420    84Ap     4.187212
      85Ap     4.208717    65App    4.209631    86Ap     4.210509
      66App    4.215342    67App    4.323459    87Ap     4.323781
      68App    4.362818    69App    4.432402    88Ap     4.432564
      70App    4.446033    71App    4.524310    89Ap     4.525485
      90Ap     4.589000    72App    4.589074    91Ap     4.624267
      92Ap     4.720093    73App    4.780773    93Ap     4.782058
      74App    4.838642    94Ap     4.967754    75App    5.006589
      95Ap     5.007657    96Ap     5.233678    76App    5.247938
      97Ap     5.249034    98Ap     5.361687    77App    5.361756
      78App    5.481307

    Final Occupation by Irrep:
             Ap   App
    DOCC [    10,    6 ]
    SOCC [     1,    0 ]

  @DF-UKS Final Energy:  -157.81305857790537

   => Energetics <=

    Nuclear Repulsion Energy =            125.3921964356527070
    One-Electron Energy =                -458.7442158687429128
    Two-Electron Energy =                 195.8460349984210040
    DFT Exchange-Correlation Energy =     -20.3070741432361466
    Empirical Dispersion Energy =           0.0000000000000000
    VV10 Nonlocal Energy =                  0.0000000000000000
    Total Energy =                       -157.8130585779053661

  UHF NO Occupations:
  HONO-2 :    9 Ap 1.9996024
  HONO-1 :   10 Ap 1.9989820
  HONO-0 :   11 Ap 1.0000000
  LUNO+0 :   12 Ap 0.0010180
  LUNO+1 :   13 Ap 0.0003976
  LUNO+2 :    7App 0.0001978
  LUNO+3 :   14 Ap 0.0001975

Computation Completed

Properties will be evaluated at   0.000000,   0.000000,   0.000000 [a0]

Properties computed using the SCF density matrix

  Nuclear Dipole Moment: [e a0]
     X:     0.8257      Y:    -0.0003      Z:     0.0000

  Electronic Dipole Moment: [e a0]
     X:    -0.7470      Y:     0.0010      Z:     0.0000

  Dipole Moment: [e a0]
     X:     0.0787      Y:     0.0008      Z:     0.0000     Total:     0.0787

  Dipole Moment: [D]
     X:     0.2000      Y:     0.0019      Z:     0.0000     Total:     0.2000

*** tstop() called on n082 at Fri Nov  5 11:38:07 2021
Module time:
	user time   =     492.96 seconds =       8.22 minutes
	system time =       4.52 seconds =       0.08 minutes
	total time  =        125 seconds =       2.08 minutes
Total time:
	user time   =     492.96 seconds =       8.22 minutes
	system time =       4.52 seconds =       0.08 minutes
	total time  =        125 seconds =       2.08 minutes
Grab this energy -157.81305857790537
    Psi4 stopped on: Friday, 05 November 2021 11:38AM
    Psi4 wall time for execution: 0:02:05.10

*** Psi4 exiting successfully. Buy a developer a beer!
