                               Psi4 1.4a2.dev629

  ==> Input File <==

--------------------------------------------------------------------------
import os
memory 14 GB

molecule {
 C   -0.3218880976   -0.0000032334   -0.0053448714
 C    0.0601582003   -1.4004681962   -2.4267834147
 C    0.0601639372    2.8018494898   -0.0011061721
 C    0.0604101993   -1.4013763294    2.4261439895
 H    2.0871951910   -1.6442453187   -2.8467045592
 H   -0.7656146455   -0.3876228787   -4.0245043408
 H   -0.7649384946   -3.2925119318   -2.3483576542
 H    2.0868472881    3.2880556364    0.0009961899
 H   -0.7646444574    3.6811056065    1.6772922267
 H   -0.7663259454    3.6793934150   -1.6758212467
 H    2.0867797321   -1.6439029991    2.8481040051
 H   -0.7658780548   -3.2915796343    2.3495663366
 H   -0.7648727295   -0.3887179397    4.0265195112
units bohr
0 2
}

basis {

assign 6-31g_2dfp_

[ 6-31g_2dfp_ ]

spherical

!----------------------------------------------------------------------
! Basis Set Exchange
! Version v0.8.13
! https://www.basissetexchange.org
!----------------------------------------------------------------------
!   Basis set: 6-31G(2df,p)
! Description: 6-31G(2df,p)
!        Role: orbital
!     Version: 0  (Data from the original Basis Set Exchange)
!----------------------------------------------------------------------

****
H     0
S    3   1.00
     18.7311370              0.03349460
      2.8253937              0.23472695
      0.6401217              0.81375733
S    1   1.00
      0.1612778              1.00000000
P    1   1.00
      1.5000000              1.0000000
P    1   1.00
      0.3750000              1.0000000
****
B     0
S    6   1.00
   2068.8823000              0.0018663
    310.6495700              0.0142515
     70.6830330              0.0695516
     19.8610800              0.2325729
      6.2993048              0.4670787
      2.1270270              0.3634314
SP   3   1.00
      4.7279710             -0.1303938              0.0745976
      1.1903377             -0.1307889              0.3078467
      0.3594117              1.1309444              0.7434568
SP   1   1.00
      0.1267512              1.0000000              1.0000000
D    1   1.00
      0.8020000              1.0000000
D    1   1.00
      0.2005000              1.0000000
F    1   1.00
      0.5000000              1.0000000
****
C     0
S    6   1.00
   3047.5249000              0.0018347
    457.3695100              0.0140373
    103.9486900              0.0688426
     29.2101550              0.2321844
      9.2866630              0.4679413
      3.1639270              0.3623120
SP   3   1.00
      7.8682724             -0.1193324              0.0689991
      1.8812885             -0.1608542              0.3164240
      0.5442493              1.1434564              0.7443083
SP   1   1.00
      0.1687144              1.0000000              1.0000000
D    1   1.00
      1.2520000              1.0000000
D    1   1.00
      0.3130000              1.0000000
F    1   1.00
      0.8000000              1.0000000
****
N     0
S    6   1.00
   4173.5110000              0.0018348
    627.4579000              0.0139950
    142.9021000              0.0685870
     40.2343300              0.2322410
     12.8202100              0.4690700
      4.3904370              0.3604550
SP   3   1.00
     11.6263580             -0.1149610              0.0675800
      2.7162800             -0.1691180              0.3239070
      0.7722180              1.1458520              0.7408950
SP   1   1.00
      0.2120313              1.0000000              1.0000000
D    1   1.00
      1.8260000              1.0000000
D    1   1.00
      0.4565000              1.0000000
F    1   1.00
      1.0000000              1.0000000
****
O     0
S    6   1.00
   5484.6717000              0.0018311
    825.2349500              0.0139501
    188.0469600              0.0684451
     52.9645000              0.2327143
     16.8975700              0.4701930
      5.7996353              0.3585209
SP   3   1.00
     15.5396160             -0.1107775              0.0708743
      3.5999336             -0.1480263              0.3397528
      1.0137618              1.1307670              0.7271586
SP   1   1.00
      0.2700058              1.0000000              1.0000000
D    1   1.00
      2.5840000              1.0000000
D    1   1.00
      0.6460000              1.0000000
F    1   1.00
      1.4000000              1.0000000
****
F     0
S    6   1.00
   7001.7130900              0.0018196169
   1051.3660900              0.0139160796
    239.2856900              0.0684053245
     67.3974453              0.233185760
     21.5199573              0.471267439
      7.40310130             0.356618546
SP   3   1.00
     20.8479528             -0.108506975            0.0716287243
      4.80830834            -0.146451658            0.3459121030
      1.34406986             1.128688580            0.7224699570
SP   1   1.00
      0.358151393            1.0000000              1.0000000
D    1   1.00
      3.5000000              1.0000000
D    1   1.00
      0.8750000              1.0000000
F    1   1.00
      1.8500000              1.0000000
****
Al     0
S    6   1.00
  13983.1000000              0.00194267
   2098.7500000              0.0148599
    477.7050000              0.0728494
    134.3600000              0.2468300
     42.8709000              0.4872580
     14.5189000              0.3234960
SP   6   1.00
    239.6680000             -0.00292619             0.00460285
     57.4419000             -0.0374080              0.0331990
     18.2859000             -0.1144870              0.1362820
      6.5991400              0.1156350              0.3304760
      2.4904900              0.6125950              0.4491460
      0.9445400              0.3937990              0.2657040
SP   3   1.00
      1.2779000             -0.2276060             -0.0175130
      0.3975900              0.00144583             0.2445330
      0.1600950              1.0927900              0.8049340
SP   1   1.00
      0.0556577              1.0000000              1.0000000
D    1   1.00
      0.6500000              1.0000000
D    1   1.00
      0.1625000              1.0000000
F    1   1.00
      0.2500000              1.0000000
****
Si     0
S    6   1.00
  16115.9000000              0.00195948
   2425.5800000              0.01492880
    553.8670000              0.07284780
    156.3400000              0.24613000
     50.0683000              0.48591400
     17.0178000              0.32500200
SP   6   1.00
    292.7180000             -0.00278094             0.00443826
     69.8731000             -0.03571460             0.03266790
     22.3363000             -0.11498500             0.13472100
      8.1503900              0.09356340             0.32867800
      3.1345800              0.60301700             0.44964000
      1.2254300              0.41895900             0.26137200
SP   3   1.00
      1.7273800             -0.24463000            -0.01779510
      0.5729220              0.00431572             0.25353900
      0.2221920              1.09818000             0.80066900
SP   1   1.00
      0.0778369              1.00000000             1.00000000
D    1   1.00
      0.9000000              1.0000000
D    1   1.00
      0.2250000              1.0000000
F    1   1.00
      0.3200000              1.0000000
****
P     0
S    6   1.00
  19413.3000000              0.0018516
   2909.4200000              0.0142062
    661.3640000              0.0699995
    185.7590000              0.2400790
     59.1943000              0.4847620
     20.0310000              0.3352000
SP   6   1.00
    339.4780000             -0.00278217             0.00456462
     81.0101000             -0.0360499              0.03369360
     25.8780000             -0.1166310              0.13975500
      9.4522100              0.0968328              0.33936200
      3.6656600              0.6144180              0.45092100
      1.4674600              0.4037980              0.23858600
SP   3   1.00
      2.1562300             -0.2529230             -0.01776530
      0.7489970              0.0328517              0.27405800
      0.2831450              1.0812500              0.78542100
SP   1   1.00
      0.0998317              1.0000000              1.00000000
D    1   1.00
      1.1000000              1.0000000
D    1   1.00
      0.2750000              1.0000000
F    1   1.00
      0.4500000              1.0000000
****
S     0
S    6   1.00
  21917.1000000              0.0018690
   3301.4900000              0.0142300
    754.1460000              0.0696960
    212.7110000              0.2384870
     67.9896000              0.4833070
     23.0515000              0.3380740
SP   6   1.00
    423.7350000             -0.0023767              0.0040610
    100.7100000             -0.0316930              0.0306810
     32.1599000             -0.1133170              0.1304520
     11.8079000              0.0560900              0.3272050
      4.6311000              0.5922550              0.4528510
      1.8702500              0.4550060              0.2560420
SP   3   1.00
      2.6158400             -0.2503740             -0.0145110
      0.9221670              0.0669570              0.3102630
      0.3412870              1.0545100              0.7544830
SP   1   1.00
      0.1171670              1.0000000              1.0000000
D    1   1.00
      1.3000000              1.0000000
D    1   1.00
      0.3250000              1.0000000
F    1   1.00
      0.5500000              1.0000000
****
Cl     0
S    6   1.00
  25180.1000000              0.0018330
   3780.3500000              0.0140340
    860.4740000              0.0690970
    242.1450000              0.2374520
     77.3349000              0.4830340
     26.2470000              0.3398560
SP   6   1.00
    491.7650000             -0.0022974              0.0039894
    116.9840000             -0.0307140              0.0303180
     37.4153000             -0.1125280              0.1298800
     13.7834000              0.0450160              0.3279510
      5.4521500              0.5893530              0.4535270
      2.2258800              0.4652060              0.2521540
SP   3   1.00
      3.1864900             -0.2518300             -0.0142990
      1.1442700              0.0615890              0.3235720
      0.4203770              1.0601800              0.7435070
SP   1   1.00
      0.1426570              1.0000000              1.0000000
D    1   1.00
      1.5000000              1.0000000
D    1   1.00
      0.3750000              1.0000000
F    1   1.00
      0.7000000              1.0000000
****
}

set {
reference uhf
freeze_core true
e_convergence 10
d_convergence 10
dft_spherical_points 1202
dft_radial_points 99
}

e = energy('b3lyp')

print_out('Grab this energy {0}'.format(e))
--------------------------------------------------------------------------

    Molecular point group: c1

    Geometry (in Bohr), charge = 0, multiplicity = 2:

       Center              X                  Y                   Z               Mass
    ------------   -----------------  -----------------  -----------------  -----------------
         C           -0.321673191113    -0.000003137403    -0.003979196057    12.000000000000
         C            0.060373106787    -1.400468100203    -2.425417739357    12.000000000000
         C            0.060378843687     2.801849585797     0.000259503243    12.000000000000
         C            0.060625105787    -1.401376233403     2.427509664843    12.000000000000
         H            2.087410097487    -1.644245222703    -2.845338883857     1.007825032230
         H           -0.765399739013    -0.387622782703    -4.023138665457     1.007825032230
         H           -0.764723588113    -3.292511835803    -2.346991978857     1.007825032230
         H            2.087062194587     3.288055732397     0.002361865243     1.007825032230
         H           -0.764429550913     3.681105702497     1.678657902043     1.007825032230
         H           -0.766111038913     3.679393510997    -1.674455571357     1.007825032230
         H            2.086994638587    -1.643902903103     2.849469680443     1.007825032230
         H           -0.765663148313    -3.291579538303     2.350932011943     1.007825032230
         H           -0.764657823013    -0.388717843703     4.027885186543     1.007825032230

  Charge       = 0
  Multiplicity = 2
  Basis Set: ANONYMOUSFC0D20E4
    Blend: 6-31G_2DFP_
  Basis Set: (ANONYMOUSFC0D20E4 AUX)
    Blend: DEF2-UNIVERSAL-JKFIT

    Orbital Energies [Eh]
    ---------------------

    Alpha Occupied:

       1A    -10.180276     2A    -10.167060     3A    -10.167028
       4A    -10.166982     5A     -0.797784     6A     -0.686393
       7A     -0.686015     8A     -0.530770     9A     -0.441074
      10A     -0.434946    11A     -0.434518    12A     -0.382609
      13A     -0.382378    14A     -0.363735    15A     -0.338610
      16A     -0.337569    17A     -0.168777

    Alpha Virtual:

      18A      0.076069    19A      0.134145    20A      0.134174
      21A      0.142475    22A      0.142826    23A      0.154800
      24A      0.178703    25A      0.178717    26A      0.203517
      27A      0.214851    28A      0.275870    29A      0.276445
      30A      0.399125    31A      0.399373    32A      0.403424
      33A      0.424124    34A      0.424126    35A      0.456499
      36A      0.495367    37A      0.495462    38A      0.512115
      39A      0.514076    40A      0.578494    41A      0.578878
      42A      0.591615    43A      0.591616    44A      0.602355
      45A      0.624833    46A      0.631835    47A      0.636260
      48A      0.636564    49A      0.663187    50A      0.663320
      51A      0.683912    52A      0.684012    53A      0.735190
      54A      0.825354    55A      0.825570    56A      0.853914
      57A      0.914972    58A      0.915200    59A      0.944079
      60A      0.944571    61A      0.961099    62A      0.961452
      63A      1.003453    64A      1.127749    65A      1.128241
      66A      1.142247    67A      1.162449    68A      1.163224
      69A      1.223491    70A      1.274087    71A      1.275025
      72A      1.279109    73A      1.324513    74A      1.324701
      75A      1.355757    76A      1.366163    77A      1.366701
      78A      1.392436    79A      1.403945    80A      1.404056
      81A      1.416556    82A      1.417193    83A      1.427873
      84A      1.491674    85A      1.498686    86A      1.542782
      87A      1.542787    88A      1.574708    89A      1.574752
      90A      1.670091    91A      1.739461    92A      1.739864
      93A      1.768256    94A      1.831515    95A      1.832044
      96A      1.971993    97A      2.018169    98A      2.019262
      99A      2.019378   100A      2.051724   101A      2.052786
     102A      2.738440   103A      2.738921   104A      2.790726
     105A      2.811455   106A      2.889642   107A      2.890759
     108A      2.894626   109A      2.929083   110A      2.929869
     111A      2.959059   112A      2.964335   113A      2.964642
     114A      3.033647   115A      3.071627   116A      3.072639
     117A      3.084422   118A      3.168565   119A      3.168708
     120A      3.180690   121A      3.284213   122A      3.284813
     123A      3.326417   124A      3.327189   125A      3.375436
     126A      3.489852   127A      3.490902   128A      3.514206
     129A      3.524874   130A      3.568440   131A      3.568917
     132A      3.574528   133A      3.666651   134A      3.667262
     135A      3.679881   136A      3.694015   137A      3.694078
     138A      3.776343   139A      3.777808   140A      3.790433
     141A      3.911783   142A      3.912715   143A      4.034746
     144A      4.111283   145A      4.111928   146A      4.147172
     147A      4.149128   148A      4.173298   149A      4.202127
     150A      4.202867   151A      4.203610   152A      4.210819
     153A      4.315210   154A      4.316328   155A      4.358498
     156A      4.424537   157A      4.424670   158A      4.443698
     159A      4.516409   160A      4.516677   161A      4.577802
     162A      4.578223   163A      4.618326   164A      4.709138
     165A      4.774201   166A      4.775315   167A      4.838085
     168A      4.962726   169A      5.002568   170A      5.003090
     171A      5.228151   172A      5.246894   173A      5.246955
     174A      5.355220   175A      5.356342   176A      5.479714

    Beta Occupied:

       1A    -10.167814     2A    -10.167787     3A    -10.167754
       4A    -10.166458     5A     -0.781105     6A     -0.684186
       7A     -0.683832     8A     -0.511750     9A     -0.431328
      10A     -0.430907    11A     -0.421730    12A     -0.376643
      13A     -0.376494    14A     -0.362719    15A     -0.333739
      16A     -0.332679

    Beta Virtual:

      17A     -0.025642    18A      0.077082    19A      0.135057
      20A      0.135062    21A      0.144353    22A      0.144684
      23A      0.163270    24A      0.182361    25A      0.182399
      26A      0.215080    27A      0.218922    28A      0.282241
      29A      0.282745    30A      0.400298    31A      0.400540
      32A      0.419898    33A      0.426922    34A      0.426946
      35A      0.468393    36A      0.497620    37A      0.497720
      38A      0.513855    39A      0.556420    40A      0.584036
      41A      0.584467    42A      0.597778    43A      0.597797
      44A      0.609805    45A      0.628184    46A      0.631989
      47A      0.639528    48A      0.639859    49A      0.666755
      50A      0.666876    51A      0.686552    52A      0.686654
      53A      0.757692    54A      0.830523    55A      0.830730
      56A      0.855272    57A      0.922906    58A      0.923187
      59A      0.945919    60A      0.953505    61A      0.966431
      62A      0.966799    63A      1.008674    64A      1.131804
      65A      1.132246    66A      1.155639    67A      1.167530
      68A      1.168293    69A      1.232467    70A      1.279722
      71A      1.280555    72A      1.284854    73A      1.329506
      74A      1.329670    75A      1.365198    76A      1.371461
      77A      1.371900    78A      1.393501    79A      1.407357
      80A      1.407575    81A      1.421635    82A      1.422255
      83A      1.428140    84A      1.492724    85A      1.509123
      86A      1.547188    87A      1.547199    88A      1.582595
      89A      1.582606    90A      1.674922    91A      1.745220
      92A      1.745632    93A      1.779057    94A      1.835364
      95A      1.835922    96A      1.972854    97A      2.024594
      98A      2.025719    99A      2.040674   100A      2.058433
     101A      2.059471   102A      2.746745   103A      2.747287
     104A      2.811859   105A      2.815881   106A      2.902374
     107A      2.903312   108A      2.924350   109A      2.931522
     110A      2.932419   111A      2.960123   112A      2.968871
     113A      2.969173   114A      3.041623   115A      3.081575
     116A      3.082430   117A      3.086242   118A      3.184338
     119A      3.184524   120A      3.188436   121A      3.289091
     122A      3.289610   123A      3.330211   124A      3.330987
     125A      3.383246   126A      3.492553   127A      3.493620
     128A      3.512570   129A      3.527911   130A      3.574376
     131A      3.581788   132A      3.582176   133A      3.671492
     134A      3.671946   135A      3.693179   136A      3.725520
     137A      3.725827   138A      3.780847   139A      3.782298
     140A      3.818957   141A      3.921641   142A      3.922571
     143A      4.045605   144A      4.118160   145A      4.118714
     146A      4.154391   147A      4.156298   148A      4.187397
     149A      4.208243   150A      4.209048   151A      4.211139
     152A      4.215319   153A      4.322567   154A      4.323811
     155A      4.361861   156A      4.432796   157A      4.432920
     158A      4.446583   159A      4.524170   160A      4.524533
     161A      4.588351   162A      4.588785   163A      4.625548
     164A      4.719460   165A      4.781104   166A      4.782290
     167A      4.840990   168A      4.967521   169A      5.006637
     170A      5.007130   171A      5.233865   172A      5.248683
     173A      5.248734   174A      5.361666   175A      5.362840
     176A      5.482028

    Final Occupation by Irrep:
              A
    DOCC [    16 ]
    SOCC [     1 ]

  @DF-UKS Final Energy:  -157.81307276790557

   => Energetics <=

    Nuclear Repulsion Energy =            125.3971050460238388
    One-Electron Energy =                -458.7536940388392850
    Two-Electron Energy =                 195.8507302183570573
    DFT Exchange-Correlation Energy =     -20.3072139934472062
    Empirical Dispersion Energy =           0.0000000000000000
    VV10 Nonlocal Energy =                  0.0000000000000000
    Total Energy =                       -157.8130727679055667

  UHF NO Occupations:
  HONO-2 :   15  A 1.9995994
  HONO-1 :   16  A 1.9989790
  HONO-0 :   17  A 1.0000000
  LUNO+0 :   18  A 0.0010210
  LUNO+1 :   19  A 0.0004006
  LUNO+2 :   20  A 0.0001985
  LUNO+3 :   21  A 0.0001964

Computation Completed

Properties will be evaluated at   0.000000,   0.000000,   0.000000 [a0]

Properties computed using the SCF density matrix

  Nuclear Dipole Moment: [e a0]
     X:     0.8287      Y:    -0.0000      Z:     0.0096

  Electronic Dipole Moment: [e a0]
     X:    -0.7516      Y:     0.0000      Z:    -0.0108

  Dipole Moment: [e a0]
     X:     0.0771      Y:     0.0000      Z:    -0.0012     Total:     0.0771

  Dipole Moment: [D]
     X:     0.1961      Y:     0.0000      Z:    -0.0031     Total:     0.1961

*** tstop() called on n091 at Fri Nov  5 11:33:23 2021
Module time:
	user time   =     495.96 seconds =       8.27 minutes
	system time =       4.53 seconds =       0.08 minutes
	total time  =        126 seconds =       2.10 minutes
Total time:
	user time   =     495.96 seconds =       8.27 minutes
	system time =       4.53 seconds =       0.08 minutes
	total time  =        126 seconds =       2.10 minutes
Grab this energy -157.81307276790557
    Psi4 stopped on: Friday, 05 November 2021 11:33AM
    Psi4 wall time for execution: 0:02:05.84

*** Psi4 exiting successfully. Buy a developer a beer!
