                               Psi4 1.4a2.dev629

  ==> Input File <==

--------------------------------------------------------------------------
import os
memory 14 GB

molecule {
 C   -0.3233395463    0.0010191818    0.0002244517
 C    0.0609100070   -1.4035209284   -2.4273504663
 C    0.0617686276    2.8013656654    0.0004824946
 C    0.0606207595   -1.4011348115    2.4241896191
 H    2.0870447789   -1.6431722930   -2.8472354095
 H   -0.7652507614   -0.3874657334   -4.0251103307
 H   -0.7657311440   -3.2916433831   -2.3485893061
 H    2.0867172928    3.2881990829   -0.0001850686
 H   -0.7659207466    3.6803438721    1.6763130544
 H   -0.7657985858    3.6803209989   -1.6764988865
 H    2.0869056542   -1.6439254641    2.8481694218
 H   -0.7654460983   -3.2920534948    2.3496518847
 H   -0.7650881143   -0.3883570063    4.0259385414
units bohr
0 2
}

basis {

assign 6-31g_2dfp_

[ 6-31g_2dfp_ ]

spherical

!----------------------------------------------------------------------
! Basis Set Exchange
! Version v0.8.13
! https://www.basissetexchange.org
!----------------------------------------------------------------------
!   Basis set: 6-31G(2df,p)
! Description: 6-31G(2df,p)
!        Role: orbital
!     Version: 0  (Data from the original Basis Set Exchange)
!----------------------------------------------------------------------

****
H     0
S    3   1.00
     18.7311370              0.03349460
      2.8253937              0.23472695
      0.6401217              0.81375733
S    1   1.00
      0.1612778              1.00000000
P    1   1.00
      1.5000000              1.0000000
P    1   1.00
      0.3750000              1.0000000
****
B     0
S    6   1.00
   2068.8823000              0.0018663
    310.6495700              0.0142515
     70.6830330              0.0695516
     19.8610800              0.2325729
      6.2993048              0.4670787
      2.1270270              0.3634314
SP   3   1.00
      4.7279710             -0.1303938              0.0745976
      1.1903377             -0.1307889              0.3078467
      0.3594117              1.1309444              0.7434568
SP   1   1.00
      0.1267512              1.0000000              1.0000000
D    1   1.00
      0.8020000              1.0000000
D    1   1.00
      0.2005000              1.0000000
F    1   1.00
      0.5000000              1.0000000
****
C     0
S    6   1.00
   3047.5249000              0.0018347
    457.3695100              0.0140373
    103.9486900              0.0688426
     29.2101550              0.2321844
      9.2866630              0.4679413
      3.1639270              0.3623120
SP   3   1.00
      7.8682724             -0.1193324              0.0689991
      1.8812885             -0.1608542              0.3164240
      0.5442493              1.1434564              0.7443083
SP   1   1.00
      0.1687144              1.0000000              1.0000000
D    1   1.00
      1.2520000              1.0000000
D    1   1.00
      0.3130000              1.0000000
F    1   1.00
      0.8000000              1.0000000
****
N     0
S    6   1.00
   4173.5110000              0.0018348
    627.4579000              0.0139950
    142.9021000              0.0685870
     40.2343300              0.2322410
     12.8202100              0.4690700
      4.3904370              0.3604550
SP   3   1.00
     11.6263580             -0.1149610              0.0675800
      2.7162800             -0.1691180              0.3239070
      0.7722180              1.1458520              0.7408950
SP   1   1.00
      0.2120313              1.0000000              1.0000000
D    1   1.00
      1.8260000              1.0000000
D    1   1.00
      0.4565000              1.0000000
F    1   1.00
      1.0000000              1.0000000
****
O     0
S    6   1.00
   5484.6717000              0.0018311
    825.2349500              0.0139501
    188.0469600              0.0684451
     52.9645000              0.2327143
     16.8975700              0.4701930
      5.7996353              0.3585209
SP   3   1.00
     15.5396160             -0.1107775              0.0708743
      3.5999336             -0.1480263              0.3397528
      1.0137618              1.1307670              0.7271586
SP   1   1.00
      0.2700058              1.0000000              1.0000000
D    1   1.00
      2.5840000              1.0000000
D    1   1.00
      0.6460000              1.0000000
F    1   1.00
      1.4000000              1.0000000
****
F     0
S    6   1.00
   7001.7130900              0.0018196169
   1051.3660900              0.0139160796
    239.2856900              0.0684053245
     67.3974453              0.233185760
     21.5199573              0.471267439
      7.40310130             0.356618546
SP   3   1.00
     20.8479528             -0.108506975            0.0716287243
      4.80830834            -0.146451658            0.3459121030
      1.34406986             1.128688580            0.7224699570
SP   1   1.00
      0.358151393            1.0000000              1.0000000
D    1   1.00
      3.5000000              1.0000000
D    1   1.00
      0.8750000              1.0000000
F    1   1.00
      1.8500000              1.0000000
****
Al     0
S    6   1.00
  13983.1000000              0.00194267
   2098.7500000              0.0148599
    477.7050000              0.0728494
    134.3600000              0.2468300
     42.8709000              0.4872580
     14.5189000              0.3234960
SP   6   1.00
    239.6680000             -0.00292619             0.00460285
     57.4419000             -0.0374080              0.0331990
     18.2859000             -0.1144870              0.1362820
      6.5991400              0.1156350              0.3304760
      2.4904900              0.6125950              0.4491460
      0.9445400              0.3937990              0.2657040
SP   3   1.00
      1.2779000             -0.2276060             -0.0175130
      0.3975900              0.00144583             0.2445330
      0.1600950              1.0927900              0.8049340
SP   1   1.00
      0.0556577              1.0000000              1.0000000
D    1   1.00
      0.6500000              1.0000000
D    1   1.00
      0.1625000              1.0000000
F    1   1.00
      0.2500000              1.0000000
****
Si     0
S    6   1.00
  16115.9000000              0.00195948
   2425.5800000              0.01492880
    553.8670000              0.07284780
    156.3400000              0.24613000
     50.0683000              0.48591400
     17.0178000              0.32500200
SP   6   1.00
    292.7180000             -0.00278094             0.00443826
     69.8731000             -0.03571460             0.03266790
     22.3363000             -0.11498500             0.13472100
      8.1503900              0.09356340             0.32867800
      3.1345800              0.60301700             0.44964000
      1.2254300              0.41895900             0.26137200
SP   3   1.00
      1.7273800             -0.24463000            -0.01779510
      0.5729220              0.00431572             0.25353900
      0.2221920              1.09818000             0.80066900
SP   1   1.00
      0.0778369              1.00000000             1.00000000
D    1   1.00
      0.9000000              1.0000000
D    1   1.00
      0.2250000              1.0000000
F    1   1.00
      0.3200000              1.0000000
****
P     0
S    6   1.00
  19413.3000000              0.0018516
   2909.4200000              0.0142062
    661.3640000              0.0699995
    185.7590000              0.2400790
     59.1943000              0.4847620
     20.0310000              0.3352000
SP   6   1.00
    339.4780000             -0.00278217             0.00456462
     81.0101000             -0.0360499              0.03369360
     25.8780000             -0.1166310              0.13975500
      9.4522100              0.0968328              0.33936200
      3.6656600              0.6144180              0.45092100
      1.4674600              0.4037980              0.23858600
SP   3   1.00
      2.1562300             -0.2529230             -0.01776530
      0.7489970              0.0328517              0.27405800
      0.2831450              1.0812500              0.78542100
SP   1   1.00
      0.0998317              1.0000000              1.00000000
D    1   1.00
      1.1000000              1.0000000
D    1   1.00
      0.2750000              1.0000000
F    1   1.00
      0.4500000              1.0000000
****
S     0
S    6   1.00
  21917.1000000              0.0018690
   3301.4900000              0.0142300
    754.1460000              0.0696960
    212.7110000              0.2384870
     67.9896000              0.4833070
     23.0515000              0.3380740
SP   6   1.00
    423.7350000             -0.0023767              0.0040610
    100.7100000             -0.0316930              0.0306810
     32.1599000             -0.1133170              0.1304520
     11.8079000              0.0560900              0.3272050
      4.6311000              0.5922550              0.4528510
      1.8702500              0.4550060              0.2560420
SP   3   1.00
      2.6158400             -0.2503740             -0.0145110
      0.9221670              0.0669570              0.3102630
      0.3412870              1.0545100              0.7544830
SP   1   1.00
      0.1171670              1.0000000              1.0000000
D    1   1.00
      1.3000000              1.0000000
D    1   1.00
      0.3250000              1.0000000
F    1   1.00
      0.5500000              1.0000000
****
Cl     0
S    6   1.00
  25180.1000000              0.0018330
   3780.3500000              0.0140340
    860.4740000              0.0690970
    242.1450000              0.2374520
     77.3349000              0.4830340
     26.2470000              0.3398560
SP   6   1.00
    491.7650000             -0.0022974              0.0039894
    116.9840000             -0.0307140              0.0303180
     37.4153000             -0.1125280              0.1298800
     13.7834000              0.0450160              0.3279510
      5.4521500              0.5893530              0.4535270
      2.2258800              0.4652060              0.2521540
SP   3   1.00
      3.1864900             -0.2518300             -0.0142990
      1.1442700              0.0615890              0.3235720
      0.4203770              1.0601800              0.7435070
SP   1   1.00
      0.1426570              1.0000000              1.0000000
D    1   1.00
      1.5000000              1.0000000
D    1   1.00
      0.3750000              1.0000000
F    1   1.00
      0.7000000              1.0000000
****
}

set {
reference uhf
freeze_core true
e_convergence 10
d_convergence 10
dft_spherical_points 1202
dft_radial_points 99
}

e = energy('b3lyp')

print_out('Grab this energy {0}'.format(e))
--------------------------------------------------------------------------

    Molecular point group: c1

    Geometry (in Bohr), charge = 0, multiplicity = 2:

       Center              X                  Y                   Z               Mass
    ------------   -----------------  -----------------  -----------------  -----------------
         C           -0.323339514066     0.001457001450     0.000697090688    12.000000000000
         C            0.060910039234    -1.403083108750    -2.426877827312    12.000000000000
         C            0.061768659834     2.801803485050     0.000955133588    12.000000000000
         C            0.060620791734    -1.400696991850     2.424662258088    12.000000000000
         H            2.087044811134    -1.642734473350    -2.846762770512     1.007825032230
         H           -0.765250729166    -0.387027913750    -4.024637691712     1.007825032230
         H           -0.765731111766    -3.291205563450    -2.348116667112     1.007825032230
         H            2.086717325034     3.288636902550     0.000287570388     1.007825032230
         H           -0.765920714366     3.680781691750     1.676785693388     1.007825032230
         H           -0.765798553566     3.680758818550    -1.676026247512     1.007825032230
         H            2.086905686434    -1.643487644450     2.848642060788     1.007825032230
         H           -0.765446066066    -3.291615675150     2.350124523688     1.007825032230
         H           -0.765088082066    -0.387919186650     4.026411180388     1.007825032230

  Charge       = 0
  Multiplicity = 2
  Basis Set: ANONYMOUSCFFE6675
    Blend: 6-31G_2DFP_
  Basis Set: (ANONYMOUSCFFE6675 AUX)
    Blend: DEF2-UNIVERSAL-JKFIT

    Orbital Energies [Eh]
    ---------------------

    Alpha Occupied:

       1A    -10.180342     2A    -10.167057     3A    -10.167031
       4A    -10.166957     5A     -0.797766     6A     -0.686270
       7A     -0.686104     8A     -0.530776     9A     -0.441125
      10A     -0.434753    11A     -0.434588    12A     -0.382698
      13A     -0.382501    14A     -0.363610    15A     -0.338358
      16A     -0.337639    17A     -0.168961

    Alpha Virtual:

      18A      0.076072    19A      0.134113    20A      0.134197
      21A      0.142539    22A      0.142719    23A      0.154880
      24A      0.178682    25A      0.178874    26A      0.203545
      27A      0.214803    28A      0.275728    29A      0.276244
      30A      0.399120    31A      0.399336    32A      0.403345
      33A      0.424053    34A      0.424142    35A      0.456593
      36A      0.495348    37A      0.495431    38A      0.512160
      39A      0.513980    40A      0.578761    41A      0.578870
      42A      0.591571    43A      0.591699    44A      0.602573
      45A      0.624760    46A      0.631766    47A      0.636081
      48A      0.636424    49A      0.663303    50A      0.663520
      51A      0.683829    52A      0.683877    53A      0.734994
      54A      0.825353    55A      0.825462    56A      0.853916
      57A      0.914923    58A      0.915130    59A      0.944126
      60A      0.944612    61A      0.961214    62A      0.961370
      63A      1.003452    64A      1.128033    65A      1.128183
      66A      1.142218    67A      1.162978    68A      1.163565
      69A      1.223324    70A      1.274121    71A      1.274844
      72A      1.279372    73A      1.324272    74A      1.324445
      75A      1.355991    76A      1.365777    77A      1.366336
      78A      1.392430    79A      1.403754    80A      1.404354
      81A      1.416808    82A      1.417413    83A      1.427929
      84A      1.491491    85A      1.499081    86A      1.542641
      87A      1.543015    88A      1.574074    89A      1.574821
      90A      1.669812    91A      1.739252    92A      1.739579
      93A      1.768334    94A      1.830888    95A      1.831914
      96A      1.971725    97A      2.017951    98A      2.018706
      99A      2.019735   100A      2.051736   101A      2.053553
     102A      2.738354   103A      2.738617   104A      2.790923
     105A      2.811427   106A      2.889275   107A      2.890627
     108A      2.894945   109A      2.929322   110A      2.929671
     111A      2.958992   112A      2.964068   113A      2.964690
     114A      3.034009   115A      3.071089   116A      3.071480
     117A      3.084351   118A      3.168520   119A      3.169002
     120A      3.180625   121A      3.285096   122A      3.285532
     123A      3.326964   124A      3.327352   125A      3.375617
     126A      3.489816   127A      3.490489   128A      3.514017
     129A      3.525329   130A      3.568267   131A      3.568515
     132A      3.575146   133A      3.665678   134A      3.667034
     135A      3.679704   136A      3.694003   137A      3.694255
     138A      3.776620   139A      3.776985   140A      3.789119
     141A      3.911394   142A      3.913052   143A      4.034457
     144A      4.111100   145A      4.111646   146A      4.147769
     147A      4.148476   148A      4.173252   149A      4.202232
     150A      4.203062   151A      4.203508   152A      4.210859
     153A      4.314889   154A      4.317009   155A      4.358974
     156A      4.423336   157A      4.425445   158A      4.443562
     159A      4.516157   160A      4.517524   161A      4.577974
     162A      4.578568   163A      4.617534   164A      4.709458
     165A      4.774219   166A      4.774932   167A      4.836928
     168A      4.962828   169A      5.002203   170A      5.003735
     171A      5.228031   172A      5.246498   173A      5.247138
     174A      5.355437   175A      5.355570   176A      5.479350

    Beta Occupied:

       1A    -10.167812     2A    -10.167794     3A    -10.167718
       4A    -10.166519     5A     -0.781091     6A     -0.684072
       7A     -0.683907     8A     -0.511748     9A     -0.431128
      10A     -0.430957    11A     -0.421821    12A     -0.376804
      13A     -0.376565    14A     -0.362594    15A     -0.333481
      16A     -0.332762

    Beta Virtual:

      17A     -0.025743    18A      0.077081    19A      0.134995
      20A      0.135094    21A      0.144434    22A      0.144564
      23A      0.163339    24A      0.182370    25A      0.182529
      26A      0.215032    27A      0.218927    28A      0.282091
      29A      0.282577    30A      0.400290    31A      0.400505
      32A      0.419789    33A      0.426864    34A      0.426955
      35A      0.468501    36A      0.497606    37A      0.497694
      38A      0.513895    39A      0.556325    40A      0.584307
      41A      0.584424    42A      0.597747    43A      0.597882
      44A      0.609997    45A      0.628135    46A      0.631927
      47A      0.639373    48A      0.639701    49A      0.666861
      50A      0.667090    51A      0.686472    52A      0.686504
      53A      0.757517    54A      0.830516    55A      0.830636
      56A      0.855269    57A      0.922894    58A      0.923101
      59A      0.945963    60A      0.953541    61A      0.966531
      62A      0.966665    63A      1.008692    64A      1.132068
      65A      1.132209    66A      1.155582    67A      1.168033
      68A      1.168666    69A      1.232297    70A      1.279699
      71A      1.280458    72A      1.285127    73A      1.329263
      74A      1.329433    75A      1.365408    76A      1.371011
      77A      1.371588    78A      1.393491    79A      1.407239
      80A      1.407798    81A      1.421880    82A      1.422432
      83A      1.428207    84A      1.492539    85A      1.509524
      86A      1.547035    87A      1.547436    88A      1.581951
      89A      1.582688    90A      1.674660    91A      1.745011
      92A      1.745344    93A      1.779112    94A      1.834753
      95A      1.835759    96A      1.972585    97A      2.024767
      98A      2.026132    99A      2.039664   100A      2.058440
     101A      2.060286   102A      2.746713   103A      2.746929
     104A      2.811839   105A      2.816059   106A      2.901984
     107A      2.903299   108A      2.924643   109A      2.931778
     110A      2.932183   111A      2.960056   112A      2.968619
     113A      2.969225   114A      3.041944   115A      3.080998
     116A      3.081388   117A      3.086172   118A      3.184184
     119A      3.184767   120A      3.188379   121A      3.289925
     122A      3.290300   123A      3.330773   124A      3.331152
     125A      3.383436   126A      3.492520   127A      3.493244
     128A      3.512383   129A      3.528375   130A      3.574989
     131A      3.581633   132A      3.581846   133A      3.670367
     134A      3.671863   135A      3.692986   136A      3.725544
     137A      3.725969   138A      3.781100   139A      3.781557
     140A      3.817665   141A      3.921247   142A      3.922833
     143A      4.045344   144A      4.117848   145A      4.118527
     146A      4.155080   147A      4.155584   148A      4.187311
     149A      4.208514   150A      4.209400   151A      4.210730
     152A      4.215334   153A      4.322286   154A      4.324491
     155A      4.362337   156A      4.431571   157A      4.433596
     158A      4.446490   159A      4.523956   160A      4.525304
     161A      4.588595   162A      4.589149   163A      4.624727
     164A      4.719804   165A      4.781197   166A      4.781860
     167A      4.839846   168A      4.967623   169A      5.006256
     170A      5.007761   171A      5.233746   172A      5.248293
     173A      5.248913   174A      5.361892   175A      5.362077
     176A      5.481671

    Final Occupation by Irrep:
              A
    DOCC [    16 ]
    SOCC [     1 ]

  @DF-UKS Final Energy:  -157.81306924810099

   => Energetics <=

    Nuclear Repulsion Energy =            125.3946082216504152
    One-Electron Energy =                -458.7488798090111572
    Two-Electron Energy =                 195.8483450083451203
    DFT Exchange-Correlation Energy =     -20.3071426690853549
    Empirical Dispersion Energy =           0.0000000000000000
    VV10 Nonlocal Energy =                  0.0000000000000000
    Total Energy =                       -157.8130692481009874

  UHF NO Occupations:
  HONO-2 :   15  A 1.9996009
  HONO-1 :   16  A 1.9989805
  HONO-0 :   17  A 1.0000000
  LUNO+0 :   18  A 0.0010195
  LUNO+1 :   19  A 0.0003991
  LUNO+2 :   20  A 0.0001981
  LUNO+3 :   21  A 0.0001970

Computation Completed

Properties will be evaluated at   0.000000,   0.000000,   0.000000 [a0]

Properties computed using the SCF density matrix

  Nuclear Dipole Moment: [e a0]
     X:     0.8272      Y:     0.0031      Z:     0.0033

  Electronic Dipole Moment: [e a0]
     X:    -0.7493      Y:    -0.0030      Z:    -0.0034

  Dipole Moment: [e a0]
     X:     0.0779      Y:     0.0001      Z:    -0.0001     Total:     0.0779

  Dipole Moment: [D]
     X:     0.1980      Y:     0.0001      Z:    -0.0002     Total:     0.1980

*** tstop() called on n051 at Fri Nov  5 11:45:51 2021
Module time:
	user time   =     541.39 seconds =       9.02 minutes
	system time =      11.96 seconds =       0.20 minutes
	total time  =        139 seconds =       2.32 minutes
Total time:
	user time   =     541.39 seconds =       9.02 minutes
	system time =      11.96 seconds =       0.20 minutes
	total time  =        139 seconds =       2.32 minutes
Grab this energy -157.813069248101
    Psi4 stopped on: Friday, 05 November 2021 11:45AM
    Psi4 wall time for execution: 0:02:19.14

*** Psi4 exiting successfully. Buy a developer a beer!
