                               Psi4 1.4a2.dev629

  ==> Input File <==

--------------------------------------------------------------------------
import os
memory 14 GB

molecule {
 C   -0.3233635780   -0.0000020258   -0.0000000178
 C    0.0610461528   -1.3991606247   -2.4266109695
 C    0.0609264928    2.8011005237    0.0016020662
 C    0.0610463571   -1.4019355555    2.4250090742
 H    2.0900901377   -1.6444558455   -2.8468154378
 H   -0.7671289512   -0.3861981904   -4.0269546703
 H   -0.7668963357   -3.2947430282   -2.3475562999
 H    2.0899509627    3.2877404733   -0.0006227191
 H   -0.7673699540    3.6805180034    1.6789884285
 H   -0.7669738535    3.6803858257   -1.6795914958
 H    2.0900901720   -1.6433772383    2.8474381058
 H   -0.7672925219   -3.2942867919    2.3479722852
 H   -0.7667329575   -0.3856098393    4.0271416504
units bohr
0 2
}

basis {

assign 6-31g_2dfp_

[ 6-31g_2dfp_ ]

spherical

!----------------------------------------------------------------------
! Basis Set Exchange
! Version v0.8.13
! https://www.basissetexchange.org
!----------------------------------------------------------------------
!   Basis set: 6-31G(2df,p)
! Description: 6-31G(2df,p)
!        Role: orbital
!     Version: 0  (Data from the original Basis Set Exchange)
!----------------------------------------------------------------------

****
H     0
S    3   1.00
     18.7311370              0.03349460
      2.8253937              0.23472695
      0.6401217              0.81375733
S    1   1.00
      0.1612778              1.00000000
P    1   1.00
      1.5000000              1.0000000
P    1   1.00
      0.3750000              1.0000000
****
B     0
S    6   1.00
   2068.8823000              0.0018663
    310.6495700              0.0142515
     70.6830330              0.0695516
     19.8610800              0.2325729
      6.2993048              0.4670787
      2.1270270              0.3634314
SP   3   1.00
      4.7279710             -0.1303938              0.0745976
      1.1903377             -0.1307889              0.3078467
      0.3594117              1.1309444              0.7434568
SP   1   1.00
      0.1267512              1.0000000              1.0000000
D    1   1.00
      0.8020000              1.0000000
D    1   1.00
      0.2005000              1.0000000
F    1   1.00
      0.5000000              1.0000000
****
C     0
S    6   1.00
   3047.5249000              0.0018347
    457.3695100              0.0140373
    103.9486900              0.0688426
     29.2101550              0.2321844
      9.2866630              0.4679413
      3.1639270              0.3623120
SP   3   1.00
      7.8682724             -0.1193324              0.0689991
      1.8812885             -0.1608542              0.3164240
      0.5442493              1.1434564              0.7443083
SP   1   1.00
      0.1687144              1.0000000              1.0000000
D    1   1.00
      1.2520000              1.0000000
D    1   1.00
      0.3130000              1.0000000
F    1   1.00
      0.8000000              1.0000000
****
N     0
S    6   1.00
   4173.5110000              0.0018348
    627.4579000              0.0139950
    142.9021000              0.0685870
     40.2343300              0.2322410
     12.8202100              0.4690700
      4.3904370              0.3604550
SP   3   1.00
     11.6263580             -0.1149610              0.0675800
      2.7162800             -0.1691180              0.3239070
      0.7722180              1.1458520              0.7408950
SP   1   1.00
      0.2120313              1.0000000              1.0000000
D    1   1.00
      1.8260000              1.0000000
D    1   1.00
      0.4565000              1.0000000
F    1   1.00
      1.0000000              1.0000000
****
O     0
S    6   1.00
   5484.6717000              0.0018311
    825.2349500              0.0139501
    188.0469600              0.0684451
     52.9645000              0.2327143
     16.8975700              0.4701930
      5.7996353              0.3585209
SP   3   1.00
     15.5396160             -0.1107775              0.0708743
      3.5999336             -0.1480263              0.3397528
      1.0137618              1.1307670              0.7271586
SP   1   1.00
      0.2700058              1.0000000              1.0000000
D    1   1.00
      2.5840000              1.0000000
D    1   1.00
      0.6460000              1.0000000
F    1   1.00
      1.4000000              1.0000000
****
F     0
S    6   1.00
   7001.7130900              0.0018196169
   1051.3660900              0.0139160796
    239.2856900              0.0684053245
     67.3974453              0.233185760
     21.5199573              0.471267439
      7.40310130             0.356618546
SP   3   1.00
     20.8479528             -0.108506975            0.0716287243
      4.80830834            -0.146451658            0.3459121030
      1.34406986             1.128688580            0.7224699570
SP   1   1.00
      0.358151393            1.0000000              1.0000000
D    1   1.00
      3.5000000              1.0000000
D    1   1.00
      0.8750000              1.0000000
F    1   1.00
      1.8500000              1.0000000
****
Al     0
S    6   1.00
  13983.1000000              0.00194267
   2098.7500000              0.0148599
    477.7050000              0.0728494
    134.3600000              0.2468300
     42.8709000              0.4872580
     14.5189000              0.3234960
SP   6   1.00
    239.6680000             -0.00292619             0.00460285
     57.4419000             -0.0374080              0.0331990
     18.2859000             -0.1144870              0.1362820
      6.5991400              0.1156350              0.3304760
      2.4904900              0.6125950              0.4491460
      0.9445400              0.3937990              0.2657040
SP   3   1.00
      1.2779000             -0.2276060             -0.0175130
      0.3975900              0.00144583             0.2445330
      0.1600950              1.0927900              0.8049340
SP   1   1.00
      0.0556577              1.0000000              1.0000000
D    1   1.00
      0.6500000              1.0000000
D    1   1.00
      0.1625000              1.0000000
F    1   1.00
      0.2500000              1.0000000
****
Si     0
S    6   1.00
  16115.9000000              0.00195948
   2425.5800000              0.01492880
    553.8670000              0.07284780
    156.3400000              0.24613000
     50.0683000              0.48591400
     17.0178000              0.32500200
SP   6   1.00
    292.7180000             -0.00278094             0.00443826
     69.8731000             -0.03571460             0.03266790
     22.3363000             -0.11498500             0.13472100
      8.1503900              0.09356340             0.32867800
      3.1345800              0.60301700             0.44964000
      1.2254300              0.41895900             0.26137200
SP   3   1.00
      1.7273800             -0.24463000            -0.01779510
      0.5729220              0.00431572             0.25353900
      0.2221920              1.09818000             0.80066900
SP   1   1.00
      0.0778369              1.00000000             1.00000000
D    1   1.00
      0.9000000              1.0000000
D    1   1.00
      0.2250000              1.0000000
F    1   1.00
      0.3200000              1.0000000
****
P     0
S    6   1.00
  19413.3000000              0.0018516
   2909.4200000              0.0142062
    661.3640000              0.0699995
    185.7590000              0.2400790
     59.1943000              0.4847620
     20.0310000              0.3352000
SP   6   1.00
    339.4780000             -0.00278217             0.00456462
     81.0101000             -0.0360499              0.03369360
     25.8780000             -0.1166310              0.13975500
      9.4522100              0.0968328              0.33936200
      3.6656600              0.6144180              0.45092100
      1.4674600              0.4037980              0.23858600
SP   3   1.00
      2.1562300             -0.2529230             -0.01776530
      0.7489970              0.0328517              0.27405800
      0.2831450              1.0812500              0.78542100
SP   1   1.00
      0.0998317              1.0000000              1.00000000
D    1   1.00
      1.1000000              1.0000000
D    1   1.00
      0.2750000              1.0000000
F    1   1.00
      0.4500000              1.0000000
****
S     0
S    6   1.00
  21917.1000000              0.0018690
   3301.4900000              0.0142300
    754.1460000              0.0696960
    212.7110000              0.2384870
     67.9896000              0.4833070
     23.0515000              0.3380740
SP   6   1.00
    423.7350000             -0.0023767              0.0040610
    100.7100000             -0.0316930              0.0306810
     32.1599000             -0.1133170              0.1304520
     11.8079000              0.0560900              0.3272050
      4.6311000              0.5922550              0.4528510
      1.8702500              0.4550060              0.2560420
SP   3   1.00
      2.6158400             -0.2503740             -0.0145110
      0.9221670              0.0669570              0.3102630
      0.3412870              1.0545100              0.7544830
SP   1   1.00
      0.1171670              1.0000000              1.0000000
D    1   1.00
      1.3000000              1.0000000
D    1   1.00
      0.3250000              1.0000000
F    1   1.00
      0.5500000              1.0000000
****
Cl     0
S    6   1.00
  25180.1000000              0.0018330
   3780.3500000              0.0140340
    860.4740000              0.0690970
    242.1450000              0.2374520
     77.3349000              0.4830340
     26.2470000              0.3398560
SP   6   1.00
    491.7650000             -0.0022974              0.0039894
    116.9840000             -0.0307140              0.0303180
     37.4153000             -0.1125280              0.1298800
     13.7834000              0.0450160              0.3279510
      5.4521500              0.5893530              0.4535270
      2.2258800              0.4652060              0.2521540
SP   3   1.00
      3.1864900             -0.2518300             -0.0142990
      1.1442700              0.0615890              0.3235720
      0.4203770              1.0601800              0.7435070
SP   1   1.00
      0.1426570              1.0000000              1.0000000
D    1   1.00
      1.5000000              1.0000000
D    1   1.00
      0.3750000              1.0000000
F    1   1.00
      0.7000000              1.0000000
****
}

set {
reference uhf
freeze_core true
e_convergence 10
d_convergence 10
dft_spherical_points 1202
dft_radial_points 99
}

e = energy('b3lyp')

print_out('Grab this energy {0}'.format(e))
--------------------------------------------------------------------------

    Molecular point group: c1

    Geometry (in Bohr), charge = 0, multiplicity = 2:

       Center              X                  Y                   Z               Mass
    ------------   -----------------  -----------------  -----------------  -----------------
         C           -0.323304911684    -0.000002042846    -0.000000047290    12.000000000000
         C            0.061104819116    -1.399160641746    -2.426610998990    12.000000000000
         C            0.060985159116     2.801100506654     0.001602036710    12.000000000000
         C            0.061105023416    -1.401935572546     2.425009044710    12.000000000000
         H            2.090148804016    -1.644455862546    -2.846815467290     1.007825032230
         H           -0.767070284884    -0.386198207446    -4.026954699790     1.007825032230
         H           -0.766837669384    -3.294743045246    -2.347556329390     1.007825032230
         H            2.090009629016     3.287740456254    -0.000622748590     1.007825032230
         H           -0.767311287684     3.680517986354     1.678988399010     1.007825032230
         H           -0.766915187184     3.680385808654    -1.679591525290     1.007825032230
         H            2.090148838316    -1.643377255346     2.847438076310     1.007825032230
         H           -0.767233855584    -3.294286808946     2.347972255710     1.007825032230
         H           -0.766674291184    -0.385609856346     4.027141620910     1.007825032230

  Charge       = 0
  Multiplicity = 2
  Basis Set: ANONYMOUSBFD8B113
    Blend: 6-31G_2DFP_
  Basis Set: (ANONYMOUSBFD8B113 AUX)
    Blend: DEF2-UNIVERSAL-JKFIT

    Orbital Energies [Eh]
    ---------------------

    Alpha Occupied:

       1A    -10.180410     2A    -10.167566     3A    -10.167565
       4A    -10.167520     5A     -0.797806     6A     -0.685828
       7A     -0.685827     8A     -0.530465     9A     -0.441024
      10A     -0.434533    11A     -0.434532    12A     -0.382341
      13A     -0.382339    14A     -0.363295    15A     -0.337994
      16A     -0.337993    17A     -0.169023

    Alpha Virtual:

      18A      0.075740    19A      0.133787    20A      0.133788
      21A      0.142219    22A      0.142219    23A      0.154580
      24A      0.178272    25A      0.178272    26A      0.203655
      27A      0.214349    28A      0.275961    29A      0.275963
      30A      0.399282    31A      0.399286    32A      0.403135
      33A      0.423823    34A      0.423823    35A      0.456459
      36A      0.495166    37A      0.495167    38A      0.511884
      39A      0.513853    40A      0.578477    41A      0.578486
      42A      0.591031    43A      0.591032    44A      0.601922
      45A      0.623779    46A      0.631088    47A      0.635684
      48A      0.635688    49A      0.663078    50A      0.663078
      51A      0.683307    52A      0.683308    53A      0.734684
      54A      0.824589    55A      0.824592    56A      0.853399
      57A      0.914312    58A      0.914318    59A      0.943501
      60A      0.943826    61A      0.960630    62A      0.960647
      63A      1.003354    64A      1.127683    65A      1.127696
      66A      1.141346    67A      1.163007    68A      1.163019
      69A      1.222879    70A      1.273952    71A      1.273955
      72A      1.279802    73A      1.323642    74A      1.323644
      75A      1.355131    76A      1.365554    77A      1.365558
      78A      1.391881    79A      1.403026    80A      1.403028
      81A      1.416163    82A      1.416169    83A      1.427149
      84A      1.490564    85A      1.497770    86A      1.542309
      87A      1.542312    88A      1.574284    89A      1.574287
      90A      1.667660    91A      1.737982    92A      1.737993
      93A      1.766811    94A      1.828920    95A      1.828920
      96A      1.970100    97A      2.017218    98A      2.017846
      99A      2.017849   100A      2.051558   101A      2.051558
     102A      2.737510   103A      2.737511   104A      2.790705
     105A      2.810923   106A      2.889383   107A      2.889389
     108A      2.894865   109A      2.929113   110A      2.929121
     111A      2.958378   112A      2.963726   113A      2.963740
     114A      3.033108   115A      3.070333   116A      3.070347
     117A      3.083428   118A      3.169448   119A      3.169455
     120A      3.180289   121A      3.285351   122A      3.285352
     123A      3.327672   124A      3.327678   125A      3.376313
     126A      3.491145   127A      3.491165   128A      3.514279
     129A      3.525980   130A      3.568191   131A      3.568211
     132A      3.576823   133A      3.665632   134A      3.665640
     135A      3.677825   136A      3.693303   137A      3.693320
     138A      3.776252   139A      3.776278   140A      3.788556
     141A      3.911277   142A      3.911284   143A      4.032104
     144A      4.108901   145A      4.108905   146A      4.144809
     147A      4.144817   148A      4.170290   149A      4.201254
     150A      4.201667   151A      4.201671   152A      4.207166
     153A      4.313712   154A      4.313731   155A      4.356563
     156A      4.421876   157A      4.421879   158A      4.441395
     159A      4.514417   160A      4.514418   161A      4.576788
     162A      4.576800   163A      4.616845   164A      4.707436
     165A      4.772819   166A      4.772826   167A      4.834553
     168A      4.962091   169A      5.001853   170A      5.001865
     171A      5.222752   172A      5.241520   173A      5.241520
     174A      5.350912   175A      5.350925   176A      5.476134

    Beta Occupied:

       1A    -10.168322     2A    -10.168322     3A    -10.168291
       4A    -10.166602     5A     -0.781104     6A     -0.683632
       7A     -0.683632     8A     -0.511494     9A     -0.430895
      10A     -0.430894    11A     -0.421687    12A     -0.376417
      13A     -0.376416    14A     -0.362276    15A     -0.333126
      16A     -0.333126

    Beta Virtual:

      17A     -0.025976    18A      0.076752    19A      0.134669
      20A      0.134669    21A      0.144117    22A      0.144117
      23A      0.163103    24A      0.181952    25A      0.181953
      26A      0.214574    27A      0.219024    28A      0.282300
      29A      0.282302    30A      0.400455    31A      0.400460
      32A      0.419568    33A      0.426632    34A      0.426632
      35A      0.468385    36A      0.497428    37A      0.497428
      38A      0.513631    39A      0.556134    40A      0.584011
      41A      0.584019    42A      0.597190    43A      0.597191
      44A      0.609358    45A      0.627161    46A      0.631255
      47A      0.638992    48A      0.638996    49A      0.666636
      50A      0.666637    51A      0.685978    52A      0.685979
      53A      0.757182    54A      0.829760    55A      0.829762
      56A      0.854776    57A      0.922297    58A      0.922304
      59A      0.945340    60A      0.952731    61A      0.965945
      62A      0.965961    63A      1.008582    64A      1.131725
      65A      1.131736    66A      1.154737    67A      1.168051
      68A      1.168063    69A      1.231869    70A      1.279561
      71A      1.279565    72A      1.285568    73A      1.328605
      74A      1.328607    75A      1.364520    76A      1.370798
      77A      1.370803    78A      1.392947    79A      1.406495
      80A      1.406498    81A      1.421214    82A      1.421220
      83A      1.427429    84A      1.491627    85A      1.508191
      86A      1.546850    87A      1.546850    88A      1.582049
      89A      1.582049    90A      1.672434    91A      1.743737
      92A      1.743748    93A      1.777648    94A      1.832805
      95A      1.832806    96A      1.970964    97A      2.024266
      98A      2.024269    99A      2.038614   100A      2.058274
     101A      2.058274   102A      2.745833   103A      2.745834
     104A      2.811292   105A      2.815855   106A      2.902025
     107A      2.902031   108A      2.924537   109A      2.931644
     110A      2.931653   111A      2.959435   112A      2.968229
     113A      2.968243   114A      3.041123   115A      3.080188
     116A      3.080199   117A      3.085239   118A      3.185248
     119A      3.185253   120A      3.187908   121A      3.290205
     122A      3.290205   123A      3.331469   124A      3.331475
     125A      3.384108   126A      3.493830   127A      3.493850
     128A      3.512644   129A      3.529002   130A      3.576689
     131A      3.581507   132A      3.581528   133A      3.670122
     134A      3.670132   135A      3.691058   136A      3.725078
     137A      3.725094   138A      3.780792   139A      3.780818
     140A      3.817074   141A      3.921108   142A      3.921115
     143A      4.042867   144A      4.115639   145A      4.115641
     146A      4.152056   147A      4.152065   148A      4.184495
     149A      4.207608   150A      4.207611   151A      4.209288
     152A      4.211671   153A      4.321233   154A      4.321253
     155A      4.359935   156A      4.430123   157A      4.430125
     158A      4.444293   159A      4.522218   160A      4.522219
     161A      4.587423   162A      4.587435   163A      4.624046
     164A      4.717785   165A      4.779776   166A      4.779783
     167A      4.837465   168A      4.966912   169A      5.005912
     170A      5.005924   171A      5.228493   172A      5.243310
     173A      5.243310   174A      5.357420   175A      5.357433
     176A      5.478468

    Final Occupation by Irrep:
              A
    DOCC [    16 ]
    SOCC [     1 ]

  @DF-UKS Final Energy:  -157.81309103241938

   => Energetics <=

    Nuclear Repulsion Energy =            125.3572794810481668
    One-Electron Energy =                -458.6780882390536362
    Two-Electron Energy =                 195.8108403877623971
    DFT Exchange-Correlation Energy =     -20.3031226621763210
    Empirical Dispersion Energy =           0.0000000000000000
    VV10 Nonlocal Energy =                  0.0000000000000000
    Total Energy =                       -157.8130910324193792

  UHF NO Occupations:
  HONO-2 :   15  A 1.9995983
  HONO-1 :   16  A 1.9989811
  HONO-0 :   17  A 1.0000000
  LUNO+0 :   18  A 0.0010189
  LUNO+1 :   19  A 0.0004017
  LUNO+2 :   20  A 0.0001972
  LUNO+3 :   21  A 0.0001972

Computation Completed

Properties will be evaluated at   0.000000,   0.000000,   0.000000 [a0]

Properties computed using the SCF density matrix

  Nuclear Dipole Moment: [e a0]
     X:     0.8276      Y:    -0.0000      Z:    -0.0000

  Electronic Dipole Moment: [e a0]
     X:    -0.7503      Y:     0.0000      Z:     0.0000

  Dipole Moment: [e a0]
     X:     0.0773      Y:     0.0000      Z:    -0.0000     Total:     0.0773

  Dipole Moment: [D]
     X:     0.1964      Y:     0.0000      Z:    -0.0000     Total:     0.1964

*** tstop() called on n089 at Fri Nov  5 12:47:14 2021
Module time:
	user time   =     577.93 seconds =       9.63 minutes
	system time =       5.49 seconds =       0.09 minutes
	total time  =        147 seconds =       2.45 minutes
Total time:
	user time   =     577.93 seconds =       9.63 minutes
	system time =       5.49 seconds =       0.09 minutes
	total time  =        147 seconds =       2.45 minutes
Grab this energy -157.81309103241938
    Psi4 stopped on: Friday, 05 November 2021 12:47PM
    Psi4 wall time for execution: 0:02:26.68

*** Psi4 exiting successfully. Buy a developer a beer!
