                               Psi4 1.4a2.dev629

  ==> Input File <==

--------------------------------------------------------------------------
import os
memory 14 GB

molecule {
 C   -0.3201126300   -0.0000018265    0.0000000000
 C    0.0608417223   -1.4007951417   -2.4262380157
 C    0.0607218823    2.8015945370    0.0000000000
 C    0.0608417223   -1.4007951417    2.4262380157
 H    2.0866527577   -1.6470914228   -2.8526261991
 H   -0.7656516213   -0.3860755772   -4.0229964940
 H   -0.7658153635   -3.2909197382   -2.3458860567
 H    2.0865134268    3.2940903911   -0.0000000000
 H   -0.7658927731    3.6770281723    1.6771158357
 H   -0.7658927731    3.6770281723   -1.6771158357
 H    2.0866527577   -1.6470914228    2.8526261991
 H   -0.7658153635   -3.2909197382    2.3458860567
 H   -0.7656516213   -0.3860755772    4.0229964940
units bohr
0 2
}

basis {

assign 6-31g_2dfp_

[ 6-31g_2dfp_ ]

spherical

!----------------------------------------------------------------------
! Basis Set Exchange
! Version v0.8.13
! https://www.basissetexchange.org
!----------------------------------------------------------------------
!   Basis set: 6-31G(2df,p)
! Description: 6-31G(2df,p)
!        Role: orbital
!     Version: 0  (Data from the original Basis Set Exchange)
!----------------------------------------------------------------------

****
H     0
S    3   1.00
     18.7311370              0.03349460
      2.8253937              0.23472695
      0.6401217              0.81375733
S    1   1.00
      0.1612778              1.00000000
P    1   1.00
      1.5000000              1.0000000
P    1   1.00
      0.3750000              1.0000000
****
B     0
S    6   1.00
   2068.8823000              0.0018663
    310.6495700              0.0142515
     70.6830330              0.0695516
     19.8610800              0.2325729
      6.2993048              0.4670787
      2.1270270              0.3634314
SP   3   1.00
      4.7279710             -0.1303938              0.0745976
      1.1903377             -0.1307889              0.3078467
      0.3594117              1.1309444              0.7434568
SP   1   1.00
      0.1267512              1.0000000              1.0000000
D    1   1.00
      0.8020000              1.0000000
D    1   1.00
      0.2005000              1.0000000
F    1   1.00
      0.5000000              1.0000000
****
C     0
S    6   1.00
   3047.5249000              0.0018347
    457.3695100              0.0140373
    103.9486900              0.0688426
     29.2101550              0.2321844
      9.2866630              0.4679413
      3.1639270              0.3623120
SP   3   1.00
      7.8682724             -0.1193324              0.0689991
      1.8812885             -0.1608542              0.3164240
      0.5442493              1.1434564              0.7443083
SP   1   1.00
      0.1687144              1.0000000              1.0000000
D    1   1.00
      1.2520000              1.0000000
D    1   1.00
      0.3130000              1.0000000
F    1   1.00
      0.8000000              1.0000000
****
N     0
S    6   1.00
   4173.5110000              0.0018348
    627.4579000              0.0139950
    142.9021000              0.0685870
     40.2343300              0.2322410
     12.8202100              0.4690700
      4.3904370              0.3604550
SP   3   1.00
     11.6263580             -0.1149610              0.0675800
      2.7162800             -0.1691180              0.3239070
      0.7722180              1.1458520              0.7408950
SP   1   1.00
      0.2120313              1.0000000              1.0000000
D    1   1.00
      1.8260000              1.0000000
D    1   1.00
      0.4565000              1.0000000
F    1   1.00
      1.0000000              1.0000000
****
O     0
S    6   1.00
   5484.6717000              0.0018311
    825.2349500              0.0139501
    188.0469600              0.0684451
     52.9645000              0.2327143
     16.8975700              0.4701930
      5.7996353              0.3585209
SP   3   1.00
     15.5396160             -0.1107775              0.0708743
      3.5999336             -0.1480263              0.3397528
      1.0137618              1.1307670              0.7271586
SP   1   1.00
      0.2700058              1.0000000              1.0000000
D    1   1.00
      2.5840000              1.0000000
D    1   1.00
      0.6460000              1.0000000
F    1   1.00
      1.4000000              1.0000000
****
F     0
S    6   1.00
   7001.7130900              0.0018196169
   1051.3660900              0.0139160796
    239.2856900              0.0684053245
     67.3974453              0.233185760
     21.5199573              0.471267439
      7.40310130             0.356618546
SP   3   1.00
     20.8479528             -0.108506975            0.0716287243
      4.80830834            -0.146451658            0.3459121030
      1.34406986             1.128688580            0.7224699570
SP   1   1.00
      0.358151393            1.0000000              1.0000000
D    1   1.00
      3.5000000              1.0000000
D    1   1.00
      0.8750000              1.0000000
F    1   1.00
      1.8500000              1.0000000
****
Al     0
S    6   1.00
  13983.1000000              0.00194267
   2098.7500000              0.0148599
    477.7050000              0.0728494
    134.3600000              0.2468300
     42.8709000              0.4872580
     14.5189000              0.3234960
SP   6   1.00
    239.6680000             -0.00292619             0.00460285
     57.4419000             -0.0374080              0.0331990
     18.2859000             -0.1144870              0.1362820
      6.5991400              0.1156350              0.3304760
      2.4904900              0.6125950              0.4491460
      0.9445400              0.3937990              0.2657040
SP   3   1.00
      1.2779000             -0.2276060             -0.0175130
      0.3975900              0.00144583             0.2445330
      0.1600950              1.0927900              0.8049340
SP   1   1.00
      0.0556577              1.0000000              1.0000000
D    1   1.00
      0.6500000              1.0000000
D    1   1.00
      0.1625000              1.0000000
F    1   1.00
      0.2500000              1.0000000
****
Si     0
S    6   1.00
  16115.9000000              0.00195948
   2425.5800000              0.01492880
    553.8670000              0.07284780
    156.3400000              0.24613000
     50.0683000              0.48591400
     17.0178000              0.32500200
SP   6   1.00
    292.7180000             -0.00278094             0.00443826
     69.8731000             -0.03571460             0.03266790
     22.3363000             -0.11498500             0.13472100
      8.1503900              0.09356340             0.32867800
      3.1345800              0.60301700             0.44964000
      1.2254300              0.41895900             0.26137200
SP   3   1.00
      1.7273800             -0.24463000            -0.01779510
      0.5729220              0.00431572             0.25353900
      0.2221920              1.09818000             0.80066900
SP   1   1.00
      0.0778369              1.00000000             1.00000000
D    1   1.00
      0.9000000              1.0000000
D    1   1.00
      0.2250000              1.0000000
F    1   1.00
      0.3200000              1.0000000
****
P     0
S    6   1.00
  19413.3000000              0.0018516
   2909.4200000              0.0142062
    661.3640000              0.0699995
    185.7590000              0.2400790
     59.1943000              0.4847620
     20.0310000              0.3352000
SP   6   1.00
    339.4780000             -0.00278217             0.00456462
     81.0101000             -0.0360499              0.03369360
     25.8780000             -0.1166310              0.13975500
      9.4522100              0.0968328              0.33936200
      3.6656600              0.6144180              0.45092100
      1.4674600              0.4037980              0.23858600
SP   3   1.00
      2.1562300             -0.2529230             -0.01776530
      0.7489970              0.0328517              0.27405800
      0.2831450              1.0812500              0.78542100
SP   1   1.00
      0.0998317              1.0000000              1.00000000
D    1   1.00
      1.1000000              1.0000000
D    1   1.00
      0.2750000              1.0000000
F    1   1.00
      0.4500000              1.0000000
****
S     0
S    6   1.00
  21917.1000000              0.0018690
   3301.4900000              0.0142300
    754.1460000              0.0696960
    212.7110000              0.2384870
     67.9896000              0.4833070
     23.0515000              0.3380740
SP   6   1.00
    423.7350000             -0.0023767              0.0040610
    100.7100000             -0.0316930              0.0306810
     32.1599000             -0.1133170              0.1304520
     11.8079000              0.0560900              0.3272050
      4.6311000              0.5922550              0.4528510
      1.8702500              0.4550060              0.2560420
SP   3   1.00
      2.6158400             -0.2503740             -0.0145110
      0.9221670              0.0669570              0.3102630
      0.3412870              1.0545100              0.7544830
SP   1   1.00
      0.1171670              1.0000000              1.0000000
D    1   1.00
      1.3000000              1.0000000
D    1   1.00
      0.3250000              1.0000000
F    1   1.00
      0.5500000              1.0000000
****
Cl     0
S    6   1.00
  25180.1000000              0.0018330
   3780.3500000              0.0140340
    860.4740000              0.0690970
    242.1450000              0.2374520
     77.3349000              0.4830340
     26.2470000              0.3398560
SP   6   1.00
    491.7650000             -0.0022974              0.0039894
    116.9840000             -0.0307140              0.0303180
     37.4153000             -0.1125280              0.1298800
     13.7834000              0.0450160              0.3279510
      5.4521500              0.5893530              0.4535270
      2.2258800              0.4652060              0.2521540
SP   3   1.00
      3.1864900             -0.2518300             -0.0142990
      1.1442700              0.0615890              0.3235720
      0.4203770              1.0601800              0.7435070
SP   1   1.00
      0.1426570              1.0000000              1.0000000
D    1   1.00
      1.5000000              1.0000000
D    1   1.00
      0.3750000              1.0000000
F    1   1.00
      0.7000000              1.0000000
****
}

set {
reference uhf
freeze_core true
e_convergence 10
d_convergence 10
dft_spherical_points 1202
dft_radial_points 99
}

e = energy('b3lyp')

print_out('Grab this energy {0}'.format(e))
--------------------------------------------------------------------------

    Molecular point group: cs

    Geometry (in Bohr), charge = 0, multiplicity = 2:

       Center              X                  Y                   Z               Mass
    ------------   -----------------  -----------------  -----------------  -----------------
         C           -0.320561921305    -0.000001864615     0.000000000000    12.000000000000
         C            0.060392430995    -1.400795179815    -2.426238015700    12.000000000000
         C            0.060272590995     2.801594498885     0.000000000000    12.000000000000
         C            0.060392430995    -1.400795179815     2.426238015700    12.000000000000
         H            2.086203466395    -1.647091460915    -2.852626199100     1.007825032230
         H           -0.766100912605    -0.386075615315    -4.022996494000     1.007825032230
         H           -0.766264654805    -3.290919776315    -2.345886056700     1.007825032230
         H            2.086064135495     3.294090352985     0.000000000000     1.007825032230
         H           -0.766342064405     3.677028134185     1.677115835700     1.007825032230
         H           -0.766342064405     3.677028134185    -1.677115835700     1.007825032230
         H            2.086203466395    -1.647091460915     2.852626199100     1.007825032230
         H           -0.766264654805    -3.290919776315     2.345886056700     1.007825032230
         H           -0.766100912605    -0.386075615315     4.022996494000     1.007825032230

  Charge       = 0
  Multiplicity = 2
  Basis Set: ANONYMOUS8DD8E81D
    Blend: 6-31G_2DFP_
  Basis Set: (ANONYMOUS8DD8E81D AUX)
    Blend: DEF2-UNIVERSAL-JKFIT

    Orbital Energies [Eh]
    ---------------------

    Alpha Occupied:

       1Ap   -10.180264     2Ap   -10.166992     1App  -10.166992
       3Ap   -10.166946     4Ap    -0.797846     5Ap    -0.686242
       2App   -0.686241     6Ap    -0.530782     7Ap    -0.440897
       3App   -0.434946     8Ap    -0.434945     9Ap    -0.382340
       4App   -0.382339     5App   -0.363875     6App   -0.338114
      10Ap    -0.338113    11Ap    -0.168868

    Alpha Virtual:

      12Ap     0.076105    13Ap     0.134109     7App    0.134110
      14Ap     0.142719     8App    0.142719    15Ap     0.155004
      16Ap     0.178675     9App    0.178675    17Ap     0.203653
      10App    0.215072    11App    0.276196    18Ap     0.276198
      19Ap     0.399474    12App    0.399478    20Ap     0.403348
      13App    0.423972    21Ap     0.423972    22Ap     0.456735
      23Ap     0.495391    14App    0.495392    15App    0.511927
      24Ap     0.514135    25Ap     0.578828    16App    0.578837
      17App    0.591426    26Ap     0.591428    27Ap     0.602120
      28Ap     0.624907    18App    0.632088    19App    0.636494
      29Ap     0.636497    30Ap     0.663530    20App    0.663530
      31Ap     0.683876    21App    0.683877    32Ap     0.735273
      22App    0.825360    33Ap     0.825363    23App    0.854259
      24App    0.915236    34Ap     0.915242    35Ap     0.943767
      25App    0.944302    26App    0.960984    36Ap     0.961001
      37Ap     1.004178    38Ap     1.128466    27App    1.128479
      39Ap     1.141597    40Ap     1.163380    28App    1.163392
      41Ap     1.223419    42Ap     1.274529    29App    1.274532
      43Ap     1.279339    30App    1.324878    44Ap     1.324881
      45Ap     1.355340    31App    1.366755    46Ap     1.366759
      32App    1.392253    47Ap     1.403727    33App    1.403729
      34App    1.416717    48Ap     1.416723    35App    1.428476
      36App    1.492277    49Ap     1.498365    37App    1.542845
      50Ap     1.542847    51Ap     1.574114    38App    1.574116
      52Ap     1.670161    53Ap     1.739517    39App    1.739528
      54Ap     1.768115    40App    1.832062    55Ap     1.832063
      41App    1.972095    56Ap     2.019098    57Ap     2.019594
      42App    2.019598    58Ap     2.052721    43App    2.052721
      44App    2.738266    59Ap     2.738267    60Ap     2.790949
      45App    2.811972    61Ap     2.890358    46App    2.890364
      62Ap     2.894880    63Ap     2.929928    47App    2.929936
      48App    2.959126    64Ap     2.964531    49App    2.964546
      65Ap     3.034131    50App    3.071642    66Ap     3.071656
      51App    3.084074    67Ap     3.168592    52App    3.168599
      68Ap     3.180776    53App    3.284117    69Ap     3.284117
      70Ap     3.327909    54App    3.327914    71Ap     3.375157
      55App    3.489892    72Ap     3.489913    56App    3.514412
      73Ap     3.525033    57App    3.569207    74Ap     3.569227
      58App    3.575392    75Ap     3.666920    59App    3.666928
      76Ap     3.680960    60App    3.693531    77Ap     3.693547
      78Ap     3.778225    61App    3.778251    79Ap     3.789065
      80Ap     3.912354    62App    3.912360    81Ap     4.033659
      82Ap     4.111719    63App    4.111723    83Ap     4.147933
      64App    4.147940    84Ap     4.173222    85Ap     4.202635
      65App    4.203582    86Ap     4.203585    66App    4.211284
      87Ap     4.316075    67App    4.316094    68App    4.359636
      88Ap     4.424095    69App    4.424097    70App    4.444707
      71App    4.517363    89Ap     4.517364    72App    4.579131
      90Ap     4.579144    91Ap     4.618514    92Ap     4.709439
      93Ap     4.775102    73App    4.775111    74App    4.837081
      94Ap     4.963285    75App    5.002681    95Ap     5.002693
      96Ap     5.228517    76App    5.246851    97Ap     5.246851
      98Ap     5.356354    77App    5.356367    78App    5.479973

    Beta Occupied:

       1Ap   -10.167748     1App  -10.167748     2Ap   -10.167723
       3Ap   -10.166451     4Ap    -0.781170     5Ap    -0.684045
       2App   -0.684044     6Ap    -0.511758     3App   -0.431318
       7Ap    -0.431318     8Ap    -0.421570     9Ap    -0.376404
       4App   -0.376403     5App   -0.362854     6App   -0.333237
      10Ap    -0.333236

    Beta Virtual:

      11Ap    -0.025808    12Ap     0.077115    13Ap     0.135025
       7App    0.135026    14Ap     0.144597     8App    0.144597
      15Ap     0.163524    16Ap     0.182338     9App    0.182339
      10App    0.215303    17Ap     0.219018    11App    0.282520
      18Ap     0.282523    19Ap     0.400649    12App    0.400653
      20Ap     0.419843    13App    0.426775    21Ap     0.426775
      22Ap     0.468709    23Ap     0.497662    14App    0.497662
      15App    0.513671    24Ap     0.556396    25Ap     0.584415
      16App    0.584423    17App    0.597572    26Ap     0.597573
      27Ap     0.609589    28Ap     0.628263    18App    0.632248
      19App    0.639768    29Ap     0.639771    30Ap     0.667114
      20App    0.667114    31Ap     0.686498    21App    0.686499
      32Ap     0.757740    22App    0.830541    33Ap     0.830543
      23App    0.855619    24App    0.923242    34Ap     0.923249
      25App    0.946141    35Ap     0.952783    26App    0.966297
      36Ap     0.966313    37Ap     1.009429    38Ap     1.132489
      27App    1.132501    39Ap     1.154793    40Ap     1.168447
      28App    1.168460    41Ap     1.232493    42Ap     1.280128
      29App    1.280132    43Ap     1.285152    30App    1.329899
      44Ap     1.329901    45Ap     1.364722    31App    1.371995
      46Ap     1.371999    32App    1.393331    47Ap     1.407208
      33App    1.407210    34App    1.421737    48Ap     1.421743
      35App    1.428742    36App    1.493316    49Ap     1.508780
      50Ap     1.547249    37App    1.547250    38App    1.581996
      51Ap     1.581997    52Ap     1.674995    53Ap     1.745282
      39App    1.745294    54Ap     1.778931    40App    1.835923
      55Ap     1.835924    41App    1.972962    56Ap     2.026034
      42App    2.026037    57Ap     2.040481    58Ap     2.059400
      43App    2.059400    44App    2.746612    59Ap     2.746614
      45App    2.812380    60Ap     2.816107    61Ap     2.902934
      46App    2.902940    62Ap     2.924595    63Ap     2.932435
      47App    2.932444    48App    2.960191    64Ap     2.969103
      49App    2.969117    65Ap     3.042099    50App    3.081501
      66Ap     3.081512    51App    3.085895    67Ap     3.184439
      52App    3.184443    68Ap     3.188418    69Ap     3.288929
      53App    3.288929    70Ap     3.331683    54App    3.331688
      71Ap     3.382939    55App    3.492671    72Ap     3.492692
      56App    3.512780    73Ap     3.528034    57App    3.575236
      58App    3.582441    74Ap     3.582463    75Ap     3.671592
      59App    3.671603    76Ap     3.694201    60App    3.725323
      77Ap     3.725339    78Ap     3.782772    61App    3.782799
      79Ap     3.817644    80Ap     3.922159    62App    3.922167
      81Ap     4.044571    82Ap     4.118642    63App    4.118644
      83Ap     4.155045    64App    4.155053    84Ap     4.187291
      65App    4.209485    85Ap     4.209488    86Ap     4.210635
      66App    4.215810    87Ap     4.323511    67App    4.323530
      68App    4.363018    88Ap     4.432359    69App    4.432361
      70App    4.447562    71App    4.525158    89Ap     4.525160
      72App    4.589721    90Ap     4.589734    91Ap     4.625638
      92Ap     4.719864    93Ap     4.782028    73App    4.782036
      74App    4.839990    94Ap     4.968080    75App    5.006750
      95Ap     5.006763    96Ap     5.234217    76App    5.248639
      97Ap     5.248639    98Ap     5.362828    77App    5.362841
      78App    5.482293

    Final Occupation by Irrep:
             Ap   App
    DOCC [    10,    6 ]
    SOCC [     1,    0 ]

  @DF-UKS Final Energy:  -157.81308677344103

   => Energetics <=

    Nuclear Repulsion Energy =            125.4086428372483510
    One-Electron Energy =                -458.7762390755110573
    Two-Electron Energy =                 195.8620642134415277
    DFT Exchange-Correlation Energy =     -20.3075547486198467
    Empirical Dispersion Energy =           0.0000000000000000
    VV10 Nonlocal Energy =                  0.0000000000000000
    Total Energy =                       -157.8130867734410288

  UHF NO Occupations:
  HONO-2 :    9 Ap 1.9995980
  HONO-1 :   10 Ap 1.9989810
  HONO-0 :   11 Ap 1.0000000
  LUNO+0 :   12 Ap 0.0010190
  LUNO+1 :   13 Ap 0.0004020
  LUNO+2 :    7App 0.0001971
  LUNO+3 :   14 Ap 0.0001971

Computation Completed

Properties will be evaluated at   0.000000,   0.000000,   0.000000 [a0]

Properties computed using the SCF density matrix

  Nuclear Dipole Moment: [e a0]
     X:     0.8240      Y:    -0.0000      Z:    -0.0000

  Electronic Dipole Moment: [e a0]
     X:    -0.7473      Y:     0.0000      Z:     0.0000

  Dipole Moment: [e a0]
     X:     0.0767      Y:    -0.0000      Z:    -0.0000     Total:     0.0767

  Dipole Moment: [D]
     X:     0.1950      Y:    -0.0000      Z:    -0.0000     Total:     0.1950

*** tstop() called on n065 at Fri Nov  5 11:39:58 2021
Module time:
	user time   =     510.68 seconds =       8.51 minutes
	system time =      11.39 seconds =       0.19 minutes
	total time  =        131 seconds =       2.18 minutes
Total time:
	user time   =     510.68 seconds =       8.51 minutes
	system time =      11.39 seconds =       0.19 minutes
	total time  =        131 seconds =       2.18 minutes
Grab this energy -157.81308677344103
    Psi4 stopped on: Friday, 05 November 2021 11:39AM
    Psi4 wall time for execution: 0:02:11.33

*** Psi4 exiting successfully. Buy a developer a beer!
