                               Psi4 1.4a2.dev629

  ==> Input File <==

--------------------------------------------------------------------------
import os
memory 14 GB

molecule {
 C   -0.3223143678   -0.0000032377   -0.0053440636
 C    0.0620719600   -1.4003434774   -2.4265682071
 C    0.0620793578    2.8016017303   -0.0011068080
 C    0.0623271341   -1.4012530596    2.4259300196
 H    2.0838319964   -1.6440564242   -2.8463769324
 H   -0.7648192415   -0.3857587005   -4.0258688029
 H   -0.7641468925   -3.2946245082   -2.3474280402
 H    2.0834851880    3.2876780380    0.0009975071
 H   -0.7638531348    3.6813585765    1.6795848790
 H   -0.7655284818    3.6796435073   -1.6781195434
 H    2.0834191099   -1.6437136780    2.8477782739
 H   -0.7650817454   -3.2936947181    2.3486361762
 H   -0.7640787592   -0.3868583618    4.0278855419
units bohr
0 2
}

basis {

assign 6-31g_2dfp_

[ 6-31g_2dfp_ ]

spherical

!----------------------------------------------------------------------
! Basis Set Exchange
! Version v0.8.13
! https://www.basissetexchange.org
!----------------------------------------------------------------------
!   Basis set: 6-31G(2df,p)
! Description: 6-31G(2df,p)
!        Role: orbital
!     Version: 0  (Data from the original Basis Set Exchange)
!----------------------------------------------------------------------

****
H     0
S    3   1.00
     18.7311370              0.03349460
      2.8253937              0.23472695
      0.6401217              0.81375733
S    1   1.00
      0.1612778              1.00000000
P    1   1.00
      1.5000000              1.0000000
P    1   1.00
      0.3750000              1.0000000
****
B     0
S    6   1.00
   2068.8823000              0.0018663
    310.6495700              0.0142515
     70.6830330              0.0695516
     19.8610800              0.2325729
      6.2993048              0.4670787
      2.1270270              0.3634314
SP   3   1.00
      4.7279710             -0.1303938              0.0745976
      1.1903377             -0.1307889              0.3078467
      0.3594117              1.1309444              0.7434568
SP   1   1.00
      0.1267512              1.0000000              1.0000000
D    1   1.00
      0.8020000              1.0000000
D    1   1.00
      0.2005000              1.0000000
F    1   1.00
      0.5000000              1.0000000
****
C     0
S    6   1.00
   3047.5249000              0.0018347
    457.3695100              0.0140373
    103.9486900              0.0688426
     29.2101550              0.2321844
      9.2866630              0.4679413
      3.1639270              0.3623120
SP   3   1.00
      7.8682724             -0.1193324              0.0689991
      1.8812885             -0.1608542              0.3164240
      0.5442493              1.1434564              0.7443083
SP   1   1.00
      0.1687144              1.0000000              1.0000000
D    1   1.00
      1.2520000              1.0000000
D    1   1.00
      0.3130000              1.0000000
F    1   1.00
      0.8000000              1.0000000
****
N     0
S    6   1.00
   4173.5110000              0.0018348
    627.4579000              0.0139950
    142.9021000              0.0685870
     40.2343300              0.2322410
     12.8202100              0.4690700
      4.3904370              0.3604550
SP   3   1.00
     11.6263580             -0.1149610              0.0675800
      2.7162800             -0.1691180              0.3239070
      0.7722180              1.1458520              0.7408950
SP   1   1.00
      0.2120313              1.0000000              1.0000000
D    1   1.00
      1.8260000              1.0000000
D    1   1.00
      0.4565000              1.0000000
F    1   1.00
      1.0000000              1.0000000
****
O     0
S    6   1.00
   5484.6717000              0.0018311
    825.2349500              0.0139501
    188.0469600              0.0684451
     52.9645000              0.2327143
     16.8975700              0.4701930
      5.7996353              0.3585209
SP   3   1.00
     15.5396160             -0.1107775              0.0708743
      3.5999336             -0.1480263              0.3397528
      1.0137618              1.1307670              0.7271586
SP   1   1.00
      0.2700058              1.0000000              1.0000000
D    1   1.00
      2.5840000              1.0000000
D    1   1.00
      0.6460000              1.0000000
F    1   1.00
      1.4000000              1.0000000
****
F     0
S    6   1.00
   7001.7130900              0.0018196169
   1051.3660900              0.0139160796
    239.2856900              0.0684053245
     67.3974453              0.233185760
     21.5199573              0.471267439
      7.40310130             0.356618546
SP   3   1.00
     20.8479528             -0.108506975            0.0716287243
      4.80830834            -0.146451658            0.3459121030
      1.34406986             1.128688580            0.7224699570
SP   1   1.00
      0.358151393            1.0000000              1.0000000
D    1   1.00
      3.5000000              1.0000000
D    1   1.00
      0.8750000              1.0000000
F    1   1.00
      1.8500000              1.0000000
****
Al     0
S    6   1.00
  13983.1000000              0.00194267
   2098.7500000              0.0148599
    477.7050000              0.0728494
    134.3600000              0.2468300
     42.8709000              0.4872580
     14.5189000              0.3234960
SP   6   1.00
    239.6680000             -0.00292619             0.00460285
     57.4419000             -0.0374080              0.0331990
     18.2859000             -0.1144870              0.1362820
      6.5991400              0.1156350              0.3304760
      2.4904900              0.6125950              0.4491460
      0.9445400              0.3937990              0.2657040
SP   3   1.00
      1.2779000             -0.2276060             -0.0175130
      0.3975900              0.00144583             0.2445330
      0.1600950              1.0927900              0.8049340
SP   1   1.00
      0.0556577              1.0000000              1.0000000
D    1   1.00
      0.6500000              1.0000000
D    1   1.00
      0.1625000              1.0000000
F    1   1.00
      0.2500000              1.0000000
****
Si     0
S    6   1.00
  16115.9000000              0.00195948
   2425.5800000              0.01492880
    553.8670000              0.07284780
    156.3400000              0.24613000
     50.0683000              0.48591400
     17.0178000              0.32500200
SP   6   1.00
    292.7180000             -0.00278094             0.00443826
     69.8731000             -0.03571460             0.03266790
     22.3363000             -0.11498500             0.13472100
      8.1503900              0.09356340             0.32867800
      3.1345800              0.60301700             0.44964000
      1.2254300              0.41895900             0.26137200
SP   3   1.00
      1.7273800             -0.24463000            -0.01779510
      0.5729220              0.00431572             0.25353900
      0.2221920              1.09818000             0.80066900
SP   1   1.00
      0.0778369              1.00000000             1.00000000
D    1   1.00
      0.9000000              1.0000000
D    1   1.00
      0.2250000              1.0000000
F    1   1.00
      0.3200000              1.0000000
****
P     0
S    6   1.00
  19413.3000000              0.0018516
   2909.4200000              0.0142062
    661.3640000              0.0699995
    185.7590000              0.2400790
     59.1943000              0.4847620
     20.0310000              0.3352000
SP   6   1.00
    339.4780000             -0.00278217             0.00456462
     81.0101000             -0.0360499              0.03369360
     25.8780000             -0.1166310              0.13975500
      9.4522100              0.0968328              0.33936200
      3.6656600              0.6144180              0.45092100
      1.4674600              0.4037980              0.23858600
SP   3   1.00
      2.1562300             -0.2529230             -0.01776530
      0.7489970              0.0328517              0.27405800
      0.2831450              1.0812500              0.78542100
SP   1   1.00
      0.0998317              1.0000000              1.00000000
D    1   1.00
      1.1000000              1.0000000
D    1   1.00
      0.2750000              1.0000000
F    1   1.00
      0.4500000              1.0000000
****
S     0
S    6   1.00
  21917.1000000              0.0018690
   3301.4900000              0.0142300
    754.1460000              0.0696960
    212.7110000              0.2384870
     67.9896000              0.4833070
     23.0515000              0.3380740
SP   6   1.00
    423.7350000             -0.0023767              0.0040610
    100.7100000             -0.0316930              0.0306810
     32.1599000             -0.1133170              0.1304520
     11.8079000              0.0560900              0.3272050
      4.6311000              0.5922550              0.4528510
      1.8702500              0.4550060              0.2560420
SP   3   1.00
      2.6158400             -0.2503740             -0.0145110
      0.9221670              0.0669570              0.3102630
      0.3412870              1.0545100              0.7544830
SP   1   1.00
      0.1171670              1.0000000              1.0000000
D    1   1.00
      1.3000000              1.0000000
D    1   1.00
      0.3250000              1.0000000
F    1   1.00
      0.5500000              1.0000000
****
Cl     0
S    6   1.00
  25180.1000000              0.0018330
   3780.3500000              0.0140340
    860.4740000              0.0690970
    242.1450000              0.2374520
     77.3349000              0.4830340
     26.2470000              0.3398560
SP   6   1.00
    491.7650000             -0.0022974              0.0039894
    116.9840000             -0.0307140              0.0303180
     37.4153000             -0.1125280              0.1298800
     13.7834000              0.0450160              0.3279510
      5.4521500              0.5893530              0.4535270
      2.2258800              0.4652060              0.2521540
SP   3   1.00
      3.1864900             -0.2518300             -0.0142990
      1.1442700              0.0615890              0.3235720
      0.4203770              1.0601800              0.7435070
SP   1   1.00
      0.1426570              1.0000000              1.0000000
D    1   1.00
      1.5000000              1.0000000
D    1   1.00
      0.3750000              1.0000000
F    1   1.00
      0.7000000              1.0000000
****
}

set {
reference uhf
freeze_core true
e_convergence 10
d_convergence 10
dft_spherical_points 1202
dft_radial_points 99
}

e = energy('b3lyp')

print_out('Grab this energy {0}'.format(e))
--------------------------------------------------------------------------

    Molecular point group: c1

    Geometry (in Bohr), charge = 0, multiplicity = 2:

       Center              X                  Y                   Z               Mass
    ------------   -----------------  -----------------  -----------------  -----------------
         C           -0.323124101757    -0.000003185004    -0.003978659759    12.000000000000
         C            0.061262226043    -1.400343424704    -2.425202803259    12.000000000000
         C            0.061269623843     2.801601782996     0.000258595841    12.000000000000
         C            0.061517400143    -1.401253006904     2.427295423441    12.000000000000
         H            2.083022262443    -1.644056371504    -2.845011528559     1.007825032230
         H           -0.765628975457    -0.385758647804    -4.024503399059     1.007825032230
         H           -0.764956626457    -3.294624455504    -2.346062636359     1.007825032230
         H            2.082675454043     3.287678090696     0.002362910941     1.007825032230
         H           -0.764662868757     3.681358629196     1.680950282841     1.007825032230
         H           -0.766338215757     3.679643559996    -1.676754139559     1.007825032230
         H            2.082609375943    -1.643713625304     2.849143677741     1.007825032230
         H           -0.765891479357    -3.293694665404     2.350001580041     1.007825032230
         H           -0.764888493157    -0.386858309104     4.029250945741     1.007825032230

  Charge       = 0
  Multiplicity = 2
  Basis Set: ANONYMOUSBCCBC82E
    Blend: 6-31G_2DFP_
  Basis Set: (ANONYMOUSBCCBC82E AUX)
    Blend: DEF2-UNIVERSAL-JKFIT

    Orbital Energies [Eh]
    ---------------------

    Alpha Occupied:

       1A    -10.180284     2A    -10.167048     3A    -10.167016
       4A    -10.166970     5A     -0.797807     6A     -0.686383
       7A     -0.686005     8A     -0.530787     9A     -0.441226
      10A     -0.434840    11A     -0.434412    12A     -0.382854
      13A     -0.382619    14A     -0.363430    15A     -0.338463
      16A     -0.337425    17A     -0.168924

    Alpha Virtual:

      18A      0.075986    19A      0.134136    20A      0.134159
      21A      0.142387    22A      0.142736    23A      0.155045
      24A      0.178952    25A      0.178961    26A      0.203585
      27A      0.214529    28A      0.275721    29A      0.276299
      30A      0.399225    31A      0.399472    32A      0.403428
      33A      0.423908    34A      0.423909    35A      0.456670
      36A      0.495163    37A      0.495259    38A      0.512279
      39A      0.514131    40A      0.578773    41A      0.579184
      42A      0.591899    43A      0.591925    44A      0.603326
      45A      0.624250    46A      0.631388    47A      0.635730
      48A      0.636035    49A      0.663842    50A      0.663976
      51A      0.683555    52A      0.683653    53A      0.734932
      54A      0.825331    55A      0.825546    56A      0.854196
      57A      0.915130    58A      0.915358    59A      0.943840
      60A      0.944475    61A      0.961219    62A      0.961569
      63A      1.003640    64A      1.127597    65A      1.128087
      66A      1.142981    67A      1.162611    68A      1.163390
      69A      1.222915    70A      1.274265    71A      1.275203
      72A      1.279511    73A      1.324471    74A      1.324658
      75A      1.355455    76A      1.365855    77A      1.366384
      78A      1.392489    79A      1.404989    80A      1.405142
      81A      1.415815    82A      1.416479    83A      1.428138
      84A      1.491510    85A      1.500032    86A      1.543205
      87A      1.543209    88A      1.574059    89A      1.574089
      90A      1.668557    91A      1.740074    92A      1.740473
      93A      1.770165    94A      1.829735    95A      1.830255
      96A      1.970713    97A      2.018285    98A      2.018459
      99A      2.019540   100A      2.053463   101A      2.054576
     102A      2.737930   103A      2.738407   104A      2.791319
     105A      2.810967   106A      2.889768   107A      2.890887
     108A      2.895270   109A      2.928897   110A      2.929683
     111A      2.959129   112A      2.964647   113A      2.964966
     114A      3.034702   115A      3.070817   116A      3.071830
     117A      3.082953   118A      3.168805   119A      3.168957
     120A      3.180711   121A      3.285117   122A      3.285703
     123A      3.326142   124A      3.326914   125A      3.375425
     126A      3.489839   127A      3.490926   128A      3.515237
     129A      3.524151   130A      3.568559   131A      3.569020
     132A      3.575978   133A      3.666448   134A      3.667074
     135A      3.679048   136A      3.693903   137A      3.693958
     138A      3.775640   139A      3.777109   140A      3.789955
     141A      3.911207   142A      3.912135   143A      4.033965
     144A      4.111073   145A      4.111726   146A      4.147722
     147A      4.149656   148A      4.174932   149A      4.201633
     150A      4.202390   151A      4.203249   152A      4.212004
     153A      4.315858   154A      4.317017   155A      4.357771
     156A      4.425124   157A      4.425230   158A      4.443212
     159A      4.517356   160A      4.517648   161A      4.577233
     162A      4.577656   163A      4.617926   164A      4.710019
     165A      4.773936   166A      4.775061   167A      4.835525
     168A      4.962522   169A      5.004026   170A      5.004537
     171A      5.230796   172A      5.243782   173A      5.243855
     174A      5.356945   175A      5.358049   176A      5.477400

    Beta Occupied:

       1A    -10.167799     2A    -10.167771     3A    -10.167739
       4A    -10.166455     5A     -0.781125     6A     -0.684161
       7A     -0.683807     8A     -0.511709     9A     -0.431188
      10A     -0.430766    11A     -0.421973    12A     -0.376924
      13A     -0.376770    14A     -0.362405    15A     -0.333600
      16A     -0.332542

    Beta Virtual:

      17A     -0.025615    18A      0.076980    19A      0.134965
      20A      0.134975    21A      0.144290    22A      0.144619
      23A      0.163485    24A      0.182639    25A      0.182673
      26A      0.214766    27A      0.218970    28A      0.282099
      29A      0.282607    30A      0.400395    31A      0.400636
      32A      0.419779    33A      0.426709    34A      0.426731
      35A      0.468677    36A      0.497411    37A      0.497513
      38A      0.514006    39A      0.556512    40A      0.584273
      41A      0.584730    42A      0.598096    43A      0.598103
      44A      0.610611    45A      0.627765    46A      0.631544
      47A      0.639041    48A      0.639375    49A      0.667381
      50A      0.667503    51A      0.686201    52A      0.686302
      53A      0.757459    54A      0.830482    55A      0.830689
      56A      0.855540    57A      0.923056    58A      0.923338
      59A      0.945685    60A      0.953354    61A      0.966552
      62A      0.966917    63A      1.008920    64A      1.131622
      65A      1.132062    66A      1.156264    67A      1.167714
      68A      1.168480    69A      1.231904    70A      1.279939
      71A      1.280770    72A      1.285320    73A      1.329426
      74A      1.329588    75A      1.364891    76A      1.371080
      77A      1.371511    78A      1.393531    79A      1.408447
      80A      1.408709    81A      1.420911    82A      1.421559
      83A      1.428402    84A      1.492585    85A      1.510468
      86A      1.547577    87A      1.547588    88A      1.581951
      89A      1.581976    90A      1.673355    91A      1.745837
      92A      1.746243    93A      1.780957    94A      1.833574
      95A      1.834123    96A      1.971585    97A      2.024894
      98A      2.026071    99A      2.039780   100A      2.060064
     101A      2.061165   102A      2.746227   103A      2.746764
     104A      2.811377   105A      2.816492   106A      2.902570
     107A      2.903511   108A      2.925176   109A      2.931322
     110A      2.932218   111A      2.960196   112A      2.969227
     113A      2.969543   114A      3.042425   115A      3.080815
     116A      3.081676   117A      3.084770   118A      3.184466
     119A      3.184651   120A      3.188523   121A      3.289926
     122A      3.290430   123A      3.329981   124A      3.330758
     125A      3.383270   126A      3.492598   127A      3.493702
     128A      3.513607   129A      3.527211   130A      3.575837
     131A      3.581775   132A      3.582147   133A      3.671371
     134A      3.671836   135A      3.692368   136A      3.725415
     137A      3.725706   138A      3.780254   139A      3.781703
     140A      3.818444   141A      3.920972   142A      3.921895
     143A      4.044790   144A      4.117932   145A      4.118494
     146A      4.154963   147A      4.156847   148A      4.188963
     149A      4.207595   150A      4.208379   151A      4.210980
     152A      4.216357   153A      4.323296   154A      4.324579
     155A      4.361178   156A      4.433340   157A      4.433439
     158A      4.446152   159A      4.525065   160A      4.525449
     161A      4.587859   162A      4.588294   163A      4.625234
     164A      4.720248   165A      4.780903   166A      4.782101
     167A      4.838454   168A      4.967303   169A      5.008055
     170A      5.008537   171A      5.236547   172A      5.245586
     173A      5.245647   174A      5.363426   175A      5.364583
     176A      5.479734

    Final Occupation by Irrep:
              A
    DOCC [    16 ]
    SOCC [     1 ]

  @DF-UKS Final Energy:  -157.81305142408073

   => Energetics <=

    Nuclear Repulsion Energy =            125.4000915789770403
    One-Electron Energy =                -458.7598158060219475
    Two-Electron Energy =                 195.8539331781987869
    DFT Exchange-Correlation Energy =     -20.3072603752345877
    Empirical Dispersion Energy =           0.0000000000000000
    VV10 Nonlocal Energy =                  0.0000000000000000
    Total Energy =                       -157.8130514240807258

  UHF NO Occupations:
  HONO-2 :   15  A 1.9996032
  HONO-1 :   16  A 1.9989813
  HONO-0 :   17  A 1.0000000
  LUNO+0 :   18  A 0.0010187
  LUNO+1 :   19  A 0.0003968
  LUNO+2 :   20  A 0.0001986
  LUNO+3 :   21  A 0.0001965

Computation Completed

Properties will be evaluated at   0.000000,   0.000000,   0.000000 [a0]

Properties computed using the SCF density matrix

  Nuclear Dipole Moment: [e a0]
     X:     0.8215      Y:    -0.0000      Z:     0.0096

  Electronic Dipole Moment: [e a0]
     X:    -0.7404      Y:     0.0000      Z:    -0.0108

  Dipole Moment: [e a0]
     X:     0.0811      Y:     0.0000      Z:    -0.0012     Total:     0.0811

  Dipole Moment: [D]
     X:     0.2061      Y:     0.0000      Z:    -0.0031     Total:     0.2062

*** tstop() called on n073 at Fri Nov  5 13:55:30 2021
Module time:
	user time   =     574.40 seconds =       9.57 minutes
	system time =      13.31 seconds =       0.22 minutes
	total time  =        147 seconds =       2.45 minutes
Total time:
	user time   =     574.40 seconds =       9.57 minutes
	system time =      13.31 seconds =       0.22 minutes
	total time  =        147 seconds =       2.45 minutes
Grab this energy -157.81305142408073
    Psi4 stopped on: Friday, 05 November 2021 01:55PM
    Psi4 wall time for execution: 0:02:27.79

*** Psi4 exiting successfully. Buy a developer a beer!
