                               Psi4 1.4a2.dev629

  ==> Input File <==

--------------------------------------------------------------------------
import os
memory 14 GB

molecule {
 C   -0.3233379917   -0.0000017296   -0.0028612160
 C    0.0607198194   -1.3991452690   -2.4260211858
 C    0.0610249675    2.8017596471   -0.0026404613
 C    0.0615625930   -1.4026098541    2.4267407534
 H    2.0839218433   -1.6443906663   -2.8481012328
 H   -0.7625503052   -0.3861324811   -4.0248076778
 H   -0.7702745247   -3.2906403015   -2.3455862874
 H    2.0868016499    3.2881052207   -0.0001420938
 H   -0.7732151281    3.6782559104    1.6755351509
 H   -0.7580863466    3.6822372701   -1.6774347387
 H    2.0899530220   -1.6438037513    2.8467793062
 H   -0.7608696045   -3.2933437325    2.3523850548
 H   -0.7682578710   -0.3903145764    4.0261546284
units bohr
0 2
}

basis {

assign 6-31g_2dfp_

[ 6-31g_2dfp_ ]

spherical

!----------------------------------------------------------------------
! Basis Set Exchange
! Version v0.8.13
! https://www.basissetexchange.org
!----------------------------------------------------------------------
!   Basis set: 6-31G(2df,p)
! Description: 6-31G(2df,p)
!        Role: orbital
!     Version: 0  (Data from the original Basis Set Exchange)
!----------------------------------------------------------------------

****
H     0
S    3   1.00
     18.7311370              0.03349460
      2.8253937              0.23472695
      0.6401217              0.81375733
S    1   1.00
      0.1612778              1.00000000
P    1   1.00
      1.5000000              1.0000000
P    1   1.00
      0.3750000              1.0000000
****
B     0
S    6   1.00
   2068.8823000              0.0018663
    310.6495700              0.0142515
     70.6830330              0.0695516
     19.8610800              0.2325729
      6.2993048              0.4670787
      2.1270270              0.3634314
SP   3   1.00
      4.7279710             -0.1303938              0.0745976
      1.1903377             -0.1307889              0.3078467
      0.3594117              1.1309444              0.7434568
SP   1   1.00
      0.1267512              1.0000000              1.0000000
D    1   1.00
      0.8020000              1.0000000
D    1   1.00
      0.2005000              1.0000000
F    1   1.00
      0.5000000              1.0000000
****
C     0
S    6   1.00
   3047.5249000              0.0018347
    457.3695100              0.0140373
    103.9486900              0.0688426
     29.2101550              0.2321844
      9.2866630              0.4679413
      3.1639270              0.3623120
SP   3   1.00
      7.8682724             -0.1193324              0.0689991
      1.8812885             -0.1608542              0.3164240
      0.5442493              1.1434564              0.7443083
SP   1   1.00
      0.1687144              1.0000000              1.0000000
D    1   1.00
      1.2520000              1.0000000
D    1   1.00
      0.3130000              1.0000000
F    1   1.00
      0.8000000              1.0000000
****
N     0
S    6   1.00
   4173.5110000              0.0018348
    627.4579000              0.0139950
    142.9021000              0.0685870
     40.2343300              0.2322410
     12.8202100              0.4690700
      4.3904370              0.3604550
SP   3   1.00
     11.6263580             -0.1149610              0.0675800
      2.7162800             -0.1691180              0.3239070
      0.7722180              1.1458520              0.7408950
SP   1   1.00
      0.2120313              1.0000000              1.0000000
D    1   1.00
      1.8260000              1.0000000
D    1   1.00
      0.4565000              1.0000000
F    1   1.00
      1.0000000              1.0000000
****
O     0
S    6   1.00
   5484.6717000              0.0018311
    825.2349500              0.0139501
    188.0469600              0.0684451
     52.9645000              0.2327143
     16.8975700              0.4701930
      5.7996353              0.3585209
SP   3   1.00
     15.5396160             -0.1107775              0.0708743
      3.5999336             -0.1480263              0.3397528
      1.0137618              1.1307670              0.7271586
SP   1   1.00
      0.2700058              1.0000000              1.0000000
D    1   1.00
      2.5840000              1.0000000
D    1   1.00
      0.6460000              1.0000000
F    1   1.00
      1.4000000              1.0000000
****
F     0
S    6   1.00
   7001.7130900              0.0018196169
   1051.3660900              0.0139160796
    239.2856900              0.0684053245
     67.3974453              0.233185760
     21.5199573              0.471267439
      7.40310130             0.356618546
SP   3   1.00
     20.8479528             -0.108506975            0.0716287243
      4.80830834            -0.146451658            0.3459121030
      1.34406986             1.128688580            0.7224699570
SP   1   1.00
      0.358151393            1.0000000              1.0000000
D    1   1.00
      3.5000000              1.0000000
D    1   1.00
      0.8750000              1.0000000
F    1   1.00
      1.8500000              1.0000000
****
Al     0
S    6   1.00
  13983.1000000              0.00194267
   2098.7500000              0.0148599
    477.7050000              0.0728494
    134.3600000              0.2468300
     42.8709000              0.4872580
     14.5189000              0.3234960
SP   6   1.00
    239.6680000             -0.00292619             0.00460285
     57.4419000             -0.0374080              0.0331990
     18.2859000             -0.1144870              0.1362820
      6.5991400              0.1156350              0.3304760
      2.4904900              0.6125950              0.4491460
      0.9445400              0.3937990              0.2657040
SP   3   1.00
      1.2779000             -0.2276060             -0.0175130
      0.3975900              0.00144583             0.2445330
      0.1600950              1.0927900              0.8049340
SP   1   1.00
      0.0556577              1.0000000              1.0000000
D    1   1.00
      0.6500000              1.0000000
D    1   1.00
      0.1625000              1.0000000
F    1   1.00
      0.2500000              1.0000000
****
Si     0
S    6   1.00
  16115.9000000              0.00195948
   2425.5800000              0.01492880
    553.8670000              0.07284780
    156.3400000              0.24613000
     50.0683000              0.48591400
     17.0178000              0.32500200
SP   6   1.00
    292.7180000             -0.00278094             0.00443826
     69.8731000             -0.03571460             0.03266790
     22.3363000             -0.11498500             0.13472100
      8.1503900              0.09356340             0.32867800
      3.1345800              0.60301700             0.44964000
      1.2254300              0.41895900             0.26137200
SP   3   1.00
      1.7273800             -0.24463000            -0.01779510
      0.5729220              0.00431572             0.25353900
      0.2221920              1.09818000             0.80066900
SP   1   1.00
      0.0778369              1.00000000             1.00000000
D    1   1.00
      0.9000000              1.0000000
D    1   1.00
      0.2250000              1.0000000
F    1   1.00
      0.3200000              1.0000000
****
P     0
S    6   1.00
  19413.3000000              0.0018516
   2909.4200000              0.0142062
    661.3640000              0.0699995
    185.7590000              0.2400790
     59.1943000              0.4847620
     20.0310000              0.3352000
SP   6   1.00
    339.4780000             -0.00278217             0.00456462
     81.0101000             -0.0360499              0.03369360
     25.8780000             -0.1166310              0.13975500
      9.4522100              0.0968328              0.33936200
      3.6656600              0.6144180              0.45092100
      1.4674600              0.4037980              0.23858600
SP   3   1.00
      2.1562300             -0.2529230             -0.01776530
      0.7489970              0.0328517              0.27405800
      0.2831450              1.0812500              0.78542100
SP   1   1.00
      0.0998317              1.0000000              1.00000000
D    1   1.00
      1.1000000              1.0000000
D    1   1.00
      0.2750000              1.0000000
F    1   1.00
      0.4500000              1.0000000
****
S     0
S    6   1.00
  21917.1000000              0.0018690
   3301.4900000              0.0142300
    754.1460000              0.0696960
    212.7110000              0.2384870
     67.9896000              0.4833070
     23.0515000              0.3380740
SP   6   1.00
    423.7350000             -0.0023767              0.0040610
    100.7100000             -0.0316930              0.0306810
     32.1599000             -0.1133170              0.1304520
     11.8079000              0.0560900              0.3272050
      4.6311000              0.5922550              0.4528510
      1.8702500              0.4550060              0.2560420
SP   3   1.00
      2.6158400             -0.2503740             -0.0145110
      0.9221670              0.0669570              0.3102630
      0.3412870              1.0545100              0.7544830
SP   1   1.00
      0.1171670              1.0000000              1.0000000
D    1   1.00
      1.3000000              1.0000000
D    1   1.00
      0.3250000              1.0000000
F    1   1.00
      0.5500000              1.0000000
****
Cl     0
S    6   1.00
  25180.1000000              0.0018330
   3780.3500000              0.0140340
    860.4740000              0.0690970
    242.1450000              0.2374520
     77.3349000              0.4830340
     26.2470000              0.3398560
SP   6   1.00
    491.7650000             -0.0022974              0.0039894
    116.9840000             -0.0307140              0.0303180
     37.4153000             -0.1125280              0.1298800
     13.7834000              0.0450160              0.3279510
      5.4521500              0.5893530              0.4535270
      2.2258800              0.4652060              0.2521540
SP   3   1.00
      3.1864900             -0.2518300             -0.0142990
      1.1442700              0.0615890              0.3235720
      0.4203770              1.0601800              0.7435070
SP   1   1.00
      0.1426570              1.0000000              1.0000000
D    1   1.00
      1.5000000              1.0000000
D    1   1.00
      0.3750000              1.0000000
F    1   1.00
      0.7000000              1.0000000
****
}

set {
reference uhf
freeze_core true
e_convergence 10
d_convergence 10
dft_spherical_points 1202
dft_radial_points 99
}

e = energy('b3lyp')

print_out('Grab this energy {0}'.format(e))
--------------------------------------------------------------------------

    Molecular point group: c1

    Geometry (in Bohr), charge = 0, multiplicity = 2:

       Center              X                  Y                   Z               Mass
    ------------   -----------------  -----------------  -----------------  -----------------
         C           -0.323339797016    -0.000001838462    -0.001940147230    12.000000000000
         C            0.060718014084    -1.399145377862    -2.425100117030    12.000000000000
         C            0.061023162184     2.801759538238    -0.001719392530    12.000000000000
         C            0.061560787684    -1.402609962962     2.427661822170    12.000000000000
         H            2.083920037984    -1.644390775162    -2.847180164030     1.007825032230
         H           -0.762552110516    -0.386132589962    -4.023886609030     1.007825032230
         H           -0.770276330016    -3.290640410362    -2.344665218630     1.007825032230
         H            2.086799844584     3.288105111838     0.000778974970     1.007825032230
         H           -0.773216933416     3.678255801538     1.676456219670     1.007825032230
         H           -0.758088151916     3.682237161238    -1.676513669930     1.007825032230
         H            2.089951216684    -1.643803860162     2.847700374970     1.007825032230
         H           -0.760871409816    -3.293343841362     2.353306123570     1.007825032230
         H           -0.768259676316    -0.390314685262     4.027075697170     1.007825032230

  Charge       = 0
  Multiplicity = 2
  Basis Set: ANONYMOUS89844500
    Blend: 6-31G_2DFP_
  Basis Set: (ANONYMOUS89844500 AUX)
    Blend: DEF2-UNIVERSAL-JKFIT

    Orbital Energies [Eh]
    ---------------------

    Alpha Occupied:

       1A    -10.180342     2A    -10.167198     3A    -10.167015
       4A    -10.166831     5A     -0.797768     6A     -0.686270
       7A     -0.686104     8A     -0.530778     9A     -0.441126
      10A     -0.434787    11A     -0.434556    12A     -0.382666
      13A     -0.382531    14A     -0.363615    15A     -0.338009
      16A     -0.337982    17A     -0.168960

    Alpha Virtual:

      18A      0.076070    19A      0.134104    20A      0.134205
      21A      0.142434    22A      0.142820    23A      0.154880
      24A      0.178687    25A      0.178867    26A      0.203549
      27A      0.214800    28A      0.275541    29A      0.276432
      30A      0.398977    31A      0.399455    32A      0.403366
      33A      0.423970    34A      0.424226    35A      0.456596
      36A      0.495289    37A      0.495491    38A      0.512161
      39A      0.513979    40A      0.578572    41A      0.579063
      42A      0.591263    43A      0.592003    44A      0.602578
      45A      0.624727    46A      0.631753    47A      0.635903
      48A      0.636645    49A      0.662999    50A      0.663829
      51A      0.683636    52A      0.684076    53A      0.734995
      54A      0.825125    55A      0.825689    56A      0.853916
      57A      0.914945    58A      0.915108    59A      0.944121
      60A      0.944598    61A      0.961255    62A      0.961343
      63A      1.003453    64A      1.127778    65A      1.128427
      66A      1.142213    67A      1.163103    68A      1.163463
      69A      1.223316    70A      1.274058    71A      1.274912
      72A      1.279376    73A      1.324027    74A      1.324690
      75A      1.355989    76A      1.365448    77A      1.366642
      78A      1.392470    79A      1.403692    80A      1.404421
      81A      1.416662    82A      1.417533    83A      1.427899
      84A      1.491495    85A      1.499072    86A      1.542725
      87A      1.542957    88A      1.574430    89A      1.574468
      90A      1.669829    91A      1.738448    92A      1.740395
      93A      1.768302    94A      1.831036    95A      1.831758
      96A      1.971731    97A      2.017910    98A      2.018709
      99A      2.019781   100A      2.051144   101A      2.054144
     102A      2.738242   103A      2.738712   104A      2.790934
     105A      2.811426   106A      2.889361   107A      2.890491
     108A      2.894991   109A      2.929350   110A      2.929647
     111A      2.958947   112A      2.964198   113A      2.964608
     114A      3.034019   115A      3.070989   116A      3.071496
     117A      3.084444   118A      3.168293   119A      3.169226
     120A      3.180638   121A      3.285193   122A      3.285422
     123A      3.326330   124A      3.327979   125A      3.375637
     126A      3.490118   127A      3.490206   128A      3.514008
     129A      3.525301   130A      3.568006   131A      3.568801
     132A      3.575114   133A      3.666106   134A      3.666674
     135A      3.679712   136A      3.694001   137A      3.694216
     138A      3.775552   139A      3.778000   140A      3.789146
     141A      3.912146   142A      3.912324   143A      4.034449
     144A      4.109791   145A      4.112889   146A      4.147811
     147A      4.148342   148A      4.173300   149A      4.202359
     150A      4.202936   151A      4.203559   152A      4.210922
     153A      4.315831   154A      4.316121   155A      4.358969
     156A      4.424396   157A      4.424492   158A      4.443457
     159A      4.515037   160A      4.518648   161A      4.577556
     162A      4.578895   163A      4.617605   164A      4.709439
     165A      4.774239   166A      4.774985   167A      4.836932
     168A      4.962852   169A      5.001971   170A      5.003957
     171A      5.227623   172A      5.246704   173A      5.247286
     174A      5.353299   175A      5.357730   176A      5.479389

    Beta Occupied:

       1A    -10.167954     2A    -10.167775     3A    -10.167595
       4A    -10.166519     5A     -0.781093     6A     -0.684059
       7A     -0.683920     8A     -0.511750     9A     -0.431152
      10A     -0.430934    11A     -0.421822    12A     -0.376735
      13A     -0.376632    14A     -0.362599    15A     -0.333127
      16A     -0.333109

    Beta Virtual:

      17A     -0.025742    18A      0.077079    19A      0.134973
      20A      0.135117    21A      0.144287    22A      0.144708
      23A      0.163338    24A      0.182352    25A      0.182547
      26A      0.215029    27A      0.218931    28A      0.281900
      29A      0.282768    30A      0.400145    31A      0.400643
      32A      0.419794    33A      0.426794    34A      0.427024
      35A      0.468505    36A      0.497552    37A      0.497750
      38A      0.513896    39A      0.556324    40A      0.584112
      41A      0.584623    42A      0.597439    43A      0.598184
      44A      0.610003    45A      0.628098    46A      0.631916
      47A      0.639185    48A      0.639930    49A      0.666589
      50A      0.667366    51A      0.686307    52A      0.686677
      53A      0.757518    54A      0.830333    55A      0.830817
      56A      0.855269    57A      0.922940    58A      0.923056
      59A      0.945957    60A      0.953521    61A      0.966575
      62A      0.966639    63A      1.008693    64A      1.131758
      65A      1.132504    66A      1.155592    67A      1.168243
      68A      1.168467    69A      1.232288    70A      1.279629
      71A      1.280527    72A      1.285139    73A      1.329029
      74A      1.329664    75A      1.365405    76A      1.370792
      77A      1.371783    78A      1.393526    79A      1.407112
      80A      1.407932    81A      1.421756    82A      1.422541
      83A      1.428169    84A      1.492544    85A      1.509515
      86A      1.547192    87A      1.547307    88A      1.582295
      89A      1.582345    90A      1.674676    91A      1.744183
      92A      1.746186    93A      1.779079    94A      1.834894
      95A      1.835611    96A      1.972592    97A      2.024801
      98A      2.026078    99A      2.039696   100A      2.057881
     101A      2.060839   102A      2.746541   103A      2.747087
     104A      2.811838   105A      2.816066   106A      2.902083
     107A      2.903188   108A      2.924637   109A      2.931794
     110A      2.932178   111A      2.960028   112A      2.968759
     113A      2.969122   114A      3.041953   115A      3.080776
     116A      3.081386   117A      3.086407   118A      3.183945
     119A      3.184947   120A      3.188445   121A      3.289984
     122A      3.290229   123A      3.330107   124A      3.331810
     125A      3.383456   126A      3.492879   127A      3.492907
     128A      3.512377   129A      3.528349   130A      3.574964
     131A      3.581456   132A      3.582032   133A      3.670862
     134A      3.671419   135A      3.692987   136A      3.725607
     137A      3.725885   138A      3.780155   139A      3.782451
     140A      3.817688   141A      3.921852   142A      3.922251
     143A      4.045336   144A      4.116404   145A      4.119918
     146A      4.155240   147A      4.155338   148A      4.187334
     149A      4.208684   150A      4.209272   151A      4.210747
     152A      4.215398   153A      4.323343   154A      4.323492
     155A      4.362331   156A      4.432590   157A      4.432704
     158A      4.446363   159A      4.522831   160A      4.526433
     161A      4.588120   162A      4.589530   163A      4.624802
     164A      4.719785   165A      4.781179   166A      4.781952
     167A      4.839849   168A      4.967646   169A      5.005994
     170A      5.008013   171A      5.233242   172A      5.248504
     173A      5.249154   174A      5.359768   175A      5.364220
     176A      5.481711

    Final Occupation by Irrep:
              A
    DOCC [    16 ]
    SOCC [     1 ]

  @DF-UKS Final Energy:  -157.81305916251199

   => Energetics <=

    Nuclear Repulsion Energy =            125.3946617332543809
    One-Electron Energy =                -458.7489624702450897
    Two-Electron Energy =                 195.8483877674521523
    DFT Exchange-Correlation Energy =     -20.3071461929734518
    Empirical Dispersion Energy =           0.0000000000000000
    VV10 Nonlocal Energy =                  0.0000000000000000
    Total Energy =                       -157.8130591625119905

  UHF NO Occupations:
  HONO-2 :   15  A 1.9996009
  HONO-1 :   16  A 1.9989805
  HONO-0 :   17  A 1.0000000
  LUNO+0 :   18  A 0.0010195
  LUNO+1 :   19  A 0.0003991
  LUNO+2 :   20  A 0.0001981
  LUNO+3 :   21  A 0.0001970

Computation Completed

Properties will be evaluated at   0.000000,   0.000000,   0.000000 [a0]

Properties computed using the SCF density matrix

  Nuclear Dipole Moment: [e a0]
     X:     0.8272      Y:    -0.0000      Z:     0.0065

  Electronic Dipole Moment: [e a0]
     X:    -0.7493      Y:     0.0000      Z:    -0.0082

  Dipole Moment: [e a0]
     X:     0.0779      Y:    -0.0000      Z:    -0.0017     Total:     0.0779

  Dipole Moment: [D]
     X:     0.1980      Y:    -0.0000      Z:    -0.0043     Total:     0.1981

*** tstop() called on n036 at Fri Nov  5 14:38:30 2021
Module time:
	user time   =     635.81 seconds =      10.60 minutes
	system time =      12.15 seconds =       0.20 minutes
	total time  =        163 seconds =       2.72 minutes
Total time:
	user time   =     635.81 seconds =      10.60 minutes
	system time =      12.15 seconds =       0.20 minutes
	total time  =        163 seconds =       2.72 minutes
Grab this energy -157.813059162512
    Psi4 stopped on: Friday, 05 November 2021 02:38PM
    Psi4 wall time for execution: 0:02:42.91

*** Psi4 exiting successfully. Buy a developer a beer!
