                               Psi4 1.4a2.dev629

  ==> Input File <==

--------------------------------------------------------------------------
import os
memory 14 GB

molecule {
 C   -0.3230307672    0.0049784798    0.0000000000
 C    0.0613029162   -1.4008410189   -2.4155382859
 C    0.0602815631    2.8042105489   -0.0000000000
 C    0.0613029162   -1.4008410189    2.4155382859
 H    2.0870311493   -1.6468492019   -2.8329356439
 H   -0.7623290675   -0.3940278347   -4.0181990161
 H   -0.7672628750   -3.2903724515   -2.3308172905
 H    2.0857311446    3.2906542574   -0.0000000000
 H   -0.7665370316    3.6821567071    1.6763117707
 H   -0.7665370316    3.6821567071   -1.6763117707
 H    2.0870311493   -1.6468492019    2.8329356439
 H   -0.7672628750   -3.2903724515    2.3308172905
 H   -0.7623290675   -0.3940278347    4.0181990161
units bohr
0 2
}

basis {

assign 6-31g_2dfp_

[ 6-31g_2dfp_ ]

spherical

!----------------------------------------------------------------------
! Basis Set Exchange
! Version v0.8.13
! https://www.basissetexchange.org
!----------------------------------------------------------------------
!   Basis set: 6-31G(2df,p)
! Description: 6-31G(2df,p)
!        Role: orbital
!     Version: 0  (Data from the original Basis Set Exchange)
!----------------------------------------------------------------------

****
H     0
S    3   1.00
     18.7311370              0.03349460
      2.8253937              0.23472695
      0.6401217              0.81375733
S    1   1.00
      0.1612778              1.00000000
P    1   1.00
      1.5000000              1.0000000
P    1   1.00
      0.3750000              1.0000000
****
B     0
S    6   1.00
   2068.8823000              0.0018663
    310.6495700              0.0142515
     70.6830330              0.0695516
     19.8610800              0.2325729
      6.2993048              0.4670787
      2.1270270              0.3634314
SP   3   1.00
      4.7279710             -0.1303938              0.0745976
      1.1903377             -0.1307889              0.3078467
      0.3594117              1.1309444              0.7434568
SP   1   1.00
      0.1267512              1.0000000              1.0000000
D    1   1.00
      0.8020000              1.0000000
D    1   1.00
      0.2005000              1.0000000
F    1   1.00
      0.5000000              1.0000000
****
C     0
S    6   1.00
   3047.5249000              0.0018347
    457.3695100              0.0140373
    103.9486900              0.0688426
     29.2101550              0.2321844
      9.2866630              0.4679413
      3.1639270              0.3623120
SP   3   1.00
      7.8682724             -0.1193324              0.0689991
      1.8812885             -0.1608542              0.3164240
      0.5442493              1.1434564              0.7443083
SP   1   1.00
      0.1687144              1.0000000              1.0000000
D    1   1.00
      1.2520000              1.0000000
D    1   1.00
      0.3130000              1.0000000
F    1   1.00
      0.8000000              1.0000000
****
N     0
S    6   1.00
   4173.5110000              0.0018348
    627.4579000              0.0139950
    142.9021000              0.0685870
     40.2343300              0.2322410
     12.8202100              0.4690700
      4.3904370              0.3604550
SP   3   1.00
     11.6263580             -0.1149610              0.0675800
      2.7162800             -0.1691180              0.3239070
      0.7722180              1.1458520              0.7408950
SP   1   1.00
      0.2120313              1.0000000              1.0000000
D    1   1.00
      1.8260000              1.0000000
D    1   1.00
      0.4565000              1.0000000
F    1   1.00
      1.0000000              1.0000000
****
O     0
S    6   1.00
   5484.6717000              0.0018311
    825.2349500              0.0139501
    188.0469600              0.0684451
     52.9645000              0.2327143
     16.8975700              0.4701930
      5.7996353              0.3585209
SP   3   1.00
     15.5396160             -0.1107775              0.0708743
      3.5999336             -0.1480263              0.3397528
      1.0137618              1.1307670              0.7271586
SP   1   1.00
      0.2700058              1.0000000              1.0000000
D    1   1.00
      2.5840000              1.0000000
D    1   1.00
      0.6460000              1.0000000
F    1   1.00
      1.4000000              1.0000000
****
F     0
S    6   1.00
   7001.7130900              0.0018196169
   1051.3660900              0.0139160796
    239.2856900              0.0684053245
     67.3974453              0.233185760
     21.5199573              0.471267439
      7.40310130             0.356618546
SP   3   1.00
     20.8479528             -0.108506975            0.0716287243
      4.80830834            -0.146451658            0.3459121030
      1.34406986             1.128688580            0.7224699570
SP   1   1.00
      0.358151393            1.0000000              1.0000000
D    1   1.00
      3.5000000              1.0000000
D    1   1.00
      0.8750000              1.0000000
F    1   1.00
      1.8500000              1.0000000
****
Al     0
S    6   1.00
  13983.1000000              0.00194267
   2098.7500000              0.0148599
    477.7050000              0.0728494
    134.3600000              0.2468300
     42.8709000              0.4872580
     14.5189000              0.3234960
SP   6   1.00
    239.6680000             -0.00292619             0.00460285
     57.4419000             -0.0374080              0.0331990
     18.2859000             -0.1144870              0.1362820
      6.5991400              0.1156350              0.3304760
      2.4904900              0.6125950              0.4491460
      0.9445400              0.3937990              0.2657040
SP   3   1.00
      1.2779000             -0.2276060             -0.0175130
      0.3975900              0.00144583             0.2445330
      0.1600950              1.0927900              0.8049340
SP   1   1.00
      0.0556577              1.0000000              1.0000000
D    1   1.00
      0.6500000              1.0000000
D    1   1.00
      0.1625000              1.0000000
F    1   1.00
      0.2500000              1.0000000
****
Si     0
S    6   1.00
  16115.9000000              0.00195948
   2425.5800000              0.01492880
    553.8670000              0.07284780
    156.3400000              0.24613000
     50.0683000              0.48591400
     17.0178000              0.32500200
SP   6   1.00
    292.7180000             -0.00278094             0.00443826
     69.8731000             -0.03571460             0.03266790
     22.3363000             -0.11498500             0.13472100
      8.1503900              0.09356340             0.32867800
      3.1345800              0.60301700             0.44964000
      1.2254300              0.41895900             0.26137200
SP   3   1.00
      1.7273800             -0.24463000            -0.01779510
      0.5729220              0.00431572             0.25353900
      0.2221920              1.09818000             0.80066900
SP   1   1.00
      0.0778369              1.00000000             1.00000000
D    1   1.00
      0.9000000              1.0000000
D    1   1.00
      0.2250000              1.0000000
F    1   1.00
      0.3200000              1.0000000
****
P     0
S    6   1.00
  19413.3000000              0.0018516
   2909.4200000              0.0142062
    661.3640000              0.0699995
    185.7590000              0.2400790
     59.1943000              0.4847620
     20.0310000              0.3352000
SP   6   1.00
    339.4780000             -0.00278217             0.00456462
     81.0101000             -0.0360499              0.03369360
     25.8780000             -0.1166310              0.13975500
      9.4522100              0.0968328              0.33936200
      3.6656600              0.6144180              0.45092100
      1.4674600              0.4037980              0.23858600
SP   3   1.00
      2.1562300             -0.2529230             -0.01776530
      0.7489970              0.0328517              0.27405800
      0.2831450              1.0812500              0.78542100
SP   1   1.00
      0.0998317              1.0000000              1.00000000
D    1   1.00
      1.1000000              1.0000000
D    1   1.00
      0.2750000              1.0000000
F    1   1.00
      0.4500000              1.0000000
****
S     0
S    6   1.00
  21917.1000000              0.0018690
   3301.4900000              0.0142300
    754.1460000              0.0696960
    212.7110000              0.2384870
     67.9896000              0.4833070
     23.0515000              0.3380740
SP   6   1.00
    423.7350000             -0.0023767              0.0040610
    100.7100000             -0.0316930              0.0306810
     32.1599000             -0.1133170              0.1304520
     11.8079000              0.0560900              0.3272050
      4.6311000              0.5922550              0.4528510
      1.8702500              0.4550060              0.2560420
SP   3   1.00
      2.6158400             -0.2503740             -0.0145110
      0.9221670              0.0669570              0.3102630
      0.3412870              1.0545100              0.7544830
SP   1   1.00
      0.1171670              1.0000000              1.0000000
D    1   1.00
      1.3000000              1.0000000
D    1   1.00
      0.3250000              1.0000000
F    1   1.00
      0.5500000              1.0000000
****
Cl     0
S    6   1.00
  25180.1000000              0.0018330
   3780.3500000              0.0140340
    860.4740000              0.0690970
    242.1450000              0.2374520
     77.3349000              0.4830340
     26.2470000              0.3398560
SP   6   1.00
    491.7650000             -0.0022974              0.0039894
    116.9840000             -0.0307140              0.0303180
     37.4153000             -0.1125280              0.1298800
     13.7834000              0.0450160              0.3279510
      5.4521500              0.5893530              0.4535270
      2.2258800              0.4652060              0.2521540
SP   3   1.00
      3.1864900             -0.2518300             -0.0142990
      1.1442700              0.0615890              0.3235720
      0.4203770              1.0601800              0.7435070
SP   1   1.00
      0.1426570              1.0000000              1.0000000
D    1   1.00
      1.5000000              1.0000000
D    1   1.00
      0.3750000              1.0000000
F    1   1.00
      0.7000000              1.0000000
****
}

set {
reference uhf
freeze_core true
e_convergence 10
d_convergence 10
dft_spherical_points 1202
dft_radial_points 99
}

e = energy('b3lyp')

print_out('Grab this energy {0}'.format(e))
--------------------------------------------------------------------------

    Molecular point group: cs

    Geometry (in Bohr), charge = 0, multiplicity = 2:

       Center              X                  Y                   Z               Mass
    ------------   -----------------  -----------------  -----------------  -----------------
         C           -0.323010854147     0.003533008646     0.000000000000    12.000000000000
         C            0.061322829253    -1.402286490054    -2.415538285900    12.000000000000
         C            0.060301476153     2.802765077746     0.000000000000    12.000000000000
         C            0.061322829253    -1.402286490054     2.415538285900    12.000000000000
         H            2.087051062353    -1.648294673054    -2.832935643900     1.007825032230
         H           -0.762309154447    -0.395473305854    -4.018199016100     1.007825032230
         H           -0.767242961947    -3.291817922654    -2.330817290500     1.007825032230
         H            2.085751057653     3.289208786246     0.000000000000     1.007825032230
         H           -0.766517118547     3.680711235946     1.676311770700     1.007825032230
         H           -0.766517118547     3.680711235946    -1.676311770700     1.007825032230
         H            2.087051062353    -1.648294673054     2.832935643900     1.007825032230
         H           -0.767242961947    -3.291817922654     2.330817290500     1.007825032230
         H           -0.762309154447    -0.395473305854     4.018199016100     1.007825032230

  Charge       = 0
  Multiplicity = 2
  Basis Set: ANONYMOUSE49C9031
    Blend: 6-31G_2DFP_
  Basis Set: (ANONYMOUSE49C9031 AUX)
    Blend: DEF2-UNIVERSAL-JKFIT

    Orbital Energies [Eh]
    ---------------------

    Alpha Occupied:

       1Ap   -10.179568     2Ap   -10.166967     1App  -10.166513
       3Ap   -10.166481     4Ap    -0.798820     5Ap    -0.686711
       2App   -0.686264     6Ap    -0.530775     7Ap    -0.441723
       8Ap    -0.435418     3App   -0.434886     9Ap    -0.382820
       4App   -0.382525     5App   -0.363492    10Ap    -0.338464
       6App   -0.337907    11Ap    -0.168636

    Alpha Virtual:

      12Ap     0.076043    13Ap     0.133952     7App    0.134436
      14Ap     0.142691     8App    0.142971    15Ap     0.154943
      16Ap     0.178730     9App    0.179179    17Ap     0.204638
      10App    0.215153    18Ap     0.276333    11App    0.276680
      19Ap     0.398991    12App    0.399349    20Ap     0.403204
      21Ap     0.423708    13App    0.423952    22Ap     0.457178
      23Ap     0.495208    14App    0.496018    15App    0.512510
      24Ap     0.514389    25Ap     0.579212    16App    0.579757
      26Ap     0.592172    17App    0.592194    27Ap     0.603037
      28Ap     0.625174    18App    0.632123    19App    0.636848
      29Ap     0.637290    30Ap     0.663670    20App    0.664105
      31Ap     0.684058    21App    0.684563    32Ap     0.734787
      33Ap     0.824424    22App    0.826067    23App    0.854915
      34Ap     0.915499    24App    0.916014    35Ap     0.943938
      25App    0.945386    26App    0.962085    36Ap     0.962628
      37Ap     1.004601    38Ap     1.127837    27App    1.130192
      39Ap     1.142563    40Ap     1.163537    28App    1.164529
      41Ap     1.224239    42Ap     1.274885    29App    1.275923
      43Ap     1.279867    30App    1.324596    44Ap     1.324781
      45Ap     1.356164    46Ap     1.367161    31App    1.368551
      32App    1.393940    47Ap     1.402953    33App    1.404647
      48Ap     1.417027    34App    1.417964    35App    1.429337
      36App    1.492657    49Ap     1.499644    50Ap     1.543173
      37App    1.543961    51Ap     1.573761    38App    1.577553
      52Ap     1.669760    53Ap     1.738952    39App    1.741102
      54Ap     1.769866    55Ap     1.832075    40App    1.833114
      41App    1.973114    56Ap     2.018691    57Ap     2.020595
      42App    2.021635    58Ap     2.054621    43App    2.059764
      59Ap     2.738797    44App    2.739362    60Ap     2.792075
      45App    2.814169    46App    2.891006    61Ap     2.891156
      62Ap     2.896458    63Ap     2.929495    47App    2.929864
      48App    2.959228    64Ap     2.963167    49App    2.965003
      65Ap     3.033970    66Ap     3.071256    50App    3.073214
      51App    3.085968    67Ap     3.168855    52App    3.170454
      68Ap     3.182459    53App    3.285111    69Ap     3.286497
      70Ap     3.326646    54App    3.328558    71Ap     3.374275
      72Ap     3.491447    55App    3.492358    56App    3.514808
      73Ap     3.527619    74Ap     3.567245    57App    3.569333
      58App    3.577473    75Ap     3.666222    59App    3.666476
      76Ap     3.681630    60App    3.695114    77Ap     3.696021
      61App    3.780489    78Ap     3.781933    79Ap     3.790034
      80Ap     3.912890    62App    3.915738    81Ap     4.036322
      82Ap     4.112844    63App    4.115569    83Ap     4.147226
      64App    4.150534    84Ap     4.174445    85Ap     4.203662
      86Ap     4.204192    65App    4.207004    66App    4.212574
      67App    4.317481    87Ap     4.317506    68App    4.361517
      88Ap     4.426377    69App    4.426557    70App    4.445979
      89Ap     4.518971    71App    4.520747    90Ap     4.580784
      72App    4.582890    91Ap     4.624894    92Ap     4.714226
      93Ap     4.779748    73App    4.782320    74App    4.840887
      94Ap     4.965927    95Ap     5.003612    75App    5.005541
      96Ap     5.229047    76App    5.248078    97Ap     5.248401
      98Ap     5.357415    77App    5.358832    78App    5.485095

    Beta Occupied:

       1Ap   -10.167725     1App  -10.167268     2Ap   -10.167249
       3Ap   -10.165772     4Ap    -0.782123     5Ap    -0.684497
       2App   -0.684043     6Ap    -0.511846     7Ap    -0.431780
       3App   -0.431229     8Ap    -0.422324     9Ap    -0.376878
       4App   -0.376564     5App   -0.362464    10Ap    -0.333595
       6App   -0.333031

    Beta Virtual:

      11Ap    -0.025712    12Ap     0.077063    13Ap     0.134827
       7App    0.135330    14Ap     0.144596     8App    0.144864
      15Ap     0.163447    16Ap     0.182417     9App    0.182887
      10App    0.215390    17Ap     0.219840    18Ap     0.282599
      11App    0.282970    19Ap     0.400274    12App    0.400527
      20Ap     0.419492    21Ap     0.426495    13App    0.426769
      22Ap     0.469444    23Ap     0.497483    14App    0.498296
      15App    0.514261    24Ap     0.556652    25Ap     0.584803
      16App    0.585283    26Ap     0.598271    17App    0.598328
      27Ap     0.610500    28Ap     0.628616    18App    0.632290
      19App    0.640189    29Ap     0.640667    30Ap     0.667165
      20App    0.667650    31Ap     0.686721    21App    0.687333
      32Ap     0.757130    33Ap     0.829601    22App    0.831261
      23App    0.856305    34Ap     0.923469    24App    0.924012
      25App    0.947250    35Ap     0.952766    26App    0.967341
      36Ap     0.968023    37Ap     1.009764    38Ap     1.131875
      27App    1.134213    39Ap     1.155948    40Ap     1.168584
      28App    1.169637    41Ap     1.233347    42Ap     1.280517
      29App    1.281560    43Ap     1.285554    30App    1.329570
      44Ap     1.329784    45Ap     1.365611    46Ap     1.372287
      31App    1.373884    32App    1.395010    47Ap     1.406438
      33App    1.408050    48Ap     1.422122    34App    1.423064
      35App    1.429643    36App    1.493707    49Ap     1.510152
      50Ap     1.547417    37App    1.548417    51Ap     1.581853
      38App    1.585341    52Ap     1.674613    53Ap     1.744723
      39App    1.746863    54Ap     1.780669    55Ap     1.835930
      40App    1.837004    41App    1.973979    56Ap     2.025056
      42App    2.028106    57Ap     2.042020    58Ap     2.061453
      43App    2.066416    59Ap     2.746992    44App    2.747648
      45App    2.814586    60Ap     2.817190    46App    2.903501
      61Ap     2.903570    62Ap     2.926225    63Ap     2.932255
      47App    2.932423    48App    2.960306    64Ap     2.967803
      49App    2.969570    65Ap     3.041992    66Ap     3.081142
      50App    3.083179    51App    3.087953    67Ap     3.184609
      52App    3.185969    68Ap     3.190085    53App    3.290153
      69Ap     3.291410    70Ap     3.330369    54App    3.332297
      71Ap     3.382076    72Ap     3.494177    55App    3.495067
      56App    3.513175    73Ap     3.530626    57App    3.576890
      74Ap     3.580584    58App    3.583134    75Ap     3.670845
      59App    3.671144    76Ap     3.694907    60App    3.726616
      77Ap     3.727420    61App    3.785033    78Ap     3.786652
      79Ap     3.818309    80Ap     3.922713    62App    3.925562
      81Ap     4.047145    82Ap     4.119383    63App    4.122093
      83Ap     4.154686    64App    4.157885    84Ap     4.188621
      85Ap     4.209652    86Ap     4.212145    65App    4.212910
      66App    4.217172    67App    4.324936    87Ap     4.324995
      68App    4.364858    88Ap     4.434725    69App    4.434807
      70App    4.448925    89Ap     4.526988    71App    4.528559
      90Ap     4.591324    72App    4.593589    91Ap     4.632067
      92Ap     4.724655    93Ap     4.786669    73App    4.789309
      74App    4.843804    94Ap     4.970743    95Ap     5.007693
      75App    5.009618    96Ap     5.234799    76App    5.249869
      97Ap     5.250204    98Ap     5.363932    77App    5.365386
      78App    5.487439

    Final Occupation by Irrep:
             Ap   App
    DOCC [    10,    6 ]
    SOCC [     1,    0 ]

  @DF-UKS Final Energy:  -157.81303428800567

   => Energetics <=

    Nuclear Repulsion Energy =            125.5763881006786278
    One-Electron Energy =                -459.1067271484928938
    Two-Electron Energy =                 196.0282587685463227
    DFT Exchange-Correlation Energy =     -20.3109540087377169
    Empirical Dispersion Energy =           0.0000000000000000
    VV10 Nonlocal Energy =                  0.0000000000000000
    Total Energy =                       -157.8130342880056673

  UHF NO Occupations:
  HONO-2 :    9 Ap 1.9995992
  HONO-1 :   10 Ap 1.9989874
  HONO-0 :   11 Ap 1.0000000
  LUNO+0 :   12 Ap 0.0010126
  LUNO+1 :   13 Ap 0.0004008
  LUNO+2 :    7App 0.0001957
  LUNO+3 :   14 Ap 0.0001950

Computation Completed

Properties will be evaluated at   0.000000,   0.000000,   0.000000 [a0]

Properties computed using the SCF density matrix

  Nuclear Dipole Moment: [e a0]
     X:     0.8273      Y:    -0.0102      Z:    -0.0000

  Electronic Dipole Moment: [e a0]
     X:    -0.7503      Y:     0.0109      Z:     0.0000

  Dipole Moment: [e a0]
     X:     0.0770      Y:     0.0008      Z:    -0.0000     Total:     0.0770

  Dipole Moment: [D]
     X:     0.1958      Y:     0.0019      Z:    -0.0000     Total:     0.1958

*** tstop() called on n079 at Fri Nov  5 15:50:08 2021
Module time:
	user time   =     495.68 seconds =       8.26 minutes
	system time =       4.61 seconds =       0.08 minutes
	total time  =        126 seconds =       2.10 minutes
Total time:
	user time   =     495.68 seconds =       8.26 minutes
	system time =       4.61 seconds =       0.08 minutes
	total time  =        126 seconds =       2.10 minutes
Grab this energy -157.81303428800567
    Psi4 stopped on: Friday, 05 November 2021 03:50PM
    Psi4 wall time for execution: 0:02:05.80

*** Psi4 exiting successfully. Buy a developer a beer!
