                               Psi4 1.4a2.dev629

  ==> Input File <==

--------------------------------------------------------------------------
import os
memory 14 GB

molecule {
 C   -0.3233322677   -0.0050084307    0.0000011746
 C    0.0608370804   -1.3967930527   -2.4332861422
 C    0.0616261244    2.7938387386    0.0015999809
 C    0.0608393432   -1.3995724533    2.4316965562
 H    2.0865464261   -1.6385601406   -2.8559052538
 H   -0.7685226438   -0.3800530614   -4.0272375914
 H   -0.7635109657   -3.2904836860   -2.3619287431
 H    2.0875777071    3.2789390537   -0.0006228810
 H   -0.7647827825    3.6723863659    1.6760030214
 H   -0.7643916290    3.6722547897   -1.6766076851
 H    2.0865432020   -1.6374849693    2.8565215178
 H   -0.7639077550   -3.2900247257    2.3623411509
 H   -0.7681297162   -0.3794627416    4.0274248948
units bohr
0 2
}

basis {

assign 6-31g_2dfp_

[ 6-31g_2dfp_ ]

spherical

!----------------------------------------------------------------------
! Basis Set Exchange
! Version v0.8.13
! https://www.basissetexchange.org
!----------------------------------------------------------------------
!   Basis set: 6-31G(2df,p)
! Description: 6-31G(2df,p)
!        Role: orbital
!     Version: 0  (Data from the original Basis Set Exchange)
!----------------------------------------------------------------------

****
H     0
S    3   1.00
     18.7311370              0.03349460
      2.8253937              0.23472695
      0.6401217              0.81375733
S    1   1.00
      0.1612778              1.00000000
P    1   1.00
      1.5000000              1.0000000
P    1   1.00
      0.3750000              1.0000000
****
B     0
S    6   1.00
   2068.8823000              0.0018663
    310.6495700              0.0142515
     70.6830330              0.0695516
     19.8610800              0.2325729
      6.2993048              0.4670787
      2.1270270              0.3634314
SP   3   1.00
      4.7279710             -0.1303938              0.0745976
      1.1903377             -0.1307889              0.3078467
      0.3594117              1.1309444              0.7434568
SP   1   1.00
      0.1267512              1.0000000              1.0000000
D    1   1.00
      0.8020000              1.0000000
D    1   1.00
      0.2005000              1.0000000
F    1   1.00
      0.5000000              1.0000000
****
C     0
S    6   1.00
   3047.5249000              0.0018347
    457.3695100              0.0140373
    103.9486900              0.0688426
     29.2101550              0.2321844
      9.2866630              0.4679413
      3.1639270              0.3623120
SP   3   1.00
      7.8682724             -0.1193324              0.0689991
      1.8812885             -0.1608542              0.3164240
      0.5442493              1.1434564              0.7443083
SP   1   1.00
      0.1687144              1.0000000              1.0000000
D    1   1.00
      1.2520000              1.0000000
D    1   1.00
      0.3130000              1.0000000
F    1   1.00
      0.8000000              1.0000000
****
N     0
S    6   1.00
   4173.5110000              0.0018348
    627.4579000              0.0139950
    142.9021000              0.0685870
     40.2343300              0.2322410
     12.8202100              0.4690700
      4.3904370              0.3604550
SP   3   1.00
     11.6263580             -0.1149610              0.0675800
      2.7162800             -0.1691180              0.3239070
      0.7722180              1.1458520              0.7408950
SP   1   1.00
      0.2120313              1.0000000              1.0000000
D    1   1.00
      1.8260000              1.0000000
D    1   1.00
      0.4565000              1.0000000
F    1   1.00
      1.0000000              1.0000000
****
O     0
S    6   1.00
   5484.6717000              0.0018311
    825.2349500              0.0139501
    188.0469600              0.0684451
     52.9645000              0.2327143
     16.8975700              0.4701930
      5.7996353              0.3585209
SP   3   1.00
     15.5396160             -0.1107775              0.0708743
      3.5999336             -0.1480263              0.3397528
      1.0137618              1.1307670              0.7271586
SP   1   1.00
      0.2700058              1.0000000              1.0000000
D    1   1.00
      2.5840000              1.0000000
D    1   1.00
      0.6460000              1.0000000
F    1   1.00
      1.4000000              1.0000000
****
F     0
S    6   1.00
   7001.7130900              0.0018196169
   1051.3660900              0.0139160796
    239.2856900              0.0684053245
     67.3974453              0.233185760
     21.5199573              0.471267439
      7.40310130             0.356618546
SP   3   1.00
     20.8479528             -0.108506975            0.0716287243
      4.80830834            -0.146451658            0.3459121030
      1.34406986             1.128688580            0.7224699570
SP   1   1.00
      0.358151393            1.0000000              1.0000000
D    1   1.00
      3.5000000              1.0000000
D    1   1.00
      0.8750000              1.0000000
F    1   1.00
      1.8500000              1.0000000
****
Al     0
S    6   1.00
  13983.1000000              0.00194267
   2098.7500000              0.0148599
    477.7050000              0.0728494
    134.3600000              0.2468300
     42.8709000              0.4872580
     14.5189000              0.3234960
SP   6   1.00
    239.6680000             -0.00292619             0.00460285
     57.4419000             -0.0374080              0.0331990
     18.2859000             -0.1144870              0.1362820
      6.5991400              0.1156350              0.3304760
      2.4904900              0.6125950              0.4491460
      0.9445400              0.3937990              0.2657040
SP   3   1.00
      1.2779000             -0.2276060             -0.0175130
      0.3975900              0.00144583             0.2445330
      0.1600950              1.0927900              0.8049340
SP   1   1.00
      0.0556577              1.0000000              1.0000000
D    1   1.00
      0.6500000              1.0000000
D    1   1.00
      0.1625000              1.0000000
F    1   1.00
      0.2500000              1.0000000
****
Si     0
S    6   1.00
  16115.9000000              0.00195948
   2425.5800000              0.01492880
    553.8670000              0.07284780
    156.3400000              0.24613000
     50.0683000              0.48591400
     17.0178000              0.32500200
SP   6   1.00
    292.7180000             -0.00278094             0.00443826
     69.8731000             -0.03571460             0.03266790
     22.3363000             -0.11498500             0.13472100
      8.1503900              0.09356340             0.32867800
      3.1345800              0.60301700             0.44964000
      1.2254300              0.41895900             0.26137200
SP   3   1.00
      1.7273800             -0.24463000            -0.01779510
      0.5729220              0.00431572             0.25353900
      0.2221920              1.09818000             0.80066900
SP   1   1.00
      0.0778369              1.00000000             1.00000000
D    1   1.00
      0.9000000              1.0000000
D    1   1.00
      0.2250000              1.0000000
F    1   1.00
      0.3200000              1.0000000
****
P     0
S    6   1.00
  19413.3000000              0.0018516
   2909.4200000              0.0142062
    661.3640000              0.0699995
    185.7590000              0.2400790
     59.1943000              0.4847620
     20.0310000              0.3352000
SP   6   1.00
    339.4780000             -0.00278217             0.00456462
     81.0101000             -0.0360499              0.03369360
     25.8780000             -0.1166310              0.13975500
      9.4522100              0.0968328              0.33936200
      3.6656600              0.6144180              0.45092100
      1.4674600              0.4037980              0.23858600
SP   3   1.00
      2.1562300             -0.2529230             -0.01776530
      0.7489970              0.0328517              0.27405800
      0.2831450              1.0812500              0.78542100
SP   1   1.00
      0.0998317              1.0000000              1.00000000
D    1   1.00
      1.1000000              1.0000000
D    1   1.00
      0.2750000              1.0000000
F    1   1.00
      0.4500000              1.0000000
****
S     0
S    6   1.00
  21917.1000000              0.0018690
   3301.4900000              0.0142300
    754.1460000              0.0696960
    212.7110000              0.2384870
     67.9896000              0.4833070
     23.0515000              0.3380740
SP   6   1.00
    423.7350000             -0.0023767              0.0040610
    100.7100000             -0.0316930              0.0306810
     32.1599000             -0.1133170              0.1304520
     11.8079000              0.0560900              0.3272050
      4.6311000              0.5922550              0.4528510
      1.8702500              0.4550060              0.2560420
SP   3   1.00
      2.6158400             -0.2503740             -0.0145110
      0.9221670              0.0669570              0.3102630
      0.3412870              1.0545100              0.7544830
SP   1   1.00
      0.1171670              1.0000000              1.0000000
D    1   1.00
      1.3000000              1.0000000
D    1   1.00
      0.3250000              1.0000000
F    1   1.00
      0.5500000              1.0000000
****
Cl     0
S    6   1.00
  25180.1000000              0.0018330
   3780.3500000              0.0140340
    860.4740000              0.0690970
    242.1450000              0.2374520
     77.3349000              0.4830340
     26.2470000              0.3398560
SP   6   1.00
    491.7650000             -0.0022974              0.0039894
    116.9840000             -0.0307140              0.0303180
     37.4153000             -0.1125280              0.1298800
     13.7834000              0.0450160              0.3279510
      5.4521500              0.5893530              0.4535270
      2.2258800              0.4652060              0.2521540
SP   3   1.00
      3.1864900             -0.2518300             -0.0142990
      1.1442700              0.0615890              0.3235720
      0.4203770              1.0601800              0.7435070
SP   1   1.00
      0.1426570              1.0000000              1.0000000
D    1   1.00
      1.5000000              1.0000000
D    1   1.00
      0.3750000              1.0000000
F    1   1.00
      0.7000000              1.0000000
****
}

set {
reference uhf
freeze_core true
e_convergence 10
d_convergence 10
dft_spherical_points 1202
dft_radial_points 99
}

e = energy('b3lyp')

print_out('Grab this energy {0}'.format(e))
--------------------------------------------------------------------------

    Molecular point group: c1

    Geometry (in Bohr), charge = 0, multiplicity = 2:

       Center              X                  Y                   Z               Mass
    ------------   -----------------  -----------------  -----------------  -----------------
         C           -0.323334244841    -0.003556667915    -0.000001053769    12.000000000000
         C            0.060835103259    -1.395341289915    -2.433288370569    12.000000000000
         C            0.061624147259     2.795290501385     0.001597752531    12.000000000000
         C            0.060837366059    -1.398120690515     2.431694327831    12.000000000000
         H            2.086544448959    -1.637108377815    -2.855907482169     1.007825032230
         H           -0.768524620941    -0.378601298615    -4.027239819769     1.007825032230
         H           -0.763512942841    -3.289031923215    -2.361930971469     1.007825032230
         H            2.087575729959     3.280390816485    -0.000625109369     1.007825032230
         H           -0.764784759641     3.673838128685     1.676000793031     1.007825032230
         H           -0.764393606141     3.673706552485    -1.676609913469     1.007825032230
         H            2.086541224859    -1.636033206515     2.856519289431     1.007825032230
         H           -0.763909732141    -3.288572962915     2.362338922531     1.007825032230
         H           -0.768131693341    -0.378010978815     4.027422666431     1.007825032230

  Charge       = 0
  Multiplicity = 2
  Basis Set: ANONYMOUS75DE24B6
    Blend: 6-31G_2DFP_
  Basis Set: (ANONYMOUS75DE24B6 AUX)
    Blend: DEF2-UNIVERSAL-JKFIT

    Orbital Energies [Eh]
    ---------------------

    Alpha Occupied:

       1A    -10.180341     2A    -10.167186     3A    -10.167157
       4A    -10.166702     5A     -0.797769     6A     -0.686405
       7A     -0.685966     8A     -0.530776     9A     -0.441126
      10A     -0.434937    11A     -0.434407    12A     -0.382742
      13A     -0.382455    14A     -0.363610    15A     -0.338268
      16A     -0.337727    17A     -0.168961

    Alpha Virtual:

      18A      0.076072    19A      0.133916    20A      0.134394
      21A      0.142491    22A      0.142765    23A      0.154879
      24A      0.178556    25A      0.179003    26A      0.203542
      27A      0.214809    28A      0.275816    29A      0.276156
      30A      0.399093    31A      0.399297    32A      0.403416
      33A      0.423967    34A      0.424237    35A      0.456595
      36A      0.494986    37A      0.495785    38A      0.512164
      39A      0.513994    40A      0.578564    41A      0.579045
      42A      0.591619    43A      0.591657    44A      0.602574
      45A      0.624756    46A      0.631781    47A      0.636030
      48A      0.636468    49A      0.663196    50A      0.663629
      51A      0.683617    52A      0.684096    53A      0.734993
      54A      0.824578    55A      0.826223    56A      0.853915
      57A      0.914792    58A      0.915263    59A      0.944054
      60A      0.944516    61A      0.961143    62A      0.961646
      63A      1.003469    64A      1.126970    65A      1.129267
      66A      1.142213    67A      1.162787    68A      1.163746
      69A      1.223331    70A      1.273975    71A      1.275014
      72A      1.279353    73A      1.324273    74A      1.324432
      75A      1.355983    76A      1.365270    77A      1.366793
      78A      1.392434    79A      1.403307    80A      1.404879
      81A      1.416612    82A      1.417617    83A      1.427922
      84A      1.491395    85A      1.499111    86A      1.542496
      87A      1.543171    88A      1.572672    89A      1.576338
      90A      1.669819    91A      1.738363    92A      1.740439
      93A      1.768358    94A      1.830890    95A      1.831910
      96A      1.971725    97A      2.017633    98A      2.018272
      99A      2.020459   100A      2.050145   101A      2.055230
     102A      2.738220   103A      2.738750   104A      2.790914
     105A      2.811447   106A      2.889839   107A      2.890053
     108A      2.894943   109A      2.929324   110A      2.929666
     111A      2.958987   112A      2.963516   113A      2.965273
     114A      3.034011   115A      3.070256   116A      3.072289
     117A      3.084377   118A      3.168055   119A      3.169553
     120A      3.180559   121A      3.284595   122A      3.286015
     123A      3.326225   124A      3.328112   125A      3.375665
     126A      3.489616   127A      3.490631   128A      3.514004
     129A      3.525332   130A      3.567092   131A      3.569583
     132A      3.575340   133A      3.666278   134A      3.666487
     135A      3.679658   136A      3.693654   137A      3.694568
     138A      3.775879   139A      3.777655   140A      3.789281
     141A      3.910808   142A      3.913646   143A      4.034475
     144A      4.110016   145A      4.112752   146A      4.146461
     147A      4.149754   148A      4.173230   149A      4.201339
     150A      4.202644   151A      4.204784   152A      4.210940
     153A      4.315920   154A      4.315964   155A      4.358996
     156A      4.424217   157A      4.424571   158A      4.443534
     159A      4.516061   160A      4.517656   161A      4.577197
     162A      4.579341   163A      4.617535   164A      4.709447
     165A      4.773268   166A      4.775934   167A      4.836945
     168A      4.962862   169A      5.001956   170A      5.003955
     171A      5.228027   172A      5.246674   173A      5.246980
     174A      5.354799   175A      5.356204   176A      5.479333

    Beta Occupied:

       1A    -10.167938     2A    -10.167920     3A    -10.167467
       4A    -10.166518     5A     -0.781094     6A     -0.684212
       7A     -0.683765     8A     -0.511748     9A     -0.431316
      10A     -0.430771    11A     -0.421823    12A     -0.376837
      13A     -0.376530    14A     -0.362594    15A     -0.333395
      16A     -0.332846

    Beta Virtual:

      17A     -0.025743    18A      0.077081    19A      0.134795
      20A      0.135294    21A      0.144367    22A      0.144630
      23A      0.163339    24A      0.182218    25A      0.182683
      26A      0.215032    27A      0.218931    28A      0.282152
      29A      0.282516    30A      0.400285    31A      0.400503
      32A      0.419800    33A      0.426762    34A      0.427064
      35A      0.468505    36A      0.497242    37A      0.498053
      38A      0.513906    39A      0.556329    40A      0.584143
      41A      0.584568    42A      0.597785    43A      0.597847
      44A      0.609993    45A      0.628131    46A      0.631945
      47A      0.639300    48A      0.639769    49A      0.666734
      50A      0.667218    51A      0.686201    52A      0.686783
      53A      0.757516    54A      0.829735    55A      0.831402
      56A      0.855268    57A      0.922751    58A      0.923245
      59A      0.945914    60A      0.953428    61A      0.966419
      62A      0.966981    63A      1.008707    64A      1.131005
      65A      1.133291    66A      1.155585    67A      1.167826
      68A      1.168857    69A      1.232301    70A      1.279567
      71A      1.280616    72A      1.285106    73A      1.329246
      74A      1.329438    75A      1.365397    76A      1.370405
      77A      1.372137    78A      1.393500    79A      1.406807
      80A      1.408317    81A      1.421655    82A      1.422666
      83A      1.428196    84A      1.492465    85A      1.509534
      86A      1.546805    87A      1.547674    88A      1.580684
      89A      1.584071    90A      1.674665    91A      1.744128
      92A      1.746199    93A      1.779136    94A      1.834727
      95A      1.835784    96A      1.972588    97A      2.023971
      98A      2.026920    99A      2.039642   100A      2.056947
     101A      2.061862   102A      2.746510   103A      2.747132
     104A      2.811817   105A      2.816091   106A      2.902563
     107A      2.902703   108A      2.924649   109A      2.931898
     110A      2.932060   111A      2.960057   112A      2.968085
     113A      2.969785   114A      3.041946   115A      3.079964
     116A      3.082307   117A      3.086299   118A      3.183913
     119A      3.185179   120A      3.188243   121A      3.289465
     122A      3.290747   123A      3.330022   124A      3.331926
     125A      3.383481   126A      3.492345   127A      3.493355
     128A      3.512388   129A      3.528377   130A      3.574730
     131A      3.580904   132A      3.582915   133A      3.671001
     134A      3.671256   135A      3.692955   136A      3.725325
     137A      3.726154   138A      3.780457   139A      3.782198
     140A      3.817756   141A      3.920626   142A      3.923461
     143A      4.045362   144A      4.116836   145A      4.119560
     146A      4.153725   147A      4.156909   148A      4.187291
     149A      4.207237   150A      4.210459   151A      4.210897
     152A      4.215431   153A      4.323342   154A      4.323424
     155A      4.362358   156A      4.432413   157A      4.432762
     158A      4.446465   159A      4.523943   160A      4.525345
     161A      4.587720   162A      4.590022   163A      4.624727
     164A      4.719793   165A      4.780183   166A      4.782924
     167A      4.839864   168A      4.967655   169A      5.005995
     170A      5.007994   171A      5.233740   172A      5.248456
     173A      5.248769   174A      5.361261   175A      5.362703
     176A      5.481655

    Final Occupation by Irrep:
              A
    DOCC [    16 ]
    SOCC [     1 ]

  @DF-UKS Final Energy:  -157.81306262716623

   => Energetics <=

    Nuclear Repulsion Energy =            125.3948516211445678
    One-Electron Energy =                -458.7493515313529429
    Two-Electron Energy =                 195.8485829061075947
    DFT Exchange-Correlation Energy =     -20.3071456230654874
    Empirical Dispersion Energy =           0.0000000000000000
    VV10 Nonlocal Energy =                  0.0000000000000000
    Total Energy =                       -157.8130626271662322

  UHF NO Occupations:
  HONO-2 :   15  A 1.9996009
  HONO-1 :   16  A 1.9989804
  HONO-0 :   17  A 1.0000000
  LUNO+0 :   18  A 0.0010196
  LUNO+1 :   19  A 0.0003991
  LUNO+2 :   20  A 0.0001979
  LUNO+3 :   21  A 0.0001972

Computation Completed

Properties will be evaluated at   0.000000,   0.000000,   0.000000 [a0]

Properties computed using the SCF density matrix

  Nuclear Dipole Moment: [e a0]
     X:     0.8272      Y:     0.0102      Z:    -0.0000

  Electronic Dipole Moment: [e a0]
     X:    -0.7493      Y:    -0.0109      Z:     0.0000

  Dipole Moment: [e a0]
     X:     0.0779      Y:    -0.0007      Z:     0.0000     Total:     0.0779

  Dipole Moment: [D]
     X:     0.1980      Y:    -0.0019      Z:     0.0000     Total:     0.1981

*** tstop() called on n079 at Fri Nov  5 12:53:53 2021
Module time:
	user time   =     496.96 seconds =       8.28 minutes
	system time =       4.52 seconds =       0.08 minutes
	total time  =        126 seconds =       2.10 minutes
Total time:
	user time   =     496.96 seconds =       8.28 minutes
	system time =       4.52 seconds =       0.08 minutes
	total time  =        126 seconds =       2.10 minutes
Grab this energy -157.81306262716623
    Psi4 stopped on: Friday, 05 November 2021 12:53PM
    Psi4 wall time for execution: 0:02:06.10

*** Psi4 exiting successfully. Buy a developer a beer!
