                               Psi4 1.4a2.dev629

  ==> Input File <==

--------------------------------------------------------------------------
import os
memory 14 GB

molecule {
 C   -0.3233621633   -0.0010220735   -0.0000000000
 C    0.0614204919   -1.3990977728   -2.4264186520
 C    0.0601785494    2.8014960876    0.0000000000
 C    0.0614204919   -1.3990977728    2.4264186520
 H    2.0900492694   -1.6444668982   -2.8468648592
 H   -0.7671674730   -0.3862167726   -4.0270027991
 H   -0.7670722201   -3.2946663794   -2.3476297030
 H    2.0900336639    3.2876467214   -0.0000000000
 H   -0.7669590316    3.6803752984    1.6793841526
 H   -0.7669590316    3.6803752984   -1.6793841526
 H    2.0900492694   -1.6444668982    2.8468648592
 H   -0.7670722201   -3.2946663794    2.3476297030
 H   -0.7671674730   -0.3862167726    4.0270027991
units bohr
0 2
}

basis {

assign 6-31g_2dfp_

[ 6-31g_2dfp_ ]

spherical

!----------------------------------------------------------------------
! Basis Set Exchange
! Version v0.8.13
! https://www.basissetexchange.org
!----------------------------------------------------------------------
!   Basis set: 6-31G(2df,p)
! Description: 6-31G(2df,p)
!        Role: orbital
!     Version: 0  (Data from the original Basis Set Exchange)
!----------------------------------------------------------------------

****
H     0
S    3   1.00
     18.7311370              0.03349460
      2.8253937              0.23472695
      0.6401217              0.81375733
S    1   1.00
      0.1612778              1.00000000
P    1   1.00
      1.5000000              1.0000000
P    1   1.00
      0.3750000              1.0000000
****
B     0
S    6   1.00
   2068.8823000              0.0018663
    310.6495700              0.0142515
     70.6830330              0.0695516
     19.8610800              0.2325729
      6.2993048              0.4670787
      2.1270270              0.3634314
SP   3   1.00
      4.7279710             -0.1303938              0.0745976
      1.1903377             -0.1307889              0.3078467
      0.3594117              1.1309444              0.7434568
SP   1   1.00
      0.1267512              1.0000000              1.0000000
D    1   1.00
      0.8020000              1.0000000
D    1   1.00
      0.2005000              1.0000000
F    1   1.00
      0.5000000              1.0000000
****
C     0
S    6   1.00
   3047.5249000              0.0018347
    457.3695100              0.0140373
    103.9486900              0.0688426
     29.2101550              0.2321844
      9.2866630              0.4679413
      3.1639270              0.3623120
SP   3   1.00
      7.8682724             -0.1193324              0.0689991
      1.8812885             -0.1608542              0.3164240
      0.5442493              1.1434564              0.7443083
SP   1   1.00
      0.1687144              1.0000000              1.0000000
D    1   1.00
      1.2520000              1.0000000
D    1   1.00
      0.3130000              1.0000000
F    1   1.00
      0.8000000              1.0000000
****
N     0
S    6   1.00
   4173.5110000              0.0018348
    627.4579000              0.0139950
    142.9021000              0.0685870
     40.2343300              0.2322410
     12.8202100              0.4690700
      4.3904370              0.3604550
SP   3   1.00
     11.6263580             -0.1149610              0.0675800
      2.7162800             -0.1691180              0.3239070
      0.7722180              1.1458520              0.7408950
SP   1   1.00
      0.2120313              1.0000000              1.0000000
D    1   1.00
      1.8260000              1.0000000
D    1   1.00
      0.4565000              1.0000000
F    1   1.00
      1.0000000              1.0000000
****
O     0
S    6   1.00
   5484.6717000              0.0018311
    825.2349500              0.0139501
    188.0469600              0.0684451
     52.9645000              0.2327143
     16.8975700              0.4701930
      5.7996353              0.3585209
SP   3   1.00
     15.5396160             -0.1107775              0.0708743
      3.5999336             -0.1480263              0.3397528
      1.0137618              1.1307670              0.7271586
SP   1   1.00
      0.2700058              1.0000000              1.0000000
D    1   1.00
      2.5840000              1.0000000
D    1   1.00
      0.6460000              1.0000000
F    1   1.00
      1.4000000              1.0000000
****
F     0
S    6   1.00
   7001.7130900              0.0018196169
   1051.3660900              0.0139160796
    239.2856900              0.0684053245
     67.3974453              0.233185760
     21.5199573              0.471267439
      7.40310130             0.356618546
SP   3   1.00
     20.8479528             -0.108506975            0.0716287243
      4.80830834            -0.146451658            0.3459121030
      1.34406986             1.128688580            0.7224699570
SP   1   1.00
      0.358151393            1.0000000              1.0000000
D    1   1.00
      3.5000000              1.0000000
D    1   1.00
      0.8750000              1.0000000
F    1   1.00
      1.8500000              1.0000000
****
Al     0
S    6   1.00
  13983.1000000              0.00194267
   2098.7500000              0.0148599
    477.7050000              0.0728494
    134.3600000              0.2468300
     42.8709000              0.4872580
     14.5189000              0.3234960
SP   6   1.00
    239.6680000             -0.00292619             0.00460285
     57.4419000             -0.0374080              0.0331990
     18.2859000             -0.1144870              0.1362820
      6.5991400              0.1156350              0.3304760
      2.4904900              0.6125950              0.4491460
      0.9445400              0.3937990              0.2657040
SP   3   1.00
      1.2779000             -0.2276060             -0.0175130
      0.3975900              0.00144583             0.2445330
      0.1600950              1.0927900              0.8049340
SP   1   1.00
      0.0556577              1.0000000              1.0000000
D    1   1.00
      0.6500000              1.0000000
D    1   1.00
      0.1625000              1.0000000
F    1   1.00
      0.2500000              1.0000000
****
Si     0
S    6   1.00
  16115.9000000              0.00195948
   2425.5800000              0.01492880
    553.8670000              0.07284780
    156.3400000              0.24613000
     50.0683000              0.48591400
     17.0178000              0.32500200
SP   6   1.00
    292.7180000             -0.00278094             0.00443826
     69.8731000             -0.03571460             0.03266790
     22.3363000             -0.11498500             0.13472100
      8.1503900              0.09356340             0.32867800
      3.1345800              0.60301700             0.44964000
      1.2254300              0.41895900             0.26137200
SP   3   1.00
      1.7273800             -0.24463000            -0.01779510
      0.5729220              0.00431572             0.25353900
      0.2221920              1.09818000             0.80066900
SP   1   1.00
      0.0778369              1.00000000             1.00000000
D    1   1.00
      0.9000000              1.0000000
D    1   1.00
      0.2250000              1.0000000
F    1   1.00
      0.3200000              1.0000000
****
P     0
S    6   1.00
  19413.3000000              0.0018516
   2909.4200000              0.0142062
    661.3640000              0.0699995
    185.7590000              0.2400790
     59.1943000              0.4847620
     20.0310000              0.3352000
SP   6   1.00
    339.4780000             -0.00278217             0.00456462
     81.0101000             -0.0360499              0.03369360
     25.8780000             -0.1166310              0.13975500
      9.4522100              0.0968328              0.33936200
      3.6656600              0.6144180              0.45092100
      1.4674600              0.4037980              0.23858600
SP   3   1.00
      2.1562300             -0.2529230             -0.01776530
      0.7489970              0.0328517              0.27405800
      0.2831450              1.0812500              0.78542100
SP   1   1.00
      0.0998317              1.0000000              1.00000000
D    1   1.00
      1.1000000              1.0000000
D    1   1.00
      0.2750000              1.0000000
F    1   1.00
      0.4500000              1.0000000
****
S     0
S    6   1.00
  21917.1000000              0.0018690
   3301.4900000              0.0142300
    754.1460000              0.0696960
    212.7110000              0.2384870
     67.9896000              0.4833070
     23.0515000              0.3380740
SP   6   1.00
    423.7350000             -0.0023767              0.0040610
    100.7100000             -0.0316930              0.0306810
     32.1599000             -0.1133170              0.1304520
     11.8079000              0.0560900              0.3272050
      4.6311000              0.5922550              0.4528510
      1.8702500              0.4550060              0.2560420
SP   3   1.00
      2.6158400             -0.2503740             -0.0145110
      0.9221670              0.0669570              0.3102630
      0.3412870              1.0545100              0.7544830
SP   1   1.00
      0.1171670              1.0000000              1.0000000
D    1   1.00
      1.3000000              1.0000000
D    1   1.00
      0.3250000              1.0000000
F    1   1.00
      0.5500000              1.0000000
****
Cl     0
S    6   1.00
  25180.1000000              0.0018330
   3780.3500000              0.0140340
    860.4740000              0.0690970
    242.1450000              0.2374520
     77.3349000              0.4830340
     26.2470000              0.3398560
SP   6   1.00
    491.7650000             -0.0022974              0.0039894
    116.9840000             -0.0307140              0.0303180
     37.4153000             -0.1125280              0.1298800
     13.7834000              0.0450160              0.3279510
      5.4521500              0.5893530              0.4535270
      2.2258800              0.4652060              0.2521540
SP   3   1.00
      3.1864900             -0.2518300             -0.0142990
      1.1442700              0.0615890              0.3235720
      0.4203770              1.0601800              0.7435070
SP   1   1.00
      0.1426570              1.0000000              1.0000000
D    1   1.00
      1.5000000              1.0000000
D    1   1.00
      0.3750000              1.0000000
F    1   1.00
      0.7000000              1.0000000
****
}

set {
reference uhf
freeze_core true
e_convergence 10
d_convergence 10
dft_spherical_points 1202
dft_radial_points 99
}

e = energy('b3lyp')

print_out('Grab this energy {0}'.format(e))
--------------------------------------------------------------------------

    Molecular point group: cs

    Geometry (in Bohr), charge = 0, multiplicity = 2:

       Center              X                  Y                   Z               Mass
    ------------   -----------------  -----------------  -----------------  -----------------
         C           -0.323303871642    -0.001460493581     0.000000000000    12.000000000000
         C            0.061478783558    -1.399536192881    -2.426418652000    12.000000000000
         C            0.060236841058     2.801057667519     0.000000000000    12.000000000000
         C            0.061478783558    -1.399536192881     2.426418652000    12.000000000000
         H            2.090107561058    -1.644905318281    -2.846864859200     1.007825032230
         H           -0.767109181342    -0.386655192681    -4.027002799100     1.007825032230
         H           -0.767013928442    -3.295104799481    -2.347629703000     1.007825032230
         H            2.090091955558     3.287208301319     0.000000000000     1.007825032230
         H           -0.766900739942     3.679936878319     1.679384152600     1.007825032230
         H           -0.766900739942     3.679936878319    -1.679384152600     1.007825032230
         H            2.090107561058    -1.644905318281     2.846864859200     1.007825032230
         H           -0.767013928442    -3.295104799481     2.347629703000     1.007825032230
         H           -0.767109181342    -0.386655192681     4.027002799100     1.007825032230

  Charge       = 0
  Multiplicity = 2
  Basis Set: ANONYMOUS55C31780
    Blend: 6-31G_2DFP_
  Basis Set: (ANONYMOUS55C31780 AUX)
    Blend: DEF2-UNIVERSAL-JKFIT

    Orbital Energies [Eh]
    ---------------------

    Alpha Occupied:

       1Ap   -10.180410     1App  -10.167581     2Ap   -10.167561
       3Ap   -10.167509     4Ap    -0.797806     2App   -0.685907
       5Ap    -0.685748     6Ap    -0.530465     7Ap    -0.441025
       8Ap    -0.434539     3App   -0.434524     4App   -0.382379
       9Ap    -0.382302     5App   -0.363294     6App   -0.338287
      10Ap    -0.337701    11Ap    -0.169023

    Alpha Virtual:

      12Ap     0.075740    13Ap     0.133748     7App    0.133827
      14Ap     0.142156     8App    0.142282    15Ap     0.154581
       9App    0.178220    16Ap     0.178322    17Ap     0.203657
      10App    0.214347    18Ap     0.275837    11App    0.276088
      19Ap     0.399173    12App    0.399394    20Ap     0.403134
      13App    0.423818    21Ap     0.423829    22Ap     0.456459
      14App    0.495132    23Ap     0.495201    15App    0.511891
      24Ap     0.513846    25Ap     0.578435    16App    0.578528
      26Ap     0.591013    17App    0.591049    27Ap     0.601922
      28Ap     0.623788    18App    0.631070    29Ap     0.635688
      19App    0.635694    30Ap     0.662988    20App    0.663168
      21App    0.683295    31Ap     0.683319    32Ap     0.734684
      22App    0.824586    33Ap     0.824595    23App    0.853399
      24App    0.914207    34Ap     0.914423    25App    0.943503
      35Ap     0.943823    36Ap     0.960584    26App    0.960693
      37Ap     1.003354    27App    1.127681    38Ap     1.127702
      39Ap     1.141339    28App    1.162998    40Ap     1.163033
      41Ap     1.222881    42Ap     1.273772    29App    1.274135
      43Ap     1.279805    44Ap     1.323588    30App    1.323703
      45Ap     1.355140    31App    1.365307    46Ap     1.365797
      32App    1.391854    47Ap     1.402786    33App    1.403275
      48Ap     1.415911    34App    1.416435    35App    1.427162
      36App    1.490605    49Ap     1.497723    50Ap     1.542143
      37App    1.542484    38App    1.573970    51Ap     1.574596
      52Ap     1.667653    53Ap     1.737861    39App    1.738100
      54Ap     1.766822    40App    1.828854    55Ap     1.828995
      41App    1.970095    56Ap     2.017123    42App    2.017428
      57Ap     2.018361    43App    2.050955    58Ap     2.052164
      59Ap     2.737465    44App    2.737555    60Ap     2.790712
      45App    2.810916    61Ap     2.888722    46App    2.890056
      62Ap     2.894863    63Ap     2.928945    47App    2.929289
      48App    2.958375    49App    2.963457    64Ap     2.964011
      65Ap     3.033109    66Ap     3.070214    50App    3.070465
      51App    3.083430    52App    3.169333    67Ap     3.169542
      68Ap     3.180311    69Ap     3.285132    53App    3.285573
      54App    3.327631    70Ap     3.327712    71Ap     3.376315
      72Ap     3.491118    55App    3.491184    56App    3.514310
      73Ap     3.525956    57App    3.568091    74Ap     3.568312
      58App    3.576820    75Ap     3.665382    59App    3.665871
      76Ap     3.677860    60App    3.693289    77Ap     3.693327
      78Ap     3.776251    61App    3.776271    79Ap     3.788555
      80Ap     3.910925    62App    3.911633    81Ap     4.032107
      63App    4.108687    82Ap     4.109119    83Ap     4.144627
      64App    4.144993    84Ap     4.170297    85Ap     4.201195
      65App    4.201696    86Ap     4.201710    66App    4.207162
      87Ap     4.312928    67App    4.314526    68App    4.356560
      69App    4.421292    88Ap     4.422432    70App    4.441432
      89Ap     4.514230    71App    4.514595    90Ap     4.576506
      72App    4.577080    91Ap     4.616842    92Ap     4.707439
      73App    4.772668    93Ap     4.772975    74App    4.834557
      94Ap     4.962088    75App    5.001570    95Ap     5.002152
      96Ap     5.222742    97Ap     5.241292    76App    5.241753
      98Ap     5.350889    77App    5.350948    78App    5.476134

    Beta Occupied:

       1App  -10.168337     1Ap   -10.168322     2Ap   -10.168276
       3Ap   -10.166602     4Ap    -0.781104     2App   -0.683709
       5Ap    -0.683555     6Ap    -0.511494     7Ap    -0.430911
       3App   -0.430879     8Ap    -0.421685     4App   -0.376464
       9Ap    -0.376372     5App   -0.362274     6App   -0.333419
      10Ap    -0.332833

    Beta Virtual:

      11Ap    -0.025976    12Ap     0.076752    13Ap     0.134618
       7App    0.134721    14Ap     0.144072     8App    0.144161
      15Ap     0.163103     9App    0.181913    16Ap     0.181990
      10App    0.214579    17Ap     0.219020    18Ap     0.282190
      11App    0.282412    19Ap     0.400347    12App    0.400568
      20Ap     0.419566    13App    0.426626    21Ap     0.426641
      22Ap     0.468385    14App    0.497396    23Ap     0.497460
      15App    0.513632    24Ap     0.556134    25Ap     0.583969
      16App    0.584061    26Ap     0.597162    17App    0.597218
      27Ap     0.609358    28Ap     0.627175    18App    0.631235
      19App    0.638995    29Ap     0.638999    30Ap     0.666543
      20App    0.666731    21App    0.685964    31Ap     0.685991
      32Ap     0.757183    22App    0.829760    33Ap     0.829762
      23App    0.854776    24App    0.922192    34Ap     0.922409
      25App    0.945340    35Ap     0.952730    36Ap     0.965908
      26App    0.965998    37Ap     1.008582    27App    1.131733
      38Ap     1.131733    39Ap     1.154722    28App    1.168031
      40Ap     1.168095    41Ap     1.231870    42Ap     1.279354
      29App    1.279771    43Ap     1.285573    44Ap     1.328540
      30App    1.328677    45Ap     1.364532    31App    1.370526
      46Ap     1.371066    32App    1.392918    47Ap     1.406245
      33App    1.406751    48Ap     1.420983    34App    1.421462
      35App    1.427444    36App    1.491648    49Ap     1.508166
      50Ap     1.546666    37App    1.547038    38App    1.581738
      51Ap     1.582355    52Ap     1.672427    53Ap     1.743619
      39App    1.743854    54Ap     1.777656    40App    1.832742
      55Ap     1.832878    41App    1.970958    42App    2.023863
      56Ap     2.024666    57Ap     2.038617    43App    2.057649
      58Ap     2.058903    59Ap     2.745795    44App    2.745872
      45App    2.811325    60Ap     2.815822    61Ap     2.901380
      46App    2.902682    62Ap     2.924532    63Ap     2.931444
      47App    2.931855    48App    2.959433    49App    2.967970
      64Ap     2.968503    65Ap     3.041124    66Ap     3.080059
      50App    3.080327    51App    3.085241    52App    3.185110
      67Ap     3.185307    68Ap     3.187987    69Ap     3.290016
      53App    3.290396    54App    3.331415    70Ap     3.331521
      71Ap     3.384110    72Ap     3.493787    55App    3.493884
      56App    3.512669    73Ap     3.528986    57App    3.576669
      58App    3.581470    74Ap     3.581581    75Ap     3.669807
      59App    3.670443    76Ap     3.691082    60App    3.724887
      77Ap     3.725273    78Ap     3.780733    61App    3.780872
      79Ap     3.817072    80Ap     3.920735    62App    3.921486
      81Ap     4.042871    63App    4.115423    82Ap     4.115856
      83Ap     4.151912    64App    4.152205    84Ap     4.184501
      85Ap     4.207556    65App    4.207648    86Ap     4.209319
      66App    4.211660    87Ap     4.320416    67App    4.322080
      68App    4.359932    69App    4.429528    88Ap     4.430675
      70App    4.444340    89Ap     4.522046    71App    4.522383
      90Ap     4.587162    72App    4.587693    91Ap     4.624043
      92Ap     4.717788    73App    4.779644    93Ap     4.779913
      74App    4.837468    94Ap     4.966909    75App    5.005628
      95Ap     5.006213    96Ap     5.228482    97Ap     5.243092
      76App    5.243535    98Ap     5.357377    77App    5.357476
      78App    5.478467

    Final Occupation by Irrep:
             Ap   App
    DOCC [    10,    6 ]
    SOCC [     1,    0 ]

  @DF-UKS Final Energy:  -157.81309098432897

   => Energetics <=

    Nuclear Repulsion Energy =            125.3572852866766283
    One-Electron Energy =                -458.6780995450357068
    Two-Electron Energy =                 195.8108459216829260
    DFT Exchange-Correlation Energy =     -20.3031226476528310
    Empirical Dispersion Energy =           0.0000000000000000
    VV10 Nonlocal Energy =                  0.0000000000000000
    Total Energy =                       -157.8130909843289658

  UHF NO Occupations:
  HONO-2 :    9 Ap 1.9995983
  HONO-1 :   10 Ap 1.9989811
  HONO-0 :   11 Ap 1.0000000
  LUNO+0 :   12 Ap 0.0010189
  LUNO+1 :   13 Ap 0.0004017
  LUNO+2 :   14 Ap 0.0001976
  LUNO+3 :    7App 0.0001968

Computation Completed

Properties will be evaluated at   0.000000,   0.000000,   0.000000 [a0]

Properties computed using the SCF density matrix

  Nuclear Dipole Moment: [e a0]
     X:     0.8276      Y:    -0.0031      Z:     0.0000

  Electronic Dipole Moment: [e a0]
     X:    -0.7503      Y:     0.0031      Z:     0.0000

  Dipole Moment: [e a0]
     X:     0.0773      Y:    -0.0000      Z:     0.0000     Total:     0.0773

  Dipole Moment: [D]
     X:     0.1964      Y:    -0.0001      Z:     0.0000     Total:     0.1964

*** tstop() called on n059 at Fri Nov  5 11:51:36 2021
Module time:
	user time   =     540.41 seconds =       9.01 minutes
	system time =      11.93 seconds =       0.20 minutes
	total time  =        139 seconds =       2.32 minutes
Total time:
	user time   =     540.41 seconds =       9.01 minutes
	system time =      11.93 seconds =       0.20 minutes
	total time  =        139 seconds =       2.32 minutes
Grab this energy -157.81309098432897
    Psi4 stopped on: Friday, 05 November 2021 11:51AM
    Psi4 wall time for execution: 0:02:18.93

*** Psi4 exiting successfully. Buy a developer a beer!
