                               Psi4 1.4a2.dev629

  ==> Input File <==

--------------------------------------------------------------------------
import os
memory 14 GB

molecule {
 C   -0.3236405577    0.0002560068    0.0000000000
 C    0.0623050978   -1.4041743882   -2.4307588467
 C    0.0591079716    2.8072134765   -0.0000000000
 C    0.0623050978   -1.4041743882    2.4307588467
 H    2.0871294936   -1.6472223834   -2.8532532055
 H   -0.7657724654   -0.3908325559   -4.0308502709
 H   -0.7661741335   -3.2951332818   -2.3541424413
 H    2.0872922228    3.2946910439    0.0000000000
 H   -0.7651717492    3.6862701889    1.6770931028
 H   -0.7651717492    3.6862701889   -1.6770931028
 H    2.0871294936   -1.6472223834    2.8532532055
 H   -0.7661741335   -3.2951332818    2.3541424413
 H   -0.7657724654   -0.3908325559    4.0308502709
units bohr
0 2
}

basis {

assign 6-31g_2dfp_

[ 6-31g_2dfp_ ]

spherical

!----------------------------------------------------------------------
! Basis Set Exchange
! Version v0.8.13
! https://www.basissetexchange.org
!----------------------------------------------------------------------
!   Basis set: 6-31G(2df,p)
! Description: 6-31G(2df,p)
!        Role: orbital
!     Version: 0  (Data from the original Basis Set Exchange)
!----------------------------------------------------------------------

****
H     0
S    3   1.00
     18.7311370              0.03349460
      2.8253937              0.23472695
      0.6401217              0.81375733
S    1   1.00
      0.1612778              1.00000000
P    1   1.00
      1.5000000              1.0000000
P    1   1.00
      0.3750000              1.0000000
****
B     0
S    6   1.00
   2068.8823000              0.0018663
    310.6495700              0.0142515
     70.6830330              0.0695516
     19.8610800              0.2325729
      6.2993048              0.4670787
      2.1270270              0.3634314
SP   3   1.00
      4.7279710             -0.1303938              0.0745976
      1.1903377             -0.1307889              0.3078467
      0.3594117              1.1309444              0.7434568
SP   1   1.00
      0.1267512              1.0000000              1.0000000
D    1   1.00
      0.8020000              1.0000000
D    1   1.00
      0.2005000              1.0000000
F    1   1.00
      0.5000000              1.0000000
****
C     0
S    6   1.00
   3047.5249000              0.0018347
    457.3695100              0.0140373
    103.9486900              0.0688426
     29.2101550              0.2321844
      9.2866630              0.4679413
      3.1639270              0.3623120
SP   3   1.00
      7.8682724             -0.1193324              0.0689991
      1.8812885             -0.1608542              0.3164240
      0.5442493              1.1434564              0.7443083
SP   1   1.00
      0.1687144              1.0000000              1.0000000
D    1   1.00
      1.2520000              1.0000000
D    1   1.00
      0.3130000              1.0000000
F    1   1.00
      0.8000000              1.0000000
****
N     0
S    6   1.00
   4173.5110000              0.0018348
    627.4579000              0.0139950
    142.9021000              0.0685870
     40.2343300              0.2322410
     12.8202100              0.4690700
      4.3904370              0.3604550
SP   3   1.00
     11.6263580             -0.1149610              0.0675800
      2.7162800             -0.1691180              0.3239070
      0.7722180              1.1458520              0.7408950
SP   1   1.00
      0.2120313              1.0000000              1.0000000
D    1   1.00
      1.8260000              1.0000000
D    1   1.00
      0.4565000              1.0000000
F    1   1.00
      1.0000000              1.0000000
****
O     0
S    6   1.00
   5484.6717000              0.0018311
    825.2349500              0.0139501
    188.0469600              0.0684451
     52.9645000              0.2327143
     16.8975700              0.4701930
      5.7996353              0.3585209
SP   3   1.00
     15.5396160             -0.1107775              0.0708743
      3.5999336             -0.1480263              0.3397528
      1.0137618              1.1307670              0.7271586
SP   1   1.00
      0.2700058              1.0000000              1.0000000
D    1   1.00
      2.5840000              1.0000000
D    1   1.00
      0.6460000              1.0000000
F    1   1.00
      1.4000000              1.0000000
****
F     0
S    6   1.00
   7001.7130900              0.0018196169
   1051.3660900              0.0139160796
    239.2856900              0.0684053245
     67.3974453              0.233185760
     21.5199573              0.471267439
      7.40310130             0.356618546
SP   3   1.00
     20.8479528             -0.108506975            0.0716287243
      4.80830834            -0.146451658            0.3459121030
      1.34406986             1.128688580            0.7224699570
SP   1   1.00
      0.358151393            1.0000000              1.0000000
D    1   1.00
      3.5000000              1.0000000
D    1   1.00
      0.8750000              1.0000000
F    1   1.00
      1.8500000              1.0000000
****
Al     0
S    6   1.00
  13983.1000000              0.00194267
   2098.7500000              0.0148599
    477.7050000              0.0728494
    134.3600000              0.2468300
     42.8709000              0.4872580
     14.5189000              0.3234960
SP   6   1.00
    239.6680000             -0.00292619             0.00460285
     57.4419000             -0.0374080              0.0331990
     18.2859000             -0.1144870              0.1362820
      6.5991400              0.1156350              0.3304760
      2.4904900              0.6125950              0.4491460
      0.9445400              0.3937990              0.2657040
SP   3   1.00
      1.2779000             -0.2276060             -0.0175130
      0.3975900              0.00144583             0.2445330
      0.1600950              1.0927900              0.8049340
SP   1   1.00
      0.0556577              1.0000000              1.0000000
D    1   1.00
      0.6500000              1.0000000
D    1   1.00
      0.1625000              1.0000000
F    1   1.00
      0.2500000              1.0000000
****
Si     0
S    6   1.00
  16115.9000000              0.00195948
   2425.5800000              0.01492880
    553.8670000              0.07284780
    156.3400000              0.24613000
     50.0683000              0.48591400
     17.0178000              0.32500200
SP   6   1.00
    292.7180000             -0.00278094             0.00443826
     69.8731000             -0.03571460             0.03266790
     22.3363000             -0.11498500             0.13472100
      8.1503900              0.09356340             0.32867800
      3.1345800              0.60301700             0.44964000
      1.2254300              0.41895900             0.26137200
SP   3   1.00
      1.7273800             -0.24463000            -0.01779510
      0.5729220              0.00431572             0.25353900
      0.2221920              1.09818000             0.80066900
SP   1   1.00
      0.0778369              1.00000000             1.00000000
D    1   1.00
      0.9000000              1.0000000
D    1   1.00
      0.2250000              1.0000000
F    1   1.00
      0.3200000              1.0000000
****
P     0
S    6   1.00
  19413.3000000              0.0018516
   2909.4200000              0.0142062
    661.3640000              0.0699995
    185.7590000              0.2400790
     59.1943000              0.4847620
     20.0310000              0.3352000
SP   6   1.00
    339.4780000             -0.00278217             0.00456462
     81.0101000             -0.0360499              0.03369360
     25.8780000             -0.1166310              0.13975500
      9.4522100              0.0968328              0.33936200
      3.6656600              0.6144180              0.45092100
      1.4674600              0.4037980              0.23858600
SP   3   1.00
      2.1562300             -0.2529230             -0.01776530
      0.7489970              0.0328517              0.27405800
      0.2831450              1.0812500              0.78542100
SP   1   1.00
      0.0998317              1.0000000              1.00000000
D    1   1.00
      1.1000000              1.0000000
D    1   1.00
      0.2750000              1.0000000
F    1   1.00
      0.4500000              1.0000000
****
S     0
S    6   1.00
  21917.1000000              0.0018690
   3301.4900000              0.0142300
    754.1460000              0.0696960
    212.7110000              0.2384870
     67.9896000              0.4833070
     23.0515000              0.3380740
SP   6   1.00
    423.7350000             -0.0023767              0.0040610
    100.7100000             -0.0316930              0.0306810
     32.1599000             -0.1133170              0.1304520
     11.8079000              0.0560900              0.3272050
      4.6311000              0.5922550              0.4528510
      1.8702500              0.4550060              0.2560420
SP   3   1.00
      2.6158400             -0.2503740             -0.0145110
      0.9221670              0.0669570              0.3102630
      0.3412870              1.0545100              0.7544830
SP   1   1.00
      0.1171670              1.0000000              1.0000000
D    1   1.00
      1.3000000              1.0000000
D    1   1.00
      0.3250000              1.0000000
F    1   1.00
      0.5500000              1.0000000
****
Cl     0
S    6   1.00
  25180.1000000              0.0018330
   3780.3500000              0.0140340
    860.4740000              0.0690970
    242.1450000              0.2374520
     77.3349000              0.4830340
     26.2470000              0.3398560
SP   6   1.00
    491.7650000             -0.0022974              0.0039894
    116.9840000             -0.0307140              0.0303180
     37.4153000             -0.1125280              0.1298800
     13.7834000              0.0450160              0.3279510
      5.4521500              0.5893530              0.4535270
      2.2258800              0.4652060              0.2521540
SP   3   1.00
      3.1864900             -0.2518300             -0.0142990
      1.1442700              0.0615890              0.3235720
      0.4203770              1.0601800              0.7435070
SP   1   1.00
      0.1426570              1.0000000              1.0000000
D    1   1.00
      1.5000000              1.0000000
D    1   1.00
      0.3750000              1.0000000
F    1   1.00
      0.7000000              1.0000000
****
}

set {
reference uhf
freeze_core true
e_convergence 10
d_convergence 10
dft_spherical_points 1202
dft_radial_points 99
}

e = energy('b3lyp')

print_out('Grab this energy {0}'.format(e))
--------------------------------------------------------------------------

    Molecular point group: cs

    Geometry (in Bohr), charge = 0, multiplicity = 2:

       Center              X                  Y                   Z               Mass
    ------------   -----------------  -----------------  -----------------  -----------------
         C           -0.323663207218     0.000425794346     0.000000000000    12.000000000000
         C            0.062282448282    -1.404004600654    -2.430758846700    12.000000000000
         C            0.059085322082     2.807383264046     0.000000000000    12.000000000000
         C            0.062282448282    -1.404004600654     2.430758846700    12.000000000000
         H            2.087106844082    -1.647052595854    -2.853253205500     1.007825032230
         H           -0.765795114918    -0.390662768354    -4.030850270900     1.007825032230
         H           -0.766196783018    -3.294963494254    -2.354142441300     1.007825032230
         H            2.087269573282     3.294860831446     0.000000000000     1.007825032230
         H           -0.765194398718     3.686439976446     1.677093102800     1.007825032230
         H           -0.765194398718     3.686439976446    -1.677093102800     1.007825032230
         H            2.087106844082    -1.647052595854     2.853253205500     1.007825032230
         H           -0.766196783018    -3.294963494254     2.354142441300     1.007825032230
         H           -0.765795114918    -0.390662768354     4.030850270900     1.007825032230

  Charge       = 0
  Multiplicity = 2
  Basis Set: ANONYMOUSB515C7C4
    Blend: 6-31G_2DFP_
  Basis Set: (ANONYMOUSB515C7C4 AUX)
    Blend: DEF2-UNIVERSAL-JKFIT

    Orbital Energies [Eh]
    ---------------------

    Alpha Occupied:

       1Ap   -10.181113     2Ap   -10.167416     1App  -10.167375
       3Ap   -10.167338     4Ap    -0.796721     5Ap    -0.685920
       2App   -0.685854     6Ap    -0.530778     7Ap    -0.440533
       3App   -0.434294     8Ap    -0.434089     4App   -0.382675
       9Ap    -0.382375     5App   -0.363729    10Ap    -0.337896
       6App   -0.337725    11Ap    -0.169286

    Alpha Virtual:

      12Ap     0.076102    13Ap     0.134082     7App    0.134148
      14Ap     0.142363     8App    0.142489    15Ap     0.154818
      16Ap     0.178489     9App    0.178717    17Ap     0.202437
      10App    0.214457    11App    0.275396    18Ap     0.275510
      12App    0.399096    19Ap     0.399397    20Ap     0.403551
      13App    0.424334    21Ap     0.424431    22Ap     0.456030
      14App    0.495135    23Ap     0.495193    15App    0.511827
      24Ap     0.513570    25Ap     0.578034    16App    0.578207
      26Ap     0.590968    17App    0.591210    27Ap     0.602124
      28Ap     0.624354    18App    0.631421    29Ap     0.635345
      19App    0.635558    30Ap     0.662763    20App    0.663103
      21App    0.683263    31Ap     0.683558    32Ap     0.735195
      22App    0.825546    33Ap     0.825576    23App    0.852911
      34Ap     0.914283    24App    0.914318    25App    0.942802
      35Ap     0.945183    36Ap     0.960266    26App    0.960403
      37Ap     1.002334    38Ap     1.127108    27App    1.127329
      39Ap     1.141879    40Ap     1.162386    28App    1.162595
      41Ap     1.222433    42Ap     1.273438    29App    1.273730
      43Ap     1.278839    44Ap     1.323767    30App    1.324273
      45Ap     1.355815    31App    1.363921    46Ap     1.364544
      32App    1.390937    47Ap     1.404207    33App    1.404439
      48Ap     1.416461    34App    1.417054    35App    1.426482
      36App    1.490298    49Ap     1.498509    50Ap     1.542042
      37App    1.542134    38App    1.573125    51Ap     1.573439
      52Ap     1.669899    53Ap     1.738368    39App    1.739195
      54Ap     1.766813    40App    1.830000    55Ap     1.830391
      41App    1.970360    56Ap     2.015968    57Ap     2.017362
      42App    2.018546    58Ap     2.047810    43App    2.048561
      59Ap     2.737843    44App    2.737919    60Ap     2.789763
      45App    2.808704    46App    2.888522    61Ap     2.889053
      62Ap     2.893419    47App    2.929302    63Ap     2.929355
      48App    2.958759    64Ap     2.964563    49App    2.964789
      65Ap     3.034038    50App    3.070217    66Ap     3.070469
      51App    3.082789    67Ap     3.167806    52App    3.168060
      68Ap     3.178733    69Ap     3.284763    53App    3.284814
      70Ap     3.326582    54App    3.326905    71Ap     3.376976
      55App    3.488033    72Ap     3.488687    56App    3.513234
      73Ap     3.522976    74Ap     3.568368    57App    3.568564
      58App    3.573027    75Ap     3.666135    59App    3.666737
      76Ap     3.677726    60App    3.692670    77Ap     3.692723
      78Ap     3.772286    61App    3.772390    79Ap     3.788415
      62App    3.910058    80Ap     3.910211    81Ap     4.032620
      63App    4.108376    82Ap     4.108582    64App    4.147392
      83Ap     4.147465    84Ap     4.172029    85Ap     4.200436
      65App    4.200917    86Ap     4.201357    66App    4.209234
      67App    4.313995    87Ap     4.314845    68App    4.356495
      69App    4.422280    88Ap     4.422523    70App    4.441006
      89Ap     4.512811    71App    4.514925    72App    4.574518
      90Ap     4.574933    91Ap     4.610241    92Ap     4.704680
      93Ap     4.767659    73App    4.768668    74App    4.832954
      94Ap     4.959846    95Ap     5.000884    75App    5.001779
      96Ap     5.227035    97Ap     5.245381    76App    5.245419
      77App    5.352654    98Ap     5.353163    78App    5.473650

    Beta Occupied:

       1Ap   -10.168172     1App  -10.168125     2Ap   -10.168112
       3Ap   -10.167260     4Ap    -0.780069     5Ap    -0.683743
       2App   -0.683677     6Ap    -0.511648     3App   -0.430688
       7Ap    -0.430477     8Ap    -0.421325     4App   -0.376806
       9Ap    -0.376488     5App   -0.362725    10Ap    -0.333016
       6App   -0.332843

    Beta Virtual:

      11Ap    -0.025774    12Ap     0.077100    13Ap     0.134987
       7App    0.135036    14Ap     0.144209     8App    0.144326
      15Ap     0.163233    16Ap     0.182132     9App    0.182364
      10App    0.214680    17Ap     0.218000    11App    0.281816
      18Ap     0.281925    12App    0.400232    19Ap     0.400539
      20Ap     0.420091    13App    0.427151    21Ap     0.427255
      22Ap     0.467584    14App    0.497385    23Ap     0.497435
      15App    0.513546    24Ap     0.555986    25Ap     0.583582
      16App    0.583747    26Ap     0.597203    17App    0.597453
      27Ap     0.609512    28Ap     0.627670    18App    0.631567
      29Ap     0.638557    19App    0.638771    30Ap     0.666381
      20App    0.666692    21App    0.685818    31Ap     0.686118
      32Ap     0.757896    22App    0.830700    33Ap     0.830725
      23App    0.854227    34Ap     0.922243    24App    0.922275
      25App    0.944635    35Ap     0.954203    36Ap     0.965539
      26App    0.965691    37Ap     1.007652    38Ap     1.131099
      27App    1.131394    39Ap     1.155247    40Ap     1.167504
      28App    1.167618    41Ap     1.231265    42Ap     1.278993
      29App    1.279293    43Ap     1.284657    44Ap     1.328749
      30App    1.329276    45Ap     1.365202    31App    1.369171
      46Ap     1.369795    32App    1.391985    47Ap     1.407691
      33App    1.407953    48Ap     1.421472    34App    1.422029
      35App    1.426718    36App    1.491346    49Ap     1.508890
      37App    1.546528    50Ap     1.546577    38App    1.580981
      51Ap     1.581189    52Ap     1.674738    53Ap     1.744134
      39App    1.744947    54Ap     1.777570    40App    1.833836
      55Ap     1.834229    41App    1.971215    56Ap     2.023682
      42App    2.024964    57Ap     2.037328    58Ap     2.054523
      43App    2.055217    59Ap     2.746279    44App    2.746345
      45App    2.809111    60Ap     2.814918    46App    2.901435
      61Ap     2.901952    62Ap     2.923064    47App    2.931626
      63Ap     2.931673    48App    2.959809    64Ap     2.969054
      49App    2.969272    65Ap     3.041885    50App    3.080035
      66Ap     3.080286    51App    3.084599    67Ap     3.183675
      52App    3.183899    68Ap     3.186476    69Ap     3.289396
      53App    3.289428    70Ap     3.330448    54App    3.330798
      71Ap     3.384812    55App    3.490782    72Ap     3.491431
      56App    3.511607    73Ap     3.526074    57App    3.572863
      74Ap     3.581754    58App    3.581824    75Ap     3.671048
      59App    3.671524    76Ap     3.691038    77Ap     3.724370
      60App    3.724650    78Ap     3.776784    61App    3.776862
      79Ap     3.817094    62App    3.919853    80Ap     3.920036
      81Ap     4.043576    63App    4.115515    82Ap     4.115619
      64App    4.154372    83Ap     4.154534    84Ap     4.185978
      85Ap     4.206473    65App    4.206859    86Ap     4.209163
      66App    4.213632    67App    4.321378    87Ap     4.322279
      68App    4.359881    69App    4.430400    88Ap     4.430623
      70App    4.443873    89Ap     4.520479    71App    4.522584
      72App    4.585115    90Ap     4.585500    91Ap     4.617449
      92Ap     4.714943    93Ap     4.774628    73App    4.775599
      74App    4.835872    94Ap     4.964619    95Ap     5.004901
      75App    5.005761    96Ap     5.232712    97Ap     5.247153
      76App    5.247191    77App    5.359082    98Ap     5.359588
      78App    5.475949

    Final Occupation by Irrep:
             Ap   App
    DOCC [    10,    6 ]
    SOCC [     1,    0 ]

  @DF-UKS Final Energy:  -157.81307189619679

   => Energetics <=

    Nuclear Repulsion Energy =            125.2136481678954851
    One-Electron Energy =                -458.3925713719087867
    Two-Electron Energy =                 195.6692016753960672
    DFT Exchange-Correlation Energy =     -20.3033503675795650
    Empirical Dispersion Energy =           0.0000000000000000
    VV10 Nonlocal Energy =                  0.0000000000000000
    Total Energy =                       -157.8130718961967887

  UHF NO Occupations:
  HONO-2 :    9 Ap 1.9996026
  HONO-1 :   10 Ap 1.9989734
  HONO-0 :   11 Ap 1.0000000
  LUNO+0 :   12 Ap 0.0010266
  LUNO+1 :   13 Ap 0.0003974
  LUNO+2 :    7App 0.0001999
  LUNO+3 :   14 Ap 0.0001996

Computation Completed

Properties will be evaluated at   0.000000,   0.000000,   0.000000 [a0]

Properties computed using the SCF density matrix

  Nuclear Dipole Moment: [e a0]
     X:     0.8270      Y:     0.0012      Z:     0.0000

  Electronic Dipole Moment: [e a0]
     X:    -0.7483      Y:    -0.0011      Z:     0.0000

  Dipole Moment: [e a0]
     X:     0.0788      Y:     0.0001      Z:     0.0000     Total:     0.0788

  Dipole Moment: [D]
     X:     0.2002      Y:     0.0003      Z:     0.0000     Total:     0.2002

*** tstop() called on n079 at Fri Nov  5 12:39:53 2021
Module time:
	user time   =     495.02 seconds =       8.25 minutes
	system time =       4.62 seconds =       0.08 minutes
	total time  =        126 seconds =       2.10 minutes
Total time:
	user time   =     495.02 seconds =       8.25 minutes
	system time =       4.62 seconds =       0.08 minutes
	total time  =        126 seconds =       2.10 minutes
Grab this energy -157.8130718961968
    Psi4 stopped on: Friday, 05 November 2021 12:39PM
    Psi4 wall time for execution: 0:02:05.70

*** Psi4 exiting successfully. Buy a developer a beer!
