                               Psi4 1.4a2.dev629

  ==> Input File <==

--------------------------------------------------------------------------
import os
memory 14 GB

molecule {
 C   -0.3233415966   -0.0000020504    0.0000017924
 C    0.0611393934   -1.4015284549   -2.4260059518
 C    0.0610190657    2.8017595493   -0.0007496812
 C    0.0611383306   -1.4002268152    2.4267556490
 H    2.0869341866   -1.6414375592   -2.8489808738
 H   -0.7700859423   -0.3887291242   -4.0203324981
 H   -0.7608798196   -3.2966980986   -2.3511367430
 H    2.0867933522    3.2881065191    0.0030701070
 H   -0.7703228422    3.6760500297    1.6734893893
 H   -0.7609632866    3.6844597194   -1.6794909507
 H    2.0869303340   -1.6467614491    2.8459071610
 H   -0.7702508161   -3.2872847899    2.3468503595
 H   -0.7607182357   -0.3877317896    4.0306222405
units bohr
0 2
}

basis {

assign 6-31g_2dfp_

[ 6-31g_2dfp_ ]

spherical

!----------------------------------------------------------------------
! Basis Set Exchange
! Version v0.8.13
! https://www.basissetexchange.org
!----------------------------------------------------------------------
!   Basis set: 6-31G(2df,p)
! Description: 6-31G(2df,p)
!        Role: orbital
!     Version: 0  (Data from the original Basis Set Exchange)
!----------------------------------------------------------------------

****
H     0
S    3   1.00
     18.7311370              0.03349460
      2.8253937              0.23472695
      0.6401217              0.81375733
S    1   1.00
      0.1612778              1.00000000
P    1   1.00
      1.5000000              1.0000000
P    1   1.00
      0.3750000              1.0000000
****
B     0
S    6   1.00
   2068.8823000              0.0018663
    310.6495700              0.0142515
     70.6830330              0.0695516
     19.8610800              0.2325729
      6.2993048              0.4670787
      2.1270270              0.3634314
SP   3   1.00
      4.7279710             -0.1303938              0.0745976
      1.1903377             -0.1307889              0.3078467
      0.3594117              1.1309444              0.7434568
SP   1   1.00
      0.1267512              1.0000000              1.0000000
D    1   1.00
      0.8020000              1.0000000
D    1   1.00
      0.2005000              1.0000000
F    1   1.00
      0.5000000              1.0000000
****
C     0
S    6   1.00
   3047.5249000              0.0018347
    457.3695100              0.0140373
    103.9486900              0.0688426
     29.2101550              0.2321844
      9.2866630              0.4679413
      3.1639270              0.3623120
SP   3   1.00
      7.8682724             -0.1193324              0.0689991
      1.8812885             -0.1608542              0.3164240
      0.5442493              1.1434564              0.7443083
SP   1   1.00
      0.1687144              1.0000000              1.0000000
D    1   1.00
      1.2520000              1.0000000
D    1   1.00
      0.3130000              1.0000000
F    1   1.00
      0.8000000              1.0000000
****
N     0
S    6   1.00
   4173.5110000              0.0018348
    627.4579000              0.0139950
    142.9021000              0.0685870
     40.2343300              0.2322410
     12.8202100              0.4690700
      4.3904370              0.3604550
SP   3   1.00
     11.6263580             -0.1149610              0.0675800
      2.7162800             -0.1691180              0.3239070
      0.7722180              1.1458520              0.7408950
SP   1   1.00
      0.2120313              1.0000000              1.0000000
D    1   1.00
      1.8260000              1.0000000
D    1   1.00
      0.4565000              1.0000000
F    1   1.00
      1.0000000              1.0000000
****
O     0
S    6   1.00
   5484.6717000              0.0018311
    825.2349500              0.0139501
    188.0469600              0.0684451
     52.9645000              0.2327143
     16.8975700              0.4701930
      5.7996353              0.3585209
SP   3   1.00
     15.5396160             -0.1107775              0.0708743
      3.5999336             -0.1480263              0.3397528
      1.0137618              1.1307670              0.7271586
SP   1   1.00
      0.2700058              1.0000000              1.0000000
D    1   1.00
      2.5840000              1.0000000
D    1   1.00
      0.6460000              1.0000000
F    1   1.00
      1.4000000              1.0000000
****
F     0
S    6   1.00
   7001.7130900              0.0018196169
   1051.3660900              0.0139160796
    239.2856900              0.0684053245
     67.3974453              0.233185760
     21.5199573              0.471267439
      7.40310130             0.356618546
SP   3   1.00
     20.8479528             -0.108506975            0.0716287243
      4.80830834            -0.146451658            0.3459121030
      1.34406986             1.128688580            0.7224699570
SP   1   1.00
      0.358151393            1.0000000              1.0000000
D    1   1.00
      3.5000000              1.0000000
D    1   1.00
      0.8750000              1.0000000
F    1   1.00
      1.8500000              1.0000000
****
Al     0
S    6   1.00
  13983.1000000              0.00194267
   2098.7500000              0.0148599
    477.7050000              0.0728494
    134.3600000              0.2468300
     42.8709000              0.4872580
     14.5189000              0.3234960
SP   6   1.00
    239.6680000             -0.00292619             0.00460285
     57.4419000             -0.0374080              0.0331990
     18.2859000             -0.1144870              0.1362820
      6.5991400              0.1156350              0.3304760
      2.4904900              0.6125950              0.4491460
      0.9445400              0.3937990              0.2657040
SP   3   1.00
      1.2779000             -0.2276060             -0.0175130
      0.3975900              0.00144583             0.2445330
      0.1600950              1.0927900              0.8049340
SP   1   1.00
      0.0556577              1.0000000              1.0000000
D    1   1.00
      0.6500000              1.0000000
D    1   1.00
      0.1625000              1.0000000
F    1   1.00
      0.2500000              1.0000000
****
Si     0
S    6   1.00
  16115.9000000              0.00195948
   2425.5800000              0.01492880
    553.8670000              0.07284780
    156.3400000              0.24613000
     50.0683000              0.48591400
     17.0178000              0.32500200
SP   6   1.00
    292.7180000             -0.00278094             0.00443826
     69.8731000             -0.03571460             0.03266790
     22.3363000             -0.11498500             0.13472100
      8.1503900              0.09356340             0.32867800
      3.1345800              0.60301700             0.44964000
      1.2254300              0.41895900             0.26137200
SP   3   1.00
      1.7273800             -0.24463000            -0.01779510
      0.5729220              0.00431572             0.25353900
      0.2221920              1.09818000             0.80066900
SP   1   1.00
      0.0778369              1.00000000             1.00000000
D    1   1.00
      0.9000000              1.0000000
D    1   1.00
      0.2250000              1.0000000
F    1   1.00
      0.3200000              1.0000000
****
P     0
S    6   1.00
  19413.3000000              0.0018516
   2909.4200000              0.0142062
    661.3640000              0.0699995
    185.7590000              0.2400790
     59.1943000              0.4847620
     20.0310000              0.3352000
SP   6   1.00
    339.4780000             -0.00278217             0.00456462
     81.0101000             -0.0360499              0.03369360
     25.8780000             -0.1166310              0.13975500
      9.4522100              0.0968328              0.33936200
      3.6656600              0.6144180              0.45092100
      1.4674600              0.4037980              0.23858600
SP   3   1.00
      2.1562300             -0.2529230             -0.01776530
      0.7489970              0.0328517              0.27405800
      0.2831450              1.0812500              0.78542100
SP   1   1.00
      0.0998317              1.0000000              1.00000000
D    1   1.00
      1.1000000              1.0000000
D    1   1.00
      0.2750000              1.0000000
F    1   1.00
      0.4500000              1.0000000
****
S     0
S    6   1.00
  21917.1000000              0.0018690
   3301.4900000              0.0142300
    754.1460000              0.0696960
    212.7110000              0.2384870
     67.9896000              0.4833070
     23.0515000              0.3380740
SP   6   1.00
    423.7350000             -0.0023767              0.0040610
    100.7100000             -0.0316930              0.0306810
     32.1599000             -0.1133170              0.1304520
     11.8079000              0.0560900              0.3272050
      4.6311000              0.5922550              0.4528510
      1.8702500              0.4550060              0.2560420
SP   3   1.00
      2.6158400             -0.2503740             -0.0145110
      0.9221670              0.0669570              0.3102630
      0.3412870              1.0545100              0.7544830
SP   1   1.00
      0.1171670              1.0000000              1.0000000
D    1   1.00
      1.3000000              1.0000000
D    1   1.00
      0.3250000              1.0000000
F    1   1.00
      0.5500000              1.0000000
****
Cl     0
S    6   1.00
  25180.1000000              0.0018330
   3780.3500000              0.0140340
    860.4740000              0.0690970
    242.1450000              0.2374520
     77.3349000              0.4830340
     26.2470000              0.3398560
SP   6   1.00
    491.7650000             -0.0022974              0.0039894
    116.9840000             -0.0307140              0.0303180
     37.4153000             -0.1125280              0.1298800
     13.7834000              0.0450160              0.3279510
      5.4521500              0.5893530              0.4535270
      2.2258800              0.4652060              0.2521540
SP   3   1.00
      3.1864900             -0.2518300             -0.0142990
      1.1442700              0.0615890              0.3235720
      0.4203770              1.0601800              0.7435070
SP   1   1.00
      0.1426570              1.0000000              1.0000000
D    1   1.00
      1.5000000              1.0000000
D    1   1.00
      0.3750000              1.0000000
F    1   1.00
      0.7000000              1.0000000
****
}

set {
reference uhf
freeze_core true
e_convergence 10
d_convergence 10
dft_spherical_points 1202
dft_radial_points 99
}

e = energy('b3lyp')

print_out('Grab this energy {0}'.format(e))
--------------------------------------------------------------------------

    Molecular point group: c1

    Geometry (in Bohr), charge = 0, multiplicity = 2:

       Center              X                  Y                   Z               Mass
    ------------   -----------------  -----------------  -----------------  -----------------
         C           -0.323340667839    -0.000002050321     0.000001444087    12.000000000000
         C            0.061140322161    -1.401528454821    -2.426006300113    12.000000000000
         C            0.061019994461     2.801759549379    -0.000750029513    12.000000000000
         C            0.061139259361    -1.400226815121     2.426755300687    12.000000000000
         H            2.086935115361    -1.641437559121    -2.848981222113     1.007825032230
         H           -0.770085013539    -0.388729124121    -4.020332846413     1.007825032230
         H           -0.760878890839    -3.296698098521    -2.351137091313     1.007825032230
         H            2.086794280961     3.288106519179     0.003069758687     1.007825032230
         H           -0.770321913439     3.676050029779     1.673489040987     1.007825032230
         H           -0.760962357839     3.684459719479    -1.679491299013     1.007825032230
         H            2.086931262761    -1.646761449021     2.845906812687     1.007825032230
         H           -0.770249887339    -3.287284789821     2.346850011187     1.007825032230
         H           -0.760717306939    -0.387731789521     4.030621892187     1.007825032230

  Charge       = 0
  Multiplicity = 2
  Basis Set: ANONYMOUSDA284AB3
    Blend: 6-31G_2DFP_
  Basis Set: (ANONYMOUSDA284AB3 AUX)
    Blend: DEF2-UNIVERSAL-JKFIT

    Orbital Energies [Eh]
    ---------------------

    Alpha Occupied:

       1A    -10.180342     2A    -10.167030     3A    -10.167030
       4A    -10.166984     5A     -0.797766     6A     -0.686187
       7A     -0.686186     8A     -0.530775     9A     -0.441125
      10A     -0.434672    11A     -0.434671    12A     -0.382600
      13A     -0.382598    14A     -0.363609    15A     -0.337998
      16A     -0.337998    17A     -0.168961

    Alpha Virtual:

      18A      0.076073    19A      0.134155    20A      0.134156
      21A      0.142628    22A      0.142629    23A      0.154879
      24A      0.178777    25A      0.178777    26A      0.203534
      27A      0.214813    28A      0.275983    29A      0.275985
      30A      0.399227    31A      0.399231    32A      0.403345
      33A      0.424098    34A      0.424098    35A      0.456593
      36A      0.495391    37A      0.495392    38A      0.512150
      39A      0.513988    40A      0.578814    41A      0.578822
      42A      0.591634    43A      0.591636    44A      0.602567
      45A      0.624673    46A      0.631867    47A      0.636244
      48A      0.636248    49A      0.663411    50A      0.663412
      51A      0.683850    52A      0.683852    53A      0.734993
      54A      0.825408    55A      0.825411    56A      0.853916
      57A      0.915019    58A      0.915025    59A      0.943823
      60A      0.944909    61A      0.961286    62A      0.961302
      63A      1.003457    64A      1.128098    65A      1.128111
      66A      1.142223    67A      1.163267    68A      1.163280
      69A      1.223321    70A      1.274493    71A      1.274496
      72A      1.279345    73A      1.324355    74A      1.324357
      75A      1.355945    76A      1.366042    77A      1.366047
      78A      1.392506    79A      1.404019    80A      1.404021
      81A      1.417144    82A      1.417151    83A      1.427914
      84A      1.491478    85A      1.499096    86A      1.542830
      87A      1.542832    88A      1.574439    89A      1.574441
      90A      1.669833    91A      1.739421    92A      1.739432
      93A      1.768316    94A      1.831389    95A      1.831390
      96A      1.971733    97A      2.018300    98A      2.019046
      99A      2.019049   100A      2.052635   101A      2.052637
     102A      2.738486   103A      2.738487   104A      2.790925
     105A      2.811422   106A      2.889954   107A      2.889960
     108A      2.894935   109A      2.929490   110A      2.929498
     111A      2.958993   112A      2.964373   113A      2.964387
     114A      3.034013   115A      3.071279   116A      3.071293
     117A      3.084337   118A      3.168780   119A      3.168787
     120A      3.180585   121A      3.285310   122A      3.285310
     123A      3.327161   124A      3.327167   125A      3.375633
     126A      3.490153   127A      3.490173   128A      3.513849
     129A      3.525488   130A      3.568366   131A      3.568387
     132A      3.575159   133A      3.666376   134A      3.666384
     135A      3.679648   136A      3.694099   137A      3.694115
     138A      3.776803   139A      3.776828   140A      3.789113
     141A      3.912242   142A      3.912249   143A      4.034463
     144A      4.111374   145A      4.111379   146A      4.148128
     147A      4.148135   148A      4.173235   149A      4.202640
     150A      4.203067   151A      4.203071   152A      4.210859
     153A      4.315950   154A      4.315970   155A      4.358951
     156A      4.424452   157A      4.424454   158A      4.443435
     159A      4.516836   160A      4.516838   161A      4.578267
     162A      4.578279   163A      4.617543   164A      4.709388
     165A      4.774586   166A      4.774594   167A      4.836941
     168A      4.962888   169A      5.002950   170A      5.002962
     171A      5.228038   172A      5.246813   173A      5.246814
     174A      5.355496   175A      5.355509   176A      5.479347

    Beta Occupied:

       1A    -10.167783     2A    -10.167783     3A    -10.167758
       4A    -10.166520     5A     -0.781091     6A     -0.683990
       7A     -0.683989     8A     -0.511747     9A     -0.431042
      10A     -0.431042    11A     -0.421824    12A     -0.376685
      13A     -0.376683    14A     -0.362593    15A     -0.333121
      16A     -0.333121

    Beta Virtual:

      17A     -0.025742    18A      0.077082    19A      0.135045
      20A      0.135046    21A      0.144499    22A      0.144499
      23A      0.163338    24A      0.182448    25A      0.182449
      26A      0.214993    27A      0.218966    28A      0.282331
      29A      0.282333    30A      0.400396    31A      0.400400
      32A      0.419792    33A      0.426909    34A      0.426909
      35A      0.468501    36A      0.497651    37A      0.497652
      38A      0.513893    39A      0.556326    40A      0.584364
      41A      0.584372    42A      0.597814    43A      0.597816
      44A      0.609987    45A      0.627993    46A      0.632082
      47A      0.639530    48A      0.639534    49A      0.666975
      50A      0.666975    51A      0.686485    52A      0.686487
      53A      0.757515    54A      0.830577    55A      0.830579
      56A      0.855270    57A      0.922990    58A      0.922997
      59A      0.945916    60A      0.953583    61A      0.966591
      62A      0.966607    63A      1.008697    64A      1.132124
      65A      1.132136    66A      1.155603    67A      1.168344
      68A      1.168357    69A      1.232291    70A      1.280088
      71A      1.280092    72A      1.285098    73A      1.329344
      74A      1.329346    75A      1.365348    76A      1.371284
      77A      1.371288    78A      1.393578    79A      1.407489
      80A      1.407491    81A      1.422192    82A      1.422198
      83A      1.428183    84A      1.492534    85A      1.509533
      86A      1.547238    87A      1.547239    88A      1.582312
      89A      1.582312    90A      1.674680    91A      1.745182
      92A      1.745194    93A      1.779097    94A      1.835245
      95A      1.835246    96A      1.972593    97A      2.025449
      98A      2.025452    99A      2.039674   100A      2.059349
     101A      2.059351   102A      2.746822   103A      2.746823
     104A      2.811820   105A      2.816075   106A      2.902642
     107A      2.902648   108A      2.924644   109A      2.931968
     110A      2.931977   111A      2.960057   112A      2.968918
     113A      2.968933   114A      3.041947   115A      3.081190
     116A      3.081202   117A      3.086154   118A      3.184536
     119A      3.184540   120A      3.188259   121A      3.290107
     122A      3.290108   123A      3.330967   124A      3.330972
     125A      3.383450   126A      3.492883   127A      3.492903
     128A      3.512259   129A      3.528486   130A      3.575021
     131A      3.581701   132A      3.581723   133A      3.671120
     134A      3.671131   135A      3.692942   136A      3.725737
     137A      3.725753   138A      3.781328   139A      3.781354
     140A      3.817659   141A      3.922059   142A      3.922066
     143A      4.045350   144A      4.118190   145A      4.118192
     146A      4.155334   147A      4.155343   148A      4.187297
     149A      4.209006   150A      4.209009   151A      4.210596
     152A      4.215342   153A      4.323392   154A      4.323412
     155A      4.362315   156A      4.432668   157A      4.432671
     158A      4.446315   159A      4.524626   160A      4.524628
     161A      4.588869   162A      4.588881   163A      4.624734
     164A      4.719728   165A      4.781539   166A      4.781547
     167A      4.839863   168A      4.967682   169A      5.006989
     170A      5.007002   171A      5.233754   172A      5.248598
     173A      5.248598   174A      5.361976   175A      5.361990
     176A      5.481668

    Final Occupation by Irrep:
              A
    DOCC [    16 ]
    SOCC [     1 ]

  @DF-UKS Final Energy:  -157.81306800892580

   => Energetics <=

    Nuclear Repulsion Energy =            125.3945849671896156
    One-Electron Energy =                -458.7488338716353269
    Two-Electron Energy =                 195.8483228506506464
    DFT Exchange-Correlation Energy =     -20.3071419551306995
    Empirical Dispersion Energy =           0.0000000000000000
    VV10 Nonlocal Energy =                  0.0000000000000000
    Total Energy =                       -157.8130680089257964

  UHF NO Occupations:
  HONO-2 :   15  A 1.9996009
  HONO-1 :   16  A 1.9989805
  HONO-0 :   17  A 1.0000000
  LUNO+0 :   18  A 0.0010195
  LUNO+1 :   19  A 0.0003991
  LUNO+2 :   20  A 0.0001975
  LUNO+3 :   21  A 0.0001975

Computation Completed

Properties will be evaluated at   0.000000,   0.000000,   0.000000 [a0]

Properties computed using the SCF density matrix

  Nuclear Dipole Moment: [e a0]
     X:     0.8272      Y:    -0.0000      Z:    -0.0000

  Electronic Dipole Moment: [e a0]
     X:    -0.7493      Y:     0.0000      Z:     0.0000

  Dipole Moment: [e a0]
     X:     0.0779      Y:     0.0000      Z:    -0.0000     Total:     0.0779

  Dipole Moment: [D]
     X:     0.1980      Y:     0.0000      Z:    -0.0000     Total:     0.1980

*** tstop() called on n089 at Fri Nov  5 15:28:26 2021
Module time:
	user time   =     506.30 seconds =       8.44 minutes
	system time =       4.63 seconds =       0.08 minutes
	total time  =        129 seconds =       2.15 minutes
Total time:
	user time   =     506.30 seconds =       8.44 minutes
	system time =       4.63 seconds =       0.08 minutes
	total time  =        129 seconds =       2.15 minutes
Grab this energy -157.8130680089258
    Psi4 stopped on: Friday, 05 November 2021 03:28PM
    Psi4 wall time for execution: 0:02:08.45

*** Psi4 exiting successfully. Buy a developer a beer!
