                               Psi4 1.4a2.dev629

  ==> Input File <==

--------------------------------------------------------------------------
import os
memory 14 GB

molecule {
 C   -0.3233400632    0.0019965083   -0.0002476281
 C    0.0602548813   -1.4003392190   -2.4273046450
 C    0.0608660479    2.8009141584    0.0001477464
 C    0.0621803665   -1.4001058539    2.4271893580
 H    2.0840119256   -1.6403363173   -2.8461716207
 H   -0.7677835487   -0.3916277809   -4.0315245875
 H   -0.7665335949   -3.2920689777   -2.3473491600
 H    2.0870206172    3.2835159475    0.0018545793
 H   -0.7661008190    3.6818937586    1.6751597982
 H   -0.7641763624    3.6790599069   -1.6763071581
 H    2.0896191872   -1.6440196766    2.8562396398
 H   -0.7627198478   -3.2887887066    2.3409389115
 H   -0.7659066662   -0.3901180612    4.0273747662
units bohr
0 2
}

basis {

assign 6-31g_2dfp_

[ 6-31g_2dfp_ ]

spherical

!----------------------------------------------------------------------
! Basis Set Exchange
! Version v0.8.13
! https://www.basissetexchange.org
!----------------------------------------------------------------------
!   Basis set: 6-31G(2df,p)
! Description: 6-31G(2df,p)
!        Role: orbital
!     Version: 0  (Data from the original Basis Set Exchange)
!----------------------------------------------------------------------

****
H     0
S    3   1.00
     18.7311370              0.03349460
      2.8253937              0.23472695
      0.6401217              0.81375733
S    1   1.00
      0.1612778              1.00000000
P    1   1.00
      1.5000000              1.0000000
P    1   1.00
      0.3750000              1.0000000
****
B     0
S    6   1.00
   2068.8823000              0.0018663
    310.6495700              0.0142515
     70.6830330              0.0695516
     19.8610800              0.2325729
      6.2993048              0.4670787
      2.1270270              0.3634314
SP   3   1.00
      4.7279710             -0.1303938              0.0745976
      1.1903377             -0.1307889              0.3078467
      0.3594117              1.1309444              0.7434568
SP   1   1.00
      0.1267512              1.0000000              1.0000000
D    1   1.00
      0.8020000              1.0000000
D    1   1.00
      0.2005000              1.0000000
F    1   1.00
      0.5000000              1.0000000
****
C     0
S    6   1.00
   3047.5249000              0.0018347
    457.3695100              0.0140373
    103.9486900              0.0688426
     29.2101550              0.2321844
      9.2866630              0.4679413
      3.1639270              0.3623120
SP   3   1.00
      7.8682724             -0.1193324              0.0689991
      1.8812885             -0.1608542              0.3164240
      0.5442493              1.1434564              0.7443083
SP   1   1.00
      0.1687144              1.0000000              1.0000000
D    1   1.00
      1.2520000              1.0000000
D    1   1.00
      0.3130000              1.0000000
F    1   1.00
      0.8000000              1.0000000
****
N     0
S    6   1.00
   4173.5110000              0.0018348
    627.4579000              0.0139950
    142.9021000              0.0685870
     40.2343300              0.2322410
     12.8202100              0.4690700
      4.3904370              0.3604550
SP   3   1.00
     11.6263580             -0.1149610              0.0675800
      2.7162800             -0.1691180              0.3239070
      0.7722180              1.1458520              0.7408950
SP   1   1.00
      0.2120313              1.0000000              1.0000000
D    1   1.00
      1.8260000              1.0000000
D    1   1.00
      0.4565000              1.0000000
F    1   1.00
      1.0000000              1.0000000
****
O     0
S    6   1.00
   5484.6717000              0.0018311
    825.2349500              0.0139501
    188.0469600              0.0684451
     52.9645000              0.2327143
     16.8975700              0.4701930
      5.7996353              0.3585209
SP   3   1.00
     15.5396160             -0.1107775              0.0708743
      3.5999336             -0.1480263              0.3397528
      1.0137618              1.1307670              0.7271586
SP   1   1.00
      0.2700058              1.0000000              1.0000000
D    1   1.00
      2.5840000              1.0000000
D    1   1.00
      0.6460000              1.0000000
F    1   1.00
      1.4000000              1.0000000
****
F     0
S    6   1.00
   7001.7130900              0.0018196169
   1051.3660900              0.0139160796
    239.2856900              0.0684053245
     67.3974453              0.233185760
     21.5199573              0.471267439
      7.40310130             0.356618546
SP   3   1.00
     20.8479528             -0.108506975            0.0716287243
      4.80830834            -0.146451658            0.3459121030
      1.34406986             1.128688580            0.7224699570
SP   1   1.00
      0.358151393            1.0000000              1.0000000
D    1   1.00
      3.5000000              1.0000000
D    1   1.00
      0.8750000              1.0000000
F    1   1.00
      1.8500000              1.0000000
****
Al     0
S    6   1.00
  13983.1000000              0.00194267
   2098.7500000              0.0148599
    477.7050000              0.0728494
    134.3600000              0.2468300
     42.8709000              0.4872580
     14.5189000              0.3234960
SP   6   1.00
    239.6680000             -0.00292619             0.00460285
     57.4419000             -0.0374080              0.0331990
     18.2859000             -0.1144870              0.1362820
      6.5991400              0.1156350              0.3304760
      2.4904900              0.6125950              0.4491460
      0.9445400              0.3937990              0.2657040
SP   3   1.00
      1.2779000             -0.2276060             -0.0175130
      0.3975900              0.00144583             0.2445330
      0.1600950              1.0927900              0.8049340
SP   1   1.00
      0.0556577              1.0000000              1.0000000
D    1   1.00
      0.6500000              1.0000000
D    1   1.00
      0.1625000              1.0000000
F    1   1.00
      0.2500000              1.0000000
****
Si     0
S    6   1.00
  16115.9000000              0.00195948
   2425.5800000              0.01492880
    553.8670000              0.07284780
    156.3400000              0.24613000
     50.0683000              0.48591400
     17.0178000              0.32500200
SP   6   1.00
    292.7180000             -0.00278094             0.00443826
     69.8731000             -0.03571460             0.03266790
     22.3363000             -0.11498500             0.13472100
      8.1503900              0.09356340             0.32867800
      3.1345800              0.60301700             0.44964000
      1.2254300              0.41895900             0.26137200
SP   3   1.00
      1.7273800             -0.24463000            -0.01779510
      0.5729220              0.00431572             0.25353900
      0.2221920              1.09818000             0.80066900
SP   1   1.00
      0.0778369              1.00000000             1.00000000
D    1   1.00
      0.9000000              1.0000000
D    1   1.00
      0.2250000              1.0000000
F    1   1.00
      0.3200000              1.0000000
****
P     0
S    6   1.00
  19413.3000000              0.0018516
   2909.4200000              0.0142062
    661.3640000              0.0699995
    185.7590000              0.2400790
     59.1943000              0.4847620
     20.0310000              0.3352000
SP   6   1.00
    339.4780000             -0.00278217             0.00456462
     81.0101000             -0.0360499              0.03369360
     25.8780000             -0.1166310              0.13975500
      9.4522100              0.0968328              0.33936200
      3.6656600              0.6144180              0.45092100
      1.4674600              0.4037980              0.23858600
SP   3   1.00
      2.1562300             -0.2529230             -0.01776530
      0.7489970              0.0328517              0.27405800
      0.2831450              1.0812500              0.78542100
SP   1   1.00
      0.0998317              1.0000000              1.00000000
D    1   1.00
      1.1000000              1.0000000
D    1   1.00
      0.2750000              1.0000000
F    1   1.00
      0.4500000              1.0000000
****
S     0
S    6   1.00
  21917.1000000              0.0018690
   3301.4900000              0.0142300
    754.1460000              0.0696960
    212.7110000              0.2384870
     67.9896000              0.4833070
     23.0515000              0.3380740
SP   6   1.00
    423.7350000             -0.0023767              0.0040610
    100.7100000             -0.0316930              0.0306810
     32.1599000             -0.1133170              0.1304520
     11.8079000              0.0560900              0.3272050
      4.6311000              0.5922550              0.4528510
      1.8702500              0.4550060              0.2560420
SP   3   1.00
      2.6158400             -0.2503740             -0.0145110
      0.9221670              0.0669570              0.3102630
      0.3412870              1.0545100              0.7544830
SP   1   1.00
      0.1171670              1.0000000              1.0000000
D    1   1.00
      1.3000000              1.0000000
D    1   1.00
      0.3250000              1.0000000
F    1   1.00
      0.5500000              1.0000000
****
Cl     0
S    6   1.00
  25180.1000000              0.0018330
   3780.3500000              0.0140340
    860.4740000              0.0690970
    242.1450000              0.2374520
     77.3349000              0.4830340
     26.2470000              0.3398560
SP   6   1.00
    491.7650000             -0.0022974              0.0039894
    116.9840000             -0.0307140              0.0303180
     37.4153000             -0.1125280              0.1298800
     13.7834000              0.0450160              0.3279510
      5.4521500              0.5893530              0.4535270
      2.2258800              0.4652060              0.2521540
SP   3   1.00
      3.1864900             -0.2518300             -0.0142990
      1.1442700              0.0615890              0.3235720
      0.4203770              1.0601800              0.7435070
SP   1   1.00
      0.1426570              1.0000000              1.0000000
D    1   1.00
      1.5000000              1.0000000
D    1   1.00
      0.3750000              1.0000000
F    1   1.00
      0.7000000              1.0000000
****
}

set {
reference uhf
freeze_core true
e_convergence 10
d_convergence 10
dft_spherical_points 1202
dft_radial_points 99
}

e = energy('b3lyp')

print_out('Grab this energy {0}'.format(e))
--------------------------------------------------------------------------

    Molecular point group: c1

    Geometry (in Bohr), charge = 0, multiplicity = 2:

       Center              X                  Y                   Z               Mass
    ------------   -----------------  -----------------  -----------------  -----------------
         C           -0.323340297673     0.001522046535    -0.000206185059    12.000000000000
         C            0.060254646827    -1.400813680765    -2.427263201959    12.000000000000
         C            0.060865813427     2.800439696635     0.000189189441    12.000000000000
         C            0.062180132027    -1.400580315665     2.427230801041    12.000000000000
         H            2.084011691127    -1.640810779065    -2.846130177659     1.007825032230
         H           -0.767783783173    -0.392102242665    -4.031483144459     1.007825032230
         H           -0.766533829373    -3.292543439465    -2.347307716959     1.007825032230
         H            2.087020382727     3.283041485735     0.001896022341     1.007825032230
         H           -0.766101053473     3.681419296835     1.675201241241     1.007825032230
         H           -0.764176596873     3.678585445135    -1.676265715059     1.007825032230
         H            2.089618952727    -1.644494138365     2.856281082841     1.007825032230
         H           -0.762720082273    -3.289263168365     2.340980354541     1.007825032230
         H           -0.765906900673    -0.390592522965     4.027416209241     1.007825032230

  Charge       = 0
  Multiplicity = 2
  Basis Set: ANONYMOUS943ADAE8
    Blend: 6-31G_2DFP_
  Basis Set: (ANONYMOUS943ADAE8 AUX)
    Blend: DEF2-UNIVERSAL-JKFIT

    Orbital Energies [Eh]
    ---------------------

    Alpha Occupied:

       1A    -10.180342     2A    -10.167139     3A    -10.167074
       4A    -10.166831     5A     -0.797767     6A     -0.686312
       7A     -0.686062     8A     -0.530775     9A     -0.441130
      10A     -0.434779    11A     -0.434561    12A     -0.382827
      13A     -0.382369    14A     -0.363611    15A     -0.338165
      16A     -0.337831    17A     -0.168961

    Alpha Virtual:

      18A      0.076073    19A      0.134097    20A      0.134212
      21A      0.142411    22A      0.142840    23A      0.154881
      24A      0.178635    25A      0.178917    26A      0.203551
      27A      0.214804    28A      0.275715    29A      0.276255
      30A      0.399096    31A      0.399352    32A      0.403352
      33A      0.423982    34A      0.424215    35A      0.456594
      36A      0.495329    37A      0.495449    38A      0.512160
      39A      0.513982    40A      0.578497    41A      0.579124
      42A      0.591218    43A      0.592027    44A      0.602605
      45A      0.624759    46A      0.631749    47A      0.636046
      48A      0.636485    49A      0.663361    50A      0.663464
      51A      0.683735    52A      0.683970    53A      0.734993
      54A      0.825183    55A      0.825628    56A      0.853915
      57A      0.914666    58A      0.915370    59A      0.944105
      60A      0.944613    61A      0.960629    62A      0.961987
      63A      1.003461    64A      1.127637    65A      1.128565
      66A      1.142204    67A      1.163086    68A      1.163481
      69A      1.223327    70A      1.274292    71A      1.274671
      72A      1.279365    73A      1.324290    74A      1.324419
      75A      1.355978    76A      1.365900    77A      1.366218
      78A      1.392450    79A      1.403469    80A      1.404628
      81A      1.416584    82A      1.417624    83A      1.427927
      84A      1.491501    85A      1.499060    86A      1.542547
      87A      1.543126    88A      1.573964    89A      1.574941
      90A      1.669835    91A      1.739027    92A      1.739800
      93A      1.768325    94A      1.830747    95A      1.832059
      96A      1.971722    97A      2.018025    98A      2.019084
      99A      2.019294   100A      2.051717   101A      2.053566
     102A      2.738202   103A      2.738768   104A      2.790932
     105A      2.811418   106A      2.889603   107A      2.890241
     108A      2.895023   109A      2.929191   110A      2.929802
     111A      2.958988   112A      2.964141   113A      2.964619
     114A      3.034003   115A      3.070626   116A      3.071943
     117A      3.084351   118A      3.168483   119A      3.169091
     120A      3.180578   121A      3.285192   122A      3.285438
     123A      3.326223   124A      3.328102   125A      3.375619
     126A      3.489068   127A      3.491225   128A      3.514017
     129A      3.525313   130A      3.567924   131A      3.568638
     132A      3.575388   133A      3.665892   134A      3.666807
     135A      3.679644   136A      3.693320   137A      3.694958
     138A      3.775551   139A      3.778045   140A      3.789207
     141A      3.911947   142A      3.912526   143A      4.034443
     144A      4.110085   145A      4.112627   146A      4.147237
     147A      4.148958   148A      4.173287   149A      4.202145
     150A      4.203077   151A      4.203586   152A      4.210851
     153A      4.315114   154A      4.316766   155A      4.359028
     156A      4.424213   157A      4.424726   158A      4.443427
     159A      4.516053   160A      4.517579   161A      4.577936
     162A      4.578594   163A      4.617574   164A      4.709404
     165A      4.773401   166A      4.775801   167A      4.836962
     168A      4.962860   169A      5.002305   170A      5.003608
     171A      5.228061   172A      5.246095   173A      5.247532
     174A      5.354794   175A      5.356220   176A      5.479353

    Beta Occupied:

       1A    -10.167893     2A    -10.167838     3A    -10.167593
       4A    -10.166519     5A     -0.781093     6A     -0.684107
       7A     -0.683873     8A     -0.511747     9A     -0.431161
      10A     -0.430929    11A     -0.421820    12A     -0.376918
      13A     -0.376449    14A     -0.362595    15A     -0.333275
      16A     -0.332967

    Beta Virtual:

      17A     -0.025743    18A      0.077082    19A      0.134998
      20A      0.135092    21A      0.144303    22A      0.144691
      23A      0.163340    24A      0.182306    25A      0.182590
      26A      0.215033    27A      0.218932    28A      0.282073
      29A      0.282594    30A      0.400271    31A      0.400523
      32A      0.419790    33A      0.426793    34A      0.427028
      35A      0.468501    36A      0.497593    37A      0.497708
      38A      0.513896    39A      0.556325    40A      0.584044
      41A      0.584679    42A      0.597410    43A      0.598199
      44A      0.610022    45A      0.628137    46A      0.631916
      47A      0.639323    48A      0.639769    49A      0.666917
      50A      0.667036    51A      0.686378    52A      0.686597
      53A      0.757516    54A      0.830331    55A      0.830817
      56A      0.855269    57A      0.922674    58A      0.923304
      59A      0.945945    60A      0.953533    61A      0.965994
      62A      0.967239    63A      1.008702    64A      1.131662
      65A      1.132597    66A      1.155576    67A      1.168163
      68A      1.168556    69A      1.232298    70A      1.279900
      71A      1.280261    72A      1.285118    73A      1.329273
      74A      1.329414    75A      1.365380    76A      1.371186
      77A      1.371433    78A      1.393511    79A      1.406912
      80A      1.408111    81A      1.421640    82A      1.422652
      83A      1.428212    84A      1.492550    85A      1.509501
      86A      1.546935    87A      1.547560    88A      1.581745
      89A      1.582899    90A      1.674682    91A      1.744783
      92A      1.745569    93A      1.779103    94A      1.834607
      95A      1.835910    96A      1.972582    97A      2.025354
      98A      2.025540    99A      2.039685   100A      2.058403
     101A      2.060311   102A      2.746555   103A      2.747088
     104A      2.811831   105A      2.816065   106A      2.902362
     107A      2.902917   108A      2.924668   109A      2.931685
     110A      2.932273   111A      2.960056   112A      2.968694
     113A      2.969151   114A      3.041938   115A      3.080494
     116A      3.081894   117A      3.086167   118A      3.184211
     119A      3.184870   120A      3.188253   121A      3.289946
     122A      3.290281   123A      3.330044   124A      3.331890
     125A      3.383438   126A      3.491822   127A      3.493929
     128A      3.512386   129A      3.528365   130A      3.574802
     131A      3.581393   132A      3.582280   133A      3.670687
     134A      3.671551   135A      3.692927   136A      3.725310
     137A      3.726211   138A      3.780123   139A      3.782535
     140A      3.817736   141A      3.921776   142A      3.922330
     143A      4.045331   144A      4.117016   145A      4.119331
     146A      4.154412   147A      4.156205   148A      4.187337
     149A      4.208521   150A      4.209321   151A      4.210806
     152A      4.215326   153A      4.322532   154A      4.324223
     155A      4.362394   156A      4.432468   157A      4.432899
     158A      4.446313   159A      4.523856   160A      4.525356
     161A      4.588538   162A      4.589190   163A      4.624770
     164A      4.719747   165A      4.780378   166A      4.782732
     167A      4.839882   168A      4.967655   169A      5.006352
     170A      5.007640   171A      5.233777   172A      5.247875
     173A      5.249320   174A      5.361253   175A      5.362721
     176A      5.481674

    Final Occupation by Irrep:
              A
    DOCC [    16 ]
    SOCC [     1 ]

  @DF-UKS Final Energy:  -157.81306286084308

   => Energetics <=

    Nuclear Repulsion Energy =            125.3946359790785579
    One-Electron Energy =                -458.7489161060387346
    Two-Electron Energy =                 195.8483612081835474
    DFT Exchange-Correlation Energy =     -20.3071439420664355
    Empirical Dispersion Energy =           0.0000000000000000
    VV10 Nonlocal Energy =                  0.0000000000000000
    Total Energy =                       -157.8130628608430754

  UHF NO Occupations:
  HONO-2 :   15  A 1.9996009
  HONO-1 :   16  A 1.9989804
  HONO-0 :   17  A 1.0000000
  LUNO+0 :   18  A 0.0010196
  LUNO+1 :   19  A 0.0003991
  LUNO+2 :   20  A 0.0001979
  LUNO+3 :   21  A 0.0001972

Computation Completed

Properties will be evaluated at   0.000000,   0.000000,   0.000000 [a0]

Properties computed using the SCF density matrix

  Nuclear Dipole Moment: [e a0]
     X:     0.8272      Y:    -0.0034      Z:     0.0003

  Electronic Dipole Moment: [e a0]
     X:    -0.7493      Y:     0.0034      Z:    -0.0011

  Dipole Moment: [e a0]
     X:     0.0779      Y:     0.0000      Z:    -0.0008     Total:     0.0779

  Dipole Moment: [D]
     X:     0.1980      Y:     0.0001      Z:    -0.0020     Total:     0.1980

*** tstop() called on n089 at Fri Nov  5 15:17:03 2021
Module time:
	user time   =     593.04 seconds =       9.88 minutes
	system time =       5.54 seconds =       0.09 minutes
	total time  =        151 seconds =       2.52 minutes
Total time:
	user time   =     593.04 seconds =       9.88 minutes
	system time =       5.54 seconds =       0.09 minutes
	total time  =        151 seconds =       2.52 minutes
Grab this energy -157.81306286084308
    Psi4 stopped on: Friday, 05 November 2021 03:17PM
    Psi4 wall time for execution: 0:02:30.46

*** Psi4 exiting successfully. Buy a developer a beer!
