                               Psi4 1.4a2.dev629

  ==> Input File <==

--------------------------------------------------------------------------
import os
memory 14 GB

molecule {
 C   -0.3233276111   -0.0000017026   -0.0010216077
 C    0.0619714621   -1.4023070538   -2.4270557383
 C    0.0612022811    2.8033978106    0.0018031999
 C    0.0606745552   -1.4010863416    2.4285477613
 H    2.0869182951   -1.6435888179   -2.8472577744
 H   -0.7656351716   -0.3878487630   -4.0251637696
 H   -0.7659457217   -3.2917111984   -2.3487274189
 H    2.0868476299    3.2876044040   -0.0006992137
 H   -0.7659121899    3.6798628202    1.6763228382
 H   -0.7656170248    3.6796770963   -1.6768859884
 H    2.0870581152   -1.6441097249    2.8467616314
 H   -0.7654289609   -3.2919821779    2.3483080511
 H   -0.7654135353   -0.3879306646    4.0250680291
units bohr
0 2
}

basis {

assign 6-31g_2dfp_

[ 6-31g_2dfp_ ]

spherical

!----------------------------------------------------------------------
! Basis Set Exchange
! Version v0.8.13
! https://www.basissetexchange.org
!----------------------------------------------------------------------
!   Basis set: 6-31G(2df,p)
! Description: 6-31G(2df,p)
!        Role: orbital
!     Version: 0  (Data from the original Basis Set Exchange)
!----------------------------------------------------------------------

****
H     0
S    3   1.00
     18.7311370              0.03349460
      2.8253937              0.23472695
      0.6401217              0.81375733
S    1   1.00
      0.1612778              1.00000000
P    1   1.00
      1.5000000              1.0000000
P    1   1.00
      0.3750000              1.0000000
****
B     0
S    6   1.00
   2068.8823000              0.0018663
    310.6495700              0.0142515
     70.6830330              0.0695516
     19.8610800              0.2325729
      6.2993048              0.4670787
      2.1270270              0.3634314
SP   3   1.00
      4.7279710             -0.1303938              0.0745976
      1.1903377             -0.1307889              0.3078467
      0.3594117              1.1309444              0.7434568
SP   1   1.00
      0.1267512              1.0000000              1.0000000
D    1   1.00
      0.8020000              1.0000000
D    1   1.00
      0.2005000              1.0000000
F    1   1.00
      0.5000000              1.0000000
****
C     0
S    6   1.00
   3047.5249000              0.0018347
    457.3695100              0.0140373
    103.9486900              0.0688426
     29.2101550              0.2321844
      9.2866630              0.4679413
      3.1639270              0.3623120
SP   3   1.00
      7.8682724             -0.1193324              0.0689991
      1.8812885             -0.1608542              0.3164240
      0.5442493              1.1434564              0.7443083
SP   1   1.00
      0.1687144              1.0000000              1.0000000
D    1   1.00
      1.2520000              1.0000000
D    1   1.00
      0.3130000              1.0000000
F    1   1.00
      0.8000000              1.0000000
****
N     0
S    6   1.00
   4173.5110000              0.0018348
    627.4579000              0.0139950
    142.9021000              0.0685870
     40.2343300              0.2322410
     12.8202100              0.4690700
      4.3904370              0.3604550
SP   3   1.00
     11.6263580             -0.1149610              0.0675800
      2.7162800             -0.1691180              0.3239070
      0.7722180              1.1458520              0.7408950
SP   1   1.00
      0.2120313              1.0000000              1.0000000
D    1   1.00
      1.8260000              1.0000000
D    1   1.00
      0.4565000              1.0000000
F    1   1.00
      1.0000000              1.0000000
****
O     0
S    6   1.00
   5484.6717000              0.0018311
    825.2349500              0.0139501
    188.0469600              0.0684451
     52.9645000              0.2327143
     16.8975700              0.4701930
      5.7996353              0.3585209
SP   3   1.00
     15.5396160             -0.1107775              0.0708743
      3.5999336             -0.1480263              0.3397528
      1.0137618              1.1307670              0.7271586
SP   1   1.00
      0.2700058              1.0000000              1.0000000
D    1   1.00
      2.5840000              1.0000000
D    1   1.00
      0.6460000              1.0000000
F    1   1.00
      1.4000000              1.0000000
****
F     0
S    6   1.00
   7001.7130900              0.0018196169
   1051.3660900              0.0139160796
    239.2856900              0.0684053245
     67.3974453              0.233185760
     21.5199573              0.471267439
      7.40310130             0.356618546
SP   3   1.00
     20.8479528             -0.108506975            0.0716287243
      4.80830834            -0.146451658            0.3459121030
      1.34406986             1.128688580            0.7224699570
SP   1   1.00
      0.358151393            1.0000000              1.0000000
D    1   1.00
      3.5000000              1.0000000
D    1   1.00
      0.8750000              1.0000000
F    1   1.00
      1.8500000              1.0000000
****
Al     0
S    6   1.00
  13983.1000000              0.00194267
   2098.7500000              0.0148599
    477.7050000              0.0728494
    134.3600000              0.2468300
     42.8709000              0.4872580
     14.5189000              0.3234960
SP   6   1.00
    239.6680000             -0.00292619             0.00460285
     57.4419000             -0.0374080              0.0331990
     18.2859000             -0.1144870              0.1362820
      6.5991400              0.1156350              0.3304760
      2.4904900              0.6125950              0.4491460
      0.9445400              0.3937990              0.2657040
SP   3   1.00
      1.2779000             -0.2276060             -0.0175130
      0.3975900              0.00144583             0.2445330
      0.1600950              1.0927900              0.8049340
SP   1   1.00
      0.0556577              1.0000000              1.0000000
D    1   1.00
      0.6500000              1.0000000
D    1   1.00
      0.1625000              1.0000000
F    1   1.00
      0.2500000              1.0000000
****
Si     0
S    6   1.00
  16115.9000000              0.00195948
   2425.5800000              0.01492880
    553.8670000              0.07284780
    156.3400000              0.24613000
     50.0683000              0.48591400
     17.0178000              0.32500200
SP   6   1.00
    292.7180000             -0.00278094             0.00443826
     69.8731000             -0.03571460             0.03266790
     22.3363000             -0.11498500             0.13472100
      8.1503900              0.09356340             0.32867800
      3.1345800              0.60301700             0.44964000
      1.2254300              0.41895900             0.26137200
SP   3   1.00
      1.7273800             -0.24463000            -0.01779510
      0.5729220              0.00431572             0.25353900
      0.2221920              1.09818000             0.80066900
SP   1   1.00
      0.0778369              1.00000000             1.00000000
D    1   1.00
      0.9000000              1.0000000
D    1   1.00
      0.2250000              1.0000000
F    1   1.00
      0.3200000              1.0000000
****
P     0
S    6   1.00
  19413.3000000              0.0018516
   2909.4200000              0.0142062
    661.3640000              0.0699995
    185.7590000              0.2400790
     59.1943000              0.4847620
     20.0310000              0.3352000
SP   6   1.00
    339.4780000             -0.00278217             0.00456462
     81.0101000             -0.0360499              0.03369360
     25.8780000             -0.1166310              0.13975500
      9.4522100              0.0968328              0.33936200
      3.6656600              0.6144180              0.45092100
      1.4674600              0.4037980              0.23858600
SP   3   1.00
      2.1562300             -0.2529230             -0.01776530
      0.7489970              0.0328517              0.27405800
      0.2831450              1.0812500              0.78542100
SP   1   1.00
      0.0998317              1.0000000              1.00000000
D    1   1.00
      1.1000000              1.0000000
D    1   1.00
      0.2750000              1.0000000
F    1   1.00
      0.4500000              1.0000000
****
S     0
S    6   1.00
  21917.1000000              0.0018690
   3301.4900000              0.0142300
    754.1460000              0.0696960
    212.7110000              0.2384870
     67.9896000              0.4833070
     23.0515000              0.3380740
SP   6   1.00
    423.7350000             -0.0023767              0.0040610
    100.7100000             -0.0316930              0.0306810
     32.1599000             -0.1133170              0.1304520
     11.8079000              0.0560900              0.3272050
      4.6311000              0.5922550              0.4528510
      1.8702500              0.4550060              0.2560420
SP   3   1.00
      2.6158400             -0.2503740             -0.0145110
      0.9221670              0.0669570              0.3102630
      0.3412870              1.0545100              0.7544830
SP   1   1.00
      0.1171670              1.0000000              1.0000000
D    1   1.00
      1.3000000              1.0000000
D    1   1.00
      0.3250000              1.0000000
F    1   1.00
      0.5500000              1.0000000
****
Cl     0
S    6   1.00
  25180.1000000              0.0018330
   3780.3500000              0.0140340
    860.4740000              0.0690970
    242.1450000              0.2374520
     77.3349000              0.4830340
     26.2470000              0.3398560
SP   6   1.00
    491.7650000             -0.0022974              0.0039894
    116.9840000             -0.0307140              0.0303180
     37.4153000             -0.1125280              0.1298800
     13.7834000              0.0450160              0.3279510
      5.4521500              0.5893530              0.4535270
      2.2258800              0.4652060              0.2521540
SP   3   1.00
      3.1864900             -0.2518300             -0.0142990
      1.1442700              0.0615890              0.3235720
      0.4203770              1.0601800              0.7435070
SP   1   1.00
      0.1426570              1.0000000              1.0000000
D    1   1.00
      1.5000000              1.0000000
D    1   1.00
      0.3750000              1.0000000
F    1   1.00
      0.7000000              1.0000000
****
}

set {
reference uhf
freeze_core true
e_convergence 10
d_convergence 10
dft_spherical_points 1202
dft_radial_points 99
}

e = energy('b3lyp')

print_out('Grab this energy {0}'.format(e))
--------------------------------------------------------------------------

    Molecular point group: c1

    Geometry (in Bohr), charge = 0, multiplicity = 2:

       Center              X                  Y                   Z               Mass
    ------------   -----------------  -----------------  -----------------  -----------------
         C           -0.323435600593    -0.000001795705    -0.001459522364    12.000000000000
         C            0.061863472607    -1.402307146905    -2.427493652964    12.000000000000
         C            0.061094291607     2.803397717495     0.001365285236    12.000000000000
         C            0.060566565707    -1.401086434705     2.428109846636    12.000000000000
         H            2.086810305607    -1.643588911005    -2.847695689064     1.007825032230
         H           -0.765743161093    -0.387848856105    -4.025601684264     1.007825032230
         H           -0.766053711193    -3.291711291505    -2.349165333564     1.007825032230
         H            2.086739640407     3.287604310895    -0.001137128364     1.007825032230
         H           -0.766020179393     3.679862727095     1.675884923536     1.007825032230
         H           -0.765725014293     3.679677003195    -1.677323903064     1.007825032230
         H            2.086950125707    -1.644109818005     2.846323716736     1.007825032230
         H           -0.765536950393    -3.291982271005     2.347870136436     1.007825032230
         H           -0.765521524793    -0.387930757705     4.024630114436     1.007825032230

  Charge       = 0
  Multiplicity = 2
  Basis Set: ANONYMOUS27F397F3
    Blend: 6-31G_2DFP_
  Basis Set: (ANONYMOUS27F397F3 AUX)
    Blend: DEF2-UNIVERSAL-JKFIT

    Orbital Energies [Eh]
    ---------------------

    Alpha Occupied:

       1A    -10.180393     2A    -10.166997     3A    -10.166968
       4A    -10.166923     5A     -0.797509     6A     -0.686257
       7A     -0.686098     8A     -0.530610     9A     -0.441115
      10A     -0.434612    11A     -0.434595    12A     -0.382775
      13A     -0.382699    14A     -0.363810    15A     -0.338133
      16A     -0.337545    17A     -0.168940

    Alpha Virtual:

      18A      0.076080    19A      0.134176    20A      0.134252
      21A      0.142697    22A      0.142825    23A      0.154774
      24A      0.178893    25A      0.178994    26A      0.203255
      27A      0.214927    28A      0.275618    29A      0.275869
      30A      0.399126    31A      0.399344    32A      0.403434
      33A      0.424147    34A      0.424156    35A      0.456412
      36A      0.495364    37A      0.495434    38A      0.512215
      39A      0.514037    40A      0.578816    41A      0.578900
      42A      0.591715    43A      0.591753    44A      0.602614
      45A      0.624880    46A      0.632000    47A      0.636192
      48A      0.636200    49A      0.663208    50A      0.663386
      51A      0.683857    52A      0.683878    53A      0.735125
      54A      0.825384    55A      0.825390    56A      0.853780
      57A      0.914963    58A      0.915174    59A      0.944080
      60A      0.944300    61A      0.961294    62A      0.961421
      63A      1.003622    64A      1.128017    65A      1.128054
      66A      1.141795    67A      1.163858    68A      1.163901
      69A      1.222904    70A      1.274179    71A      1.274543
      72A      1.279192    73A      1.324102    74A      1.324213
      75A      1.355657    76A      1.365679    77A      1.366150
      78A      1.392925    79A      1.404545    80A      1.405020
      81A      1.416854    82A      1.417386    83A      1.428173
      84A      1.490971    85A      1.499661    86A      1.542496
      87A      1.542837    88A      1.574030    89A      1.574665
      90A      1.670603    91A      1.738796    92A      1.739012
      93A      1.768360    94A      1.831765    95A      1.831914
      96A      1.971130    97A      2.017797    98A      2.018437
      99A      2.018874   100A      2.051612   101A      2.052824
     102A      2.738264   103A      2.738360   104A      2.790697
     105A      2.811341   106A      2.889180   107A      2.890518
     108A      2.894531   109A      2.929485   110A      2.929817
     111A      2.959043   112A      2.964116   113A      2.964698
     114A      3.033837   115A      3.071200   116A      3.071471
     117A      3.083948   118A      3.168550   119A      3.168787
     120A      3.180011   121A      3.285426   122A      3.285863
     123A      3.326868   124A      3.326957   125A      3.375708
     126A      3.490032   127A      3.490105   128A      3.513863
     129A      3.524977   130A      3.568044   131A      3.568249
     132A      3.575284   133A      3.666949   134A      3.667337
     135A      3.680261   136A      3.694214   137A      3.694282
     138A      3.776735   139A      3.776764   140A      3.789407
     141A      3.910766   142A      3.911474   143A      4.033908
     144A      4.111425   145A      4.111870   146A      4.147948
     147A      4.148322   148A      4.172572   149A      4.201730
     150A      4.202398   151A      4.202456   152A      4.210491
     153A      4.315281   154A      4.316848   155A      4.359604
     156A      4.425062   157A      4.426186   158A      4.445423
     159A      4.516316   160A      4.516700   161A      4.577260
     162A      4.577844   163A      4.617139   164A      4.708175
     165A      4.773628   166A      4.773942   167A      4.835575
     168A      4.964178   169A      5.003555   170A      5.004114
     171A      5.228559   172A      5.246860   173A      5.247339
     174A      5.355322   175A      5.355365   176A      5.478137

    Beta Occupied:

       1A    -10.167750     2A    -10.167722     3A    -10.167689
       4A    -10.166560     5A     -0.780849     6A     -0.684063
       7A     -0.683909     8A     -0.511535     9A     -0.431010
      10A     -0.430979    11A     -0.421853    12A     -0.376884
      13A     -0.376793    14A     -0.362798    15A     -0.333240
      16A     -0.332654

    Beta Virtual:

      17A     -0.025573    18A      0.077085    19A      0.135046
      20A      0.135146    21A      0.144584    22A      0.144676
      23A      0.163191    24A      0.182562    25A      0.182638
      26A      0.215154    27A      0.218687    28A      0.281999
      29A      0.282223    30A      0.400288    31A      0.400507
      32A      0.419872    33A      0.426956    34A      0.426967
      35A      0.468244    36A      0.497620    37A      0.497685
      38A      0.513941    39A      0.556414    40A      0.584368
      41A      0.584451    42A      0.597894    43A      0.597952
      44A      0.610043    45A      0.628219    46A      0.632154
      47A      0.639459    48A      0.639467    49A      0.666766
      50A      0.666952    51A      0.686479    52A      0.686504
      53A      0.757726    54A      0.830539    55A      0.830541
      56A      0.855121    57A      0.922937    58A      0.923148
      59A      0.945909    60A      0.953216    61A      0.966600
      62A      0.966708    63A      1.008872    64A      1.132061
      65A      1.132079    66A      1.155130    67A      1.168933
      68A      1.168999    69A      1.231935    70A      1.279717
      71A      1.280132    72A      1.284972    73A      1.329058
      74A      1.329191    75A      1.365063    76A      1.370957
      77A      1.371479    78A      1.393973    79A      1.407967
      80A      1.408465    81A      1.421924    82A      1.422411
      83A      1.428457    84A      1.492007    85A      1.510084
      86A      1.546870    87A      1.547234    88A      1.581929
      89A      1.582547    90A      1.675457    91A      1.744561
      92A      1.744774    93A      1.779097    94A      1.835597
      95A      1.835743    96A      1.971983    97A      2.024234
      98A      2.025039    99A      2.039888   100A      2.058344
     101A      2.059599   102A      2.746637   103A      2.746721
     104A      2.811754   105A      2.815867   106A      2.901919
     107A      2.903232   108A      2.924202   109A      2.931905
     110A      2.932302   111A      2.960109   112A      2.968641
     113A      2.969199   114A      3.041729   115A      3.081059
     116A      3.081346   117A      3.085755   118A      3.184353
     119A      3.184636   120A      3.187754   121A      3.290206
     122A      3.290582   123A      3.330666   124A      3.330780
     125A      3.383494   126A      3.492739   127A      3.492842
     128A      3.512229   129A      3.528059   130A      3.575128
     131A      3.581501   132A      3.581621   133A      3.671788
     134A      3.672393   135A      3.693550   136A      3.725586
     137A      3.725922   138A      3.781160   139A      3.781267
     140A      3.818006   141A      3.920599   142A      3.921350
     143A      4.044874   144A      4.118145   145A      4.118589
     146A      4.155245   147A      4.155544   148A      4.186580
     149A      4.208295   150A      4.208371   151A      4.209727
     152A      4.214944   153A      4.322780   154A      4.324413
     155A      4.362944   156A      4.433211   157A      4.434330
     158A      4.448312   159A      4.524057   160A      4.524412
     161A      4.587865   162A      4.588405   163A      4.624311
     164A      4.718519   165A      4.780602   166A      4.780877
     167A      4.838494   168A      4.968951   169A      5.007570
     170A      5.008131   171A      5.234256   172A      5.248643
     173A      5.249106   174A      5.361755   175A      5.361836
     176A      5.480450

    Final Occupation by Irrep:
              A
    DOCC [    16 ]
    SOCC [     1 ]

  @DF-UKS Final Energy:  -157.81304682879141

   => Energetics <=

    Nuclear Repulsion Energy =            125.3666577922957401
    One-Electron Energy =                -458.6938808919856001
    Two-Electron Energy =                 195.8214349087187713
    DFT Exchange-Correlation Energy =     -20.3072586378203610
    Empirical Dispersion Energy =           0.0000000000000000
    VV10 Nonlocal Energy =                  0.0000000000000000
    Total Energy =                       -157.8130468287914141

  UHF NO Occupations:
  HONO-2 :   15  A 1.9996025
  HONO-1 :   16  A 1.9989782
  HONO-0 :   17  A 1.0000000
  LUNO+0 :   18  A 0.0010218
  LUNO+1 :   19  A 0.0003975
  LUNO+2 :   20  A 0.0001987
  LUNO+3 :   21  A 0.0001979

Computation Completed

Properties will be evaluated at   0.000000,   0.000000,   0.000000 [a0]

Properties computed using the SCF density matrix

  Nuclear Dipole Moment: [e a0]
     X:     0.8264      Y:    -0.0000      Z:    -0.0031

  Electronic Dipole Moment: [e a0]
     X:    -0.7484      Y:     0.0000      Z:     0.0030

  Dipole Moment: [e a0]
     X:     0.0780      Y:     0.0000      Z:    -0.0001     Total:     0.0780

  Dipole Moment: [D]
     X:     0.1984      Y:     0.0000      Z:    -0.0001     Total:     0.1984

*** tstop() called on n091 at Fri Nov  5 12:01:38 2021
Module time:
	user time   =     498.02 seconds =       8.30 minutes
	system time =       4.53 seconds =       0.08 minutes
	total time  =        126 seconds =       2.10 minutes
Total time:
	user time   =     498.02 seconds =       8.30 minutes
	system time =       4.53 seconds =       0.08 minutes
	total time  =        126 seconds =       2.10 minutes
Grab this energy -157.8130468287914
    Psi4 stopped on: Friday, 05 November 2021 12:01PM
    Psi4 wall time for execution: 0:02:06.37

*** Psi4 exiting successfully. Buy a developer a beer!
