                               Psi4 1.4a2.dev629

  ==> Input File <==

--------------------------------------------------------------------------
import os
memory 14 GB

molecule {
 C   -0.3233367910    0.0000045083    0.0003450562
 C    0.0607454199   -1.4074548762   -2.4304346049
 C    0.0610203716    2.8017579681    0.0073355446
 C    0.0615339931   -1.3942975669    2.4223167488
 H    2.0860568377   -1.6527146401   -2.8522199615
 H   -0.7645735187   -0.3980466714   -4.0334342174
 H   -0.7683272004   -3.2972990463   -2.3497993633
 H    2.0867972093    3.2881012223    0.0101405748
 H   -0.7692384879    3.6718030045    1.6851863701
 H   -0.7620525372    3.6886987126   -1.6677668887
 H    2.0878160315   -1.6354798638    2.8426498329
 H   -0.7628081109   -3.2866906165    2.3481704686
 H   -0.7662410936   -0.3784064481    4.0175104400
units bohr
0 2
}

basis {

assign 6-31g_2dfp_

[ 6-31g_2dfp_ ]

spherical

!----------------------------------------------------------------------
! Basis Set Exchange
! Version v0.8.13
! https://www.basissetexchange.org
!----------------------------------------------------------------------
!   Basis set: 6-31G(2df,p)
! Description: 6-31G(2df,p)
!        Role: orbital
!     Version: 0  (Data from the original Basis Set Exchange)
!----------------------------------------------------------------------

****
H     0
S    3   1.00
     18.7311370              0.03349460
      2.8253937              0.23472695
      0.6401217              0.81375733
S    1   1.00
      0.1612778              1.00000000
P    1   1.00
      1.5000000              1.0000000
P    1   1.00
      0.3750000              1.0000000
****
B     0
S    6   1.00
   2068.8823000              0.0018663
    310.6495700              0.0142515
     70.6830330              0.0695516
     19.8610800              0.2325729
      6.2993048              0.4670787
      2.1270270              0.3634314
SP   3   1.00
      4.7279710             -0.1303938              0.0745976
      1.1903377             -0.1307889              0.3078467
      0.3594117              1.1309444              0.7434568
SP   1   1.00
      0.1267512              1.0000000              1.0000000
D    1   1.00
      0.8020000              1.0000000
D    1   1.00
      0.2005000              1.0000000
F    1   1.00
      0.5000000              1.0000000
****
C     0
S    6   1.00
   3047.5249000              0.0018347
    457.3695100              0.0140373
    103.9486900              0.0688426
     29.2101550              0.2321844
      9.2866630              0.4679413
      3.1639270              0.3623120
SP   3   1.00
      7.8682724             -0.1193324              0.0689991
      1.8812885             -0.1608542              0.3164240
      0.5442493              1.1434564              0.7443083
SP   1   1.00
      0.1687144              1.0000000              1.0000000
D    1   1.00
      1.2520000              1.0000000
D    1   1.00
      0.3130000              1.0000000
F    1   1.00
      0.8000000              1.0000000
****
N     0
S    6   1.00
   4173.5110000              0.0018348
    627.4579000              0.0139950
    142.9021000              0.0685870
     40.2343300              0.2322410
     12.8202100              0.4690700
      4.3904370              0.3604550
SP   3   1.00
     11.6263580             -0.1149610              0.0675800
      2.7162800             -0.1691180              0.3239070
      0.7722180              1.1458520              0.7408950
SP   1   1.00
      0.2120313              1.0000000              1.0000000
D    1   1.00
      1.8260000              1.0000000
D    1   1.00
      0.4565000              1.0000000
F    1   1.00
      1.0000000              1.0000000
****
O     0
S    6   1.00
   5484.6717000              0.0018311
    825.2349500              0.0139501
    188.0469600              0.0684451
     52.9645000              0.2327143
     16.8975700              0.4701930
      5.7996353              0.3585209
SP   3   1.00
     15.5396160             -0.1107775              0.0708743
      3.5999336             -0.1480263              0.3397528
      1.0137618              1.1307670              0.7271586
SP   1   1.00
      0.2700058              1.0000000              1.0000000
D    1   1.00
      2.5840000              1.0000000
D    1   1.00
      0.6460000              1.0000000
F    1   1.00
      1.4000000              1.0000000
****
F     0
S    6   1.00
   7001.7130900              0.0018196169
   1051.3660900              0.0139160796
    239.2856900              0.0684053245
     67.3974453              0.233185760
     21.5199573              0.471267439
      7.40310130             0.356618546
SP   3   1.00
     20.8479528             -0.108506975            0.0716287243
      4.80830834            -0.146451658            0.3459121030
      1.34406986             1.128688580            0.7224699570
SP   1   1.00
      0.358151393            1.0000000              1.0000000
D    1   1.00
      3.5000000              1.0000000
D    1   1.00
      0.8750000              1.0000000
F    1   1.00
      1.8500000              1.0000000
****
Al     0
S    6   1.00
  13983.1000000              0.00194267
   2098.7500000              0.0148599
    477.7050000              0.0728494
    134.3600000              0.2468300
     42.8709000              0.4872580
     14.5189000              0.3234960
SP   6   1.00
    239.6680000             -0.00292619             0.00460285
     57.4419000             -0.0374080              0.0331990
     18.2859000             -0.1144870              0.1362820
      6.5991400              0.1156350              0.3304760
      2.4904900              0.6125950              0.4491460
      0.9445400              0.3937990              0.2657040
SP   3   1.00
      1.2779000             -0.2276060             -0.0175130
      0.3975900              0.00144583             0.2445330
      0.1600950              1.0927900              0.8049340
SP   1   1.00
      0.0556577              1.0000000              1.0000000
D    1   1.00
      0.6500000              1.0000000
D    1   1.00
      0.1625000              1.0000000
F    1   1.00
      0.2500000              1.0000000
****
Si     0
S    6   1.00
  16115.9000000              0.00195948
   2425.5800000              0.01492880
    553.8670000              0.07284780
    156.3400000              0.24613000
     50.0683000              0.48591400
     17.0178000              0.32500200
SP   6   1.00
    292.7180000             -0.00278094             0.00443826
     69.8731000             -0.03571460             0.03266790
     22.3363000             -0.11498500             0.13472100
      8.1503900              0.09356340             0.32867800
      3.1345800              0.60301700             0.44964000
      1.2254300              0.41895900             0.26137200
SP   3   1.00
      1.7273800             -0.24463000            -0.01779510
      0.5729220              0.00431572             0.25353900
      0.2221920              1.09818000             0.80066900
SP   1   1.00
      0.0778369              1.00000000             1.00000000
D    1   1.00
      0.9000000              1.0000000
D    1   1.00
      0.2250000              1.0000000
F    1   1.00
      0.3200000              1.0000000
****
P     0
S    6   1.00
  19413.3000000              0.0018516
   2909.4200000              0.0142062
    661.3640000              0.0699995
    185.7590000              0.2400790
     59.1943000              0.4847620
     20.0310000              0.3352000
SP   6   1.00
    339.4780000             -0.00278217             0.00456462
     81.0101000             -0.0360499              0.03369360
     25.8780000             -0.1166310              0.13975500
      9.4522100              0.0968328              0.33936200
      3.6656600              0.6144180              0.45092100
      1.4674600              0.4037980              0.23858600
SP   3   1.00
      2.1562300             -0.2529230             -0.01776530
      0.7489970              0.0328517              0.27405800
      0.2831450              1.0812500              0.78542100
SP   1   1.00
      0.0998317              1.0000000              1.00000000
D    1   1.00
      1.1000000              1.0000000
D    1   1.00
      0.2750000              1.0000000
F    1   1.00
      0.4500000              1.0000000
****
S     0
S    6   1.00
  21917.1000000              0.0018690
   3301.4900000              0.0142300
    754.1460000              0.0696960
    212.7110000              0.2384870
     67.9896000              0.4833070
     23.0515000              0.3380740
SP   6   1.00
    423.7350000             -0.0023767              0.0040610
    100.7100000             -0.0316930              0.0306810
     32.1599000             -0.1133170              0.1304520
     11.8079000              0.0560900              0.3272050
      4.6311000              0.5922550              0.4528510
      1.8702500              0.4550060              0.2560420
SP   3   1.00
      2.6158400             -0.2503740             -0.0145110
      0.9221670              0.0669570              0.3102630
      0.3412870              1.0545100              0.7544830
SP   1   1.00
      0.1171670              1.0000000              1.0000000
D    1   1.00
      1.3000000              1.0000000
D    1   1.00
      0.3250000              1.0000000
F    1   1.00
      0.5500000              1.0000000
****
Cl     0
S    6   1.00
  25180.1000000              0.0018330
   3780.3500000              0.0140340
    860.4740000              0.0690970
    242.1450000              0.2374520
     77.3349000              0.4830340
     26.2470000              0.3398560
SP   6   1.00
    491.7650000             -0.0022974              0.0039894
    116.9840000             -0.0307140              0.0303180
     37.4153000             -0.1125280              0.1298800
     13.7834000              0.0450160              0.3279510
      5.4521500              0.5893530              0.4535270
      2.2258800              0.4652060              0.2521540
SP   3   1.00
      3.1864900             -0.2518300             -0.0142990
      1.1442700              0.0615890              0.3235720
      0.4203770              1.0601800              0.7435070
SP   1   1.00
      0.1426570              1.0000000              1.0000000
D    1   1.00
      1.5000000              1.0000000
D    1   1.00
      0.3750000              1.0000000
F    1   1.00
      0.7000000              1.0000000
****
}

set {
reference uhf
freeze_core true
e_convergence 10
d_convergence 10
dft_spherical_points 1202
dft_radial_points 99
}

e = energy('b3lyp')

print_out('Grab this energy {0}'.format(e))
--------------------------------------------------------------------------

    Molecular point group: c1

    Geometry (in Bohr), charge = 0, multiplicity = 2:

       Center              X                  Y                   Z               Mass
    ------------   -----------------  -----------------  -----------------  -----------------
         C           -0.323337364672     0.000003005174     0.000429274717    12.000000000000
         C            0.060744846228    -1.407456379326    -2.430350386383    12.000000000000
         C            0.061019797928     2.801756464974     0.007419763117    12.000000000000
         C            0.061533419428    -1.394299070026     2.422400967317    12.000000000000
         H            2.086056264028    -1.652716143226    -2.852135742983     1.007825032230
         H           -0.764574092372    -0.398048174526    -4.033349998883     1.007825032230
         H           -0.768327774072    -3.297300549426    -2.349715144783     1.007825032230
         H            2.086796635628     3.288099719174     0.010224793317     1.007825032230
         H           -0.769239061572     3.671801501374     1.685270588617     1.007825032230
         H           -0.762053110872     3.688697209474    -1.667682670183     1.007825032230
         H            2.087815457828    -1.635481366926     2.842734051417     1.007825032230
         H           -0.762808684572    -3.286692119626     2.348254687117     1.007825032230
         H           -0.766241667272    -0.378407951226     4.017594658517     1.007825032230

  Charge       = 0
  Multiplicity = 2
  Basis Set: ANONYMOUSD406EA6C
    Blend: 6-31G_2DFP_
  Basis Set: (ANONYMOUSD406EA6C AUX)
    Blend: DEF2-UNIVERSAL-JKFIT

    Orbital Energies [Eh]
    ---------------------

    Alpha Occupied:

       1A    -10.180341     2A    -10.167315     3A    -10.167016
       4A    -10.166714     5A     -0.797777     6A     -0.686216
       7A     -0.686153     8A     -0.530776     9A     -0.441139
      10A     -0.435145    11A     -0.434188    12A     -0.382628
      13A     -0.382571    14A     -0.363609    15A     -0.338244
      16A     -0.337752    17A     -0.168960

    Alpha Virtual:

      18A      0.076073    19A      0.133929    20A      0.134380
      21A      0.142314    22A      0.142940    23A      0.154880
      24A      0.178548    25A      0.179009    26A      0.203535
      27A      0.214808    28A      0.275529    29A      0.276445
      30A      0.398921    31A      0.399448    32A      0.403426
      33A      0.423968    34A      0.424237    35A      0.456592
      36A      0.494934    37A      0.495831    38A      0.512175
      39A      0.513988    40A      0.578370    41A      0.579259
      42A      0.591611    43A      0.591650    44A      0.602586
      45A      0.624774    46A      0.631762    47A      0.636187
      48A      0.636324    49A      0.663263    50A      0.663565
      51A      0.683661    52A      0.684046    53A      0.734992
      54A      0.824471    55A      0.826329    56A      0.853913
      57A      0.914900    58A      0.915160    59A      0.944040
      60A      0.944506    61A      0.961318    62A      0.961491
      63A      1.003466    64A      1.126703    65A      1.129520
      66A      1.142237    67A      1.162391    68A      1.164140
      69A      1.223332    70A      1.274442    71A      1.274550
      72A      1.279330    73A      1.324332    74A      1.324357
      75A      1.356007    76A      1.365051    77A      1.367041
      78A      1.392464    79A      1.403194    80A      1.404911
      81A      1.416938    82A      1.417292    83A      1.427932
      84A      1.491453    85A      1.499062    86A      1.542464
      87A      1.543188    88A      1.572643    89A      1.576337
      90A      1.669818    91A      1.738144    92A      1.740661
      93A      1.768341    94A      1.830631    95A      1.832172
      96A      1.971716    97A      2.018163    98A      2.018271
      99A      2.019891   100A      2.049640   101A      2.055800
     102A      2.737980   103A      2.738987   104A      2.790925
     105A      2.811434   106A      2.889488   107A      2.890410
     108A      2.894945   109A      2.928927   110A      2.930058
     111A      2.958960   112A      2.963655   113A      2.965142
     114A      3.034004   115A      3.069784   116A      3.072780
     117A      3.084369   118A      3.168053   119A      3.169468
     120A      3.180670   121A      3.284893   122A      3.285712
     123A      3.326592   124A      3.327726   125A      3.375633
     126A      3.489083   127A      3.491103   128A      3.514134
     129A      3.525334   130A      3.567422   131A      3.569219
     132A      3.575262   133A      3.666198   134A      3.666580
     135A      3.679664   136A      3.693602   137A      3.694550
     138A      3.776715   139A      3.776882   140A      3.789250
     141A      3.910352   142A      3.914120   143A      4.034467
     144A      4.109692   145A      4.113065   146A      4.145475
     147A      4.150734   148A      4.173254   149A      4.200805
     150A      4.202750   151A      4.205288   152A      4.210867
     153A      4.315411   154A      4.316500   155A      4.358977
     156A      4.424134   157A      4.424563   158A      4.443647
     159A      4.515878   160A      4.517807   161A      4.577179
     162A      4.579067   163A      4.617875   164A      4.709470
     165A      4.772754   166A      4.776488   167A      4.836957
     168A      4.962803   169A      5.002270   170A      5.003726
     171A      5.228021   172A      5.246690   173A      5.246950
     174A      5.354244   175A      5.356769   176A      5.479360

    Beta Occupied:

       1A    -10.168068     2A    -10.167775     3A    -10.167481
       4A    -10.166517     5A     -0.781103     6A     -0.684035
       7A     -0.683940     8A     -0.511747     9A     -0.431530
      10A     -0.430563    11A     -0.421818    12A     -0.376765
      13A     -0.376605    14A     -0.362592    15A     -0.333373
      16A     -0.332869

    Beta Virtual:

      17A     -0.025743    18A      0.077082    19A      0.134791
      20A      0.135297    21A      0.144201    22A      0.144795
      23A      0.163340    24A      0.182198    25A      0.182701
      26A      0.215038    27A      0.218918    28A      0.281900
      29A      0.282770    30A      0.400148    31A      0.400623
      32A      0.419804    33A      0.426753    34A      0.427075
      35A      0.468502    36A      0.497190    37A      0.498101
      38A      0.513911    39A      0.556324    40A      0.583928
      41A      0.584806    42A      0.597769    43A      0.597851
      44A      0.610001    45A      0.628150    46A      0.631922
      47A      0.639472    48A      0.639615    49A      0.666795
      50A      0.667160    51A      0.686246    52A      0.686733
      53A      0.757514    54A      0.829632    55A      0.831503
      56A      0.855266    57A      0.922886    58A      0.923118
      59A      0.945903    60A      0.953402    61A      0.966584
      62A      0.966846    63A      1.008704    64A      1.130765
      65A      1.133519    66A      1.155610    67A      1.167438
      68A      1.169242    69A      1.232302    70A      1.279981
      71A      1.280202    72A      1.285089    73A      1.329314
      74A      1.329353    75A      1.365426    76A      1.370236
      77A      1.372333    78A      1.393525    79A      1.406643
      80A      1.408404    81A      1.421971    82A      1.422342
      83A      1.428213    84A      1.492504    85A      1.509504
      86A      1.546758    87A      1.547697    88A      1.580640
      89A      1.584096    90A      1.674665    91A      1.743905
      92A      1.746422    93A      1.779121    94A      1.834455
      95A      1.836060    96A      1.972579    97A      2.024497
      98A      2.026363    99A      2.039605   100A      2.056478
     101A      2.062427   102A      2.746239   103A      2.747399
     104A      2.811847   105A      2.816059   106A      2.902232
     107A      2.903049   108A      2.924641   109A      2.931449
     110A      2.932506   111A      2.960037   112A      2.968221
     113A      2.969652   114A      3.041938   115A      3.079614
     116A      3.082626   117A      3.086339   118A      3.183729
     119A      3.185083   120A      3.188545   121A      3.289720
     122A      3.290487   123A      3.330390   124A      3.331537
     125A      3.383456   126A      3.491800   127A      3.493822
     128A      3.512523   129A      3.528386   130A      3.574782
     131A      3.580887   132A      3.582772   133A      3.671041
     134A      3.671223   135A      3.692963   136A      3.725147
     137A      3.726254   138A      3.781220   139A      3.781442
     140A      3.817788   141A      3.920173   142A      3.923937
     143A      4.045352   144A      4.116562   145A      4.119831
     146A      4.152763   147A      4.157862   148A      4.187316
     149A      4.206822   150A      4.210345   151A      4.211512
     152A      4.215347   153A      4.322808   154A      4.323986
     155A      4.362339   156A      4.432304   157A      4.432734
     158A      4.446625   159A      4.523715   160A      4.525539
     161A      4.587684   162A      4.589739   163A      4.625097
     164A      4.719815   165A      4.779633   166A      4.783513
     167A      4.839878   168A      4.967591   169A      5.006298
     170A      5.007782   171A      5.233732   172A      5.248466
     173A      5.248746   174A      5.360681   175A      5.363295
     176A      5.481682

    Final Occupation by Irrep:
              A
    DOCC [    16 ]
    SOCC [     1 ]

  @DF-UKS Final Energy:  -157.81305372728983

   => Energetics <=

    Nuclear Repulsion Energy =            125.3949036957651515
    One-Electron Energy =                -458.7494174790097645
    Two-Electron Energy =                 195.8486117462351501
    DFT Exchange-Correlation Energy =     -20.3071516902803673
    Empirical Dispersion Energy =           0.0000000000000000
    VV10 Nonlocal Energy =                  0.0000000000000000
    Total Energy =                       -157.8130537272898266

  UHF NO Occupations:
  HONO-2 :   15  A 1.9996008
  HONO-1 :   16  A 1.9989804
  HONO-0 :   17  A 1.0000000
  LUNO+0 :   18  A 0.0010196
  LUNO+1 :   19  A 0.0003992
  LUNO+2 :   20  A 0.0001983
  LUNO+3 :   21  A 0.0001968

Computation Completed

Properties will be evaluated at   0.000000,   0.000000,   0.000000 [a0]

Properties computed using the SCF density matrix

  Nuclear Dipole Moment: [e a0]
     X:     0.8272      Y:    -0.0000      Z:     0.0006

  Electronic Dipole Moment: [e a0]
     X:    -0.7493      Y:     0.0000      Z:    -0.0001

  Dipole Moment: [e a0]
     X:     0.0779      Y:    -0.0000      Z:     0.0005     Total:     0.0779

  Dipole Moment: [D]
     X:     0.1980      Y:    -0.0000      Z:     0.0012     Total:     0.1980

*** tstop() called on n023 at Fri Nov  5 14:02:55 2021
Module time:
	user time   =     672.55 seconds =      11.21 minutes
	system time =      12.71 seconds =       0.21 minutes
	total time  =        172 seconds =       2.87 minutes
Total time:
	user time   =     672.55 seconds =      11.21 minutes
	system time =      12.71 seconds =       0.21 minutes
	total time  =        172 seconds =       2.87 minutes
Grab this energy -157.81305372728983
    Psi4 stopped on: Friday, 05 November 2021 02:02PM
    Psi4 wall time for execution: 0:02:52.25

*** Psi4 exiting successfully. Buy a developer a beer!
