                               Psi4 1.4a2.dev629

  ==> Input File <==

--------------------------------------------------------------------------
import os
memory 14 GB

molecule {
 C   -0.3218901983    0.0019962407   -0.0000000000
 C    0.0603597611   -1.4002701443   -2.4273285253
 C    0.0600124716    2.8010076308   -0.0000000000
 C    0.0603597611   -1.4002701443    2.4273285253
 H    2.0868709114   -1.6421511409   -2.8511652215
 H   -0.7666895182   -0.3908233374   -4.0294769298
 H   -0.7644664279   -3.2904807013   -2.3441148175
 H    2.0870733526    3.2834699444   -0.0000000000
 H   -0.7649764776    3.6804762592    1.6757898251
 H   -0.7649764776    3.6804762592   -1.6757898251
 H    2.0868709114   -1.6421511409    2.8511652215
 H   -0.7644664279   -3.2904807013    2.3441148175
 H   -0.7666895182   -0.3908233374    4.0294769298
units bohr
0 2
}

basis {

assign 6-31g_2dfp_

[ 6-31g_2dfp_ ]

spherical

!----------------------------------------------------------------------
! Basis Set Exchange
! Version v0.8.13
! https://www.basissetexchange.org
!----------------------------------------------------------------------
!   Basis set: 6-31G(2df,p)
! Description: 6-31G(2df,p)
!        Role: orbital
!     Version: 0  (Data from the original Basis Set Exchange)
!----------------------------------------------------------------------

****
H     0
S    3   1.00
     18.7311370              0.03349460
      2.8253937              0.23472695
      0.6401217              0.81375733
S    1   1.00
      0.1612778              1.00000000
P    1   1.00
      1.5000000              1.0000000
P    1   1.00
      0.3750000              1.0000000
****
B     0
S    6   1.00
   2068.8823000              0.0018663
    310.6495700              0.0142515
     70.6830330              0.0695516
     19.8610800              0.2325729
      6.2993048              0.4670787
      2.1270270              0.3634314
SP   3   1.00
      4.7279710             -0.1303938              0.0745976
      1.1903377             -0.1307889              0.3078467
      0.3594117              1.1309444              0.7434568
SP   1   1.00
      0.1267512              1.0000000              1.0000000
D    1   1.00
      0.8020000              1.0000000
D    1   1.00
      0.2005000              1.0000000
F    1   1.00
      0.5000000              1.0000000
****
C     0
S    6   1.00
   3047.5249000              0.0018347
    457.3695100              0.0140373
    103.9486900              0.0688426
     29.2101550              0.2321844
      9.2866630              0.4679413
      3.1639270              0.3623120
SP   3   1.00
      7.8682724             -0.1193324              0.0689991
      1.8812885             -0.1608542              0.3164240
      0.5442493              1.1434564              0.7443083
SP   1   1.00
      0.1687144              1.0000000              1.0000000
D    1   1.00
      1.2520000              1.0000000
D    1   1.00
      0.3130000              1.0000000
F    1   1.00
      0.8000000              1.0000000
****
N     0
S    6   1.00
   4173.5110000              0.0018348
    627.4579000              0.0139950
    142.9021000              0.0685870
     40.2343300              0.2322410
     12.8202100              0.4690700
      4.3904370              0.3604550
SP   3   1.00
     11.6263580             -0.1149610              0.0675800
      2.7162800             -0.1691180              0.3239070
      0.7722180              1.1458520              0.7408950
SP   1   1.00
      0.2120313              1.0000000              1.0000000
D    1   1.00
      1.8260000              1.0000000
D    1   1.00
      0.4565000              1.0000000
F    1   1.00
      1.0000000              1.0000000
****
O     0
S    6   1.00
   5484.6717000              0.0018311
    825.2349500              0.0139501
    188.0469600              0.0684451
     52.9645000              0.2327143
     16.8975700              0.4701930
      5.7996353              0.3585209
SP   3   1.00
     15.5396160             -0.1107775              0.0708743
      3.5999336             -0.1480263              0.3397528
      1.0137618              1.1307670              0.7271586
SP   1   1.00
      0.2700058              1.0000000              1.0000000
D    1   1.00
      2.5840000              1.0000000
D    1   1.00
      0.6460000              1.0000000
F    1   1.00
      1.4000000              1.0000000
****
F     0
S    6   1.00
   7001.7130900              0.0018196169
   1051.3660900              0.0139160796
    239.2856900              0.0684053245
     67.3974453              0.233185760
     21.5199573              0.471267439
      7.40310130             0.356618546
SP   3   1.00
     20.8479528             -0.108506975            0.0716287243
      4.80830834            -0.146451658            0.3459121030
      1.34406986             1.128688580            0.7224699570
SP   1   1.00
      0.358151393            1.0000000              1.0000000
D    1   1.00
      3.5000000              1.0000000
D    1   1.00
      0.8750000              1.0000000
F    1   1.00
      1.8500000              1.0000000
****
Al     0
S    6   1.00
  13983.1000000              0.00194267
   2098.7500000              0.0148599
    477.7050000              0.0728494
    134.3600000              0.2468300
     42.8709000              0.4872580
     14.5189000              0.3234960
SP   6   1.00
    239.6680000             -0.00292619             0.00460285
     57.4419000             -0.0374080              0.0331990
     18.2859000             -0.1144870              0.1362820
      6.5991400              0.1156350              0.3304760
      2.4904900              0.6125950              0.4491460
      0.9445400              0.3937990              0.2657040
SP   3   1.00
      1.2779000             -0.2276060             -0.0175130
      0.3975900              0.00144583             0.2445330
      0.1600950              1.0927900              0.8049340
SP   1   1.00
      0.0556577              1.0000000              1.0000000
D    1   1.00
      0.6500000              1.0000000
D    1   1.00
      0.1625000              1.0000000
F    1   1.00
      0.2500000              1.0000000
****
Si     0
S    6   1.00
  16115.9000000              0.00195948
   2425.5800000              0.01492880
    553.8670000              0.07284780
    156.3400000              0.24613000
     50.0683000              0.48591400
     17.0178000              0.32500200
SP   6   1.00
    292.7180000             -0.00278094             0.00443826
     69.8731000             -0.03571460             0.03266790
     22.3363000             -0.11498500             0.13472100
      8.1503900              0.09356340             0.32867800
      3.1345800              0.60301700             0.44964000
      1.2254300              0.41895900             0.26137200
SP   3   1.00
      1.7273800             -0.24463000            -0.01779510
      0.5729220              0.00431572             0.25353900
      0.2221920              1.09818000             0.80066900
SP   1   1.00
      0.0778369              1.00000000             1.00000000
D    1   1.00
      0.9000000              1.0000000
D    1   1.00
      0.2250000              1.0000000
F    1   1.00
      0.3200000              1.0000000
****
P     0
S    6   1.00
  19413.3000000              0.0018516
   2909.4200000              0.0142062
    661.3640000              0.0699995
    185.7590000              0.2400790
     59.1943000              0.4847620
     20.0310000              0.3352000
SP   6   1.00
    339.4780000             -0.00278217             0.00456462
     81.0101000             -0.0360499              0.03369360
     25.8780000             -0.1166310              0.13975500
      9.4522100              0.0968328              0.33936200
      3.6656600              0.6144180              0.45092100
      1.4674600              0.4037980              0.23858600
SP   3   1.00
      2.1562300             -0.2529230             -0.01776530
      0.7489970              0.0328517              0.27405800
      0.2831450              1.0812500              0.78542100
SP   1   1.00
      0.0998317              1.0000000              1.00000000
D    1   1.00
      1.1000000              1.0000000
D    1   1.00
      0.2750000              1.0000000
F    1   1.00
      0.4500000              1.0000000
****
S     0
S    6   1.00
  21917.1000000              0.0018690
   3301.4900000              0.0142300
    754.1460000              0.0696960
    212.7110000              0.2384870
     67.9896000              0.4833070
     23.0515000              0.3380740
SP   6   1.00
    423.7350000             -0.0023767              0.0040610
    100.7100000             -0.0316930              0.0306810
     32.1599000             -0.1133170              0.1304520
     11.8079000              0.0560900              0.3272050
      4.6311000              0.5922550              0.4528510
      1.8702500              0.4550060              0.2560420
SP   3   1.00
      2.6158400             -0.2503740             -0.0145110
      0.9221670              0.0669570              0.3102630
      0.3412870              1.0545100              0.7544830
SP   1   1.00
      0.1171670              1.0000000              1.0000000
D    1   1.00
      1.3000000              1.0000000
D    1   1.00
      0.3250000              1.0000000
F    1   1.00
      0.5500000              1.0000000
****
Cl     0
S    6   1.00
  25180.1000000              0.0018330
   3780.3500000              0.0140340
    860.4740000              0.0690970
    242.1450000              0.2374520
     77.3349000              0.4830340
     26.2470000              0.3398560
SP   6   1.00
    491.7650000             -0.0022974              0.0039894
    116.9840000             -0.0307140              0.0303180
     37.4153000             -0.1125280              0.1298800
     13.7834000              0.0450160              0.3279510
      5.4521500              0.5893530              0.4535270
      2.2258800              0.4652060              0.2521540
SP   3   1.00
      3.1864900             -0.2518300             -0.0142990
      1.1442700              0.0615890              0.3235720
      0.4203770              1.0601800              0.7435070
SP   1   1.00
      0.1426570              1.0000000              1.0000000
D    1   1.00
      1.5000000              1.0000000
D    1   1.00
      0.3750000              1.0000000
F    1   1.00
      0.7000000              1.0000000
****
}

set {
reference uhf
freeze_core true
e_convergence 10
d_convergence 10
dft_spherical_points 1202
dft_radial_points 99
}

e = energy('b3lyp')

print_out('Grab this energy {0}'.format(e))
--------------------------------------------------------------------------

    Molecular point group: cs

    Geometry (in Bohr), charge = 0, multiplicity = 2:

       Center              X                  Y                   Z               Mass
    ------------   -----------------  -----------------  -----------------  -----------------
         C           -0.321674821144     0.001522166249     0.000000000000    12.000000000000
         C            0.060575138256    -1.400744218751    -2.427328525300    12.000000000000
         C            0.060227848756     2.800533556349     0.000000000000    12.000000000000
         C            0.060575138256    -1.400744218751     2.427328525300    12.000000000000
         H            2.087086288556    -1.642625215351    -2.851165221500     1.007825032230
         H           -0.766474141044    -0.391297411851    -4.029476929800     1.007825032230
         H           -0.764251050744    -3.290954775751    -2.344114817500     1.007825032230
         H            2.087288729756     3.282995869949     0.000000000000     1.007825032230
         H           -0.764761100444     3.680002184749     1.675789825100     1.007825032230
         H           -0.764761100444     3.680002184749    -1.675789825100     1.007825032230
         H            2.087086288556    -1.642625215351     2.851165221500     1.007825032230
         H           -0.764251050744    -3.290954775751     2.344114817500     1.007825032230
         H           -0.766474141044    -0.391297411851     4.029476929800     1.007825032230

  Charge       = 0
  Multiplicity = 2
  Basis Set: ANONYMOUS97FDB1AC
    Blend: 6-31G_2DFP_
  Basis Set: (ANONYMOUS97FDB1AC AUX)
    Blend: DEF2-UNIVERSAL-JKFIT

    Orbital Energies [Eh]
    ---------------------

    Alpha Occupied:

       1Ap   -10.180277     1App  -10.167129     2Ap   -10.167101
       3Ap   -10.166840     4Ap    -0.797782     5Ap    -0.686326
       2App   -0.686082     6Ap    -0.530770     7Ap    -0.441072
       8Ap    -0.434800     3App   -0.434666     9Ap    -0.382528
       4App   -0.382456     5App   -0.363738    10Ap    -0.338156
       6App   -0.338023    11Ap    -0.168778

    Alpha Virtual:

      12Ap     0.076069     7App    0.134128    13Ap     0.134191
      14Ap     0.142587     8App    0.142712    15Ap     0.154800
      16Ap     0.178670     9App    0.178749    17Ap     0.203522
      10App    0.214852    11App    0.275889    18Ap     0.276427
      12App    0.399215    19Ap     0.399275    20Ap     0.403432
      21Ap     0.424072    13App    0.424180    22Ap     0.456499
      23Ap     0.495355    14App    0.495474    15App    0.512114
      24Ap     0.514078    16App    0.578404    25Ap     0.578973
      17App    0.591312    26Ap     0.591897    27Ap     0.602357
      28Ap     0.624840    18App    0.631837    19App    0.636367
      29Ap     0.636451    30Ap     0.663220    20App    0.663285
      21App    0.683934    31Ap     0.683991    32Ap     0.735190
      33Ap     0.825247    22App    0.825676    23App    0.853914
      24App    0.914950    34Ap     0.915218    25App    0.944075
      35Ap     0.944564    36Ap     0.960598    26App    0.961961
      37Ap     1.003462    38Ap     1.127788    27App    1.128227
      39Ap     1.142205    40Ap     1.162733    28App    1.162959
      41Ap     1.223488    29App    1.274399    42Ap     1.274709
      43Ap     1.279108    44Ap     1.324608    30App    1.324608
      45Ap     1.355758    31App    1.366263    46Ap     1.366594
      32App    1.392449    33App    1.403700    47Ap     1.404315
      34App    1.416472    48Ap     1.417276    35App    1.427860
      36App    1.491677    49Ap     1.498684    50Ap     1.542505
      37App    1.543058    51Ap     1.574720    38App    1.574736
      52Ap     1.670099    39App    1.739291    53Ap     1.740030
      54Ap     1.768256    40App    1.831293    55Ap     1.832279
      41App    1.971990    56Ap     2.018407    42App    2.018797
      57Ap     2.019601    43App    2.051446    58Ap     2.053050
      59Ap     2.738396    44App    2.738959    60Ap     2.790730
      45App    2.811447    46App    2.889955    61Ap     2.890410
      62Ap     2.894687    47App    2.929459    63Ap     2.929496
      48App    2.959062    64Ap     2.964325    49App    2.964643
      65Ap     3.033655    66Ap     3.072002    50App    3.072249
      51App    3.084423    52App    3.168467    67Ap     3.168864
      68Ap     3.180619    53App    3.284474    69Ap     3.284557
      54App    3.326479    70Ap     3.327130    71Ap     3.375451
      55App    3.490196    72Ap     3.490561    56App    3.514205
      73Ap     3.524845    57App    3.568262    74Ap     3.569017
      58App    3.574629    75Ap     3.666731    59App    3.667141
      76Ap     3.679853    60App    3.693634    77Ap     3.694524
      78Ap     3.775852    61App    3.778325    79Ap     3.790418
      62App    3.911991    80Ap     3.912518    81Ap     4.034762
      63App    4.110332    82Ap     4.112868    64App    4.147285
      83Ap     4.148990    84Ap     4.173322    65App    4.202741
      85Ap     4.202808    86Ap     4.203058    66App    4.210803
      67App    4.314944    87Ap     4.316537    68App    4.358545
      88Ap     4.424365    69App    4.424863    70App    4.443705
      71App    4.516117    89Ap     4.516949    72App    4.577815
      90Ap     4.578477    91Ap     4.618020    92Ap     4.709128
      93Ap     4.773701    73App    4.775786    74App    4.838145
      94Ap     4.962760    75App    5.002438    95Ap     5.003171
      96Ap     5.228145    97Ap     5.246460    76App    5.247378
      77App    5.355063    98Ap     5.356494    78App    5.479721

    Beta Occupied:

       1App  -10.167885     1Ap   -10.167867     2Ap   -10.167603
       3Ap   -10.166458     4Ap    -0.781103     5Ap    -0.684123
       2App   -0.683895     6Ap    -0.511750     7Ap    -0.431180
       3App   -0.431056     8Ap    -0.421730     9Ap    -0.376598
       4App   -0.376536     5App   -0.362722    10Ap    -0.333271
       6App   -0.333147

    Beta Virtual:

      11Ap    -0.025641    12Ap     0.077083     7App    0.135036
      13Ap     0.135083    14Ap     0.144454     8App    0.144582
      15Ap     0.163270    16Ap     0.182358     9App    0.182401
      10App    0.215081    17Ap     0.218926    11App    0.282235
      18Ap     0.282753    12App    0.400386    19Ap     0.400452
      20Ap     0.419895    21Ap     0.426882    13App    0.426990
      22Ap     0.468393    23Ap     0.497615    14App    0.497727
      15App    0.513854    24Ap     0.556423    16App    0.583966
      25Ap     0.584538    17App    0.597500    26Ap     0.598058
      27Ap     0.609805    28Ap     0.628194    18App    0.631992
      19App    0.639628    29Ap     0.639751    30Ap     0.666780
      20App    0.666848    21App    0.686553    31Ap     0.686653
      32Ap     0.757692    33Ap     0.830390    22App    0.830862
      23App    0.855271    24App    0.922944    34Ap     0.923144
      25App    0.945916    35Ap     0.953494    36Ap     0.965997
      26App    0.967245    37Ap     1.008684    38Ap     1.131734
      27App    1.132324    39Ap     1.155616    40Ap     1.167891
      28App    1.167950    41Ap     1.232464    29App    1.279982
      42Ap     1.280288    43Ap     1.284854    30App    1.329573
      44Ap     1.329605    45Ap     1.365200    31App    1.371540
      46Ap     1.371809    32App    1.393515    33App    1.407137
      47Ap     1.407809    34App    1.421550    48Ap     1.422343
      35App    1.428123    36App    1.492727    49Ap     1.509122
      50Ap     1.546911    37App    1.547469    51Ap     1.582594
      38App    1.582605    52Ap     1.674930    39App    1.745046
      53Ap     1.745803    54Ap     1.779056    40App    1.835159
      55Ap     1.836141    41App    1.972851    56Ap     2.025084
      42App    2.025219    57Ap     2.040687    43App    2.058112
      58Ap     2.059772    59Ap     2.746750    44App    2.747279
      45App    2.811852    60Ap     2.815883    46App    2.902655
      61Ap     2.903039    62Ap     2.924369    47App    2.931966
      63Ap     2.931974    48App    2.960124    64Ap     2.968877
      49App    2.969160    65Ap     3.041631    66Ap     3.081880
      50App    3.082110    51App    3.086244    52App    3.184287
      67Ap     3.184753    68Ap     3.188244    53App    3.289287
      69Ap     3.289419    54App    3.330292    70Ap     3.330909
      71Ap     3.383260    55App    3.492923    72Ap     3.493255
      56App    3.512568    73Ap     3.527889    57App    3.574296
      58App    3.581705    74Ap     3.582346    59App    3.671683
      75Ap     3.671760    76Ap     3.693150    60App    3.725574
      77Ap     3.725801    78Ap     3.780385    61App    3.782764
      79Ap     3.818973    62App    3.921862    80Ap     3.922354
      81Ap     4.045620    63App    4.117274    82Ap     4.119588
      64App    4.154453    83Ap     4.156218    84Ap     4.187414
      65App    4.208659    85Ap     4.208805    86Ap     4.210973
      66App    4.215300    67App    4.322334    87Ap     4.323980
      68App    4.361912    88Ap     4.432671    69App    4.433071
      70App    4.446587    71App    4.523935    89Ap     4.524746
      72App    4.588385    90Ap     4.589038    91Ap     4.625223
      92Ap     4.719447    93Ap     4.780684    73App    4.782681
      74App    4.841053    94Ap     4.967558    75App    5.006482
      95Ap     5.007234    96Ap     5.233860    97Ap     5.248236
      76App    5.249170    77App    5.361514    98Ap     5.362987
      78App    5.482036

    Final Occupation by Irrep:
             Ap   App
    DOCC [    10,    6 ]
    SOCC [     1,    0 ]

  @DF-UKS Final Energy:  -157.81307668510169

   => Energetics <=

    Nuclear Repulsion Energy =            125.3970446245120058
    One-Electron Energy =                -458.7535853499080076
    Two-Electron Energy =                 195.8506754291850314
    DFT Exchange-Correlation Energy =     -20.3072113888906927
    Empirical Dispersion Energy =           0.0000000000000000
    VV10 Nonlocal Energy =                  0.0000000000000000
    Total Energy =                       -157.8130766851016915

  UHF NO Occupations:
  HONO-2 :    9 Ap 1.9995994
  HONO-1 :   10 Ap 1.9989790
  HONO-0 :   11 Ap 1.0000000
  LUNO+0 :   12 Ap 0.0010210
  LUNO+1 :   13 Ap 0.0004006
  LUNO+2 :    7App 0.0001978
  LUNO+3 :   14 Ap 0.0001971

Computation Completed

Properties will be evaluated at   0.000000,   0.000000,   0.000000 [a0]

Properties computed using the SCF density matrix

  Nuclear Dipole Moment: [e a0]
     X:     0.8287      Y:    -0.0034      Z:     0.0000

  Electronic Dipole Moment: [e a0]
     X:    -0.7516      Y:     0.0034      Z:     0.0000

  Dipole Moment: [e a0]
     X:     0.0771      Y:     0.0000      Z:     0.0000     Total:     0.0771

  Dipole Moment: [D]
     X:     0.1961      Y:     0.0001      Z:     0.0000     Total:     0.1961

*** tstop() called on n035 at Fri Nov  5 11:40:20 2021
Module time:
	user time   =     633.99 seconds =      10.57 minutes
	system time =      11.97 seconds =       0.20 minutes
	total time  =        163 seconds =       2.72 minutes
Total time:
	user time   =     633.99 seconds =      10.57 minutes
	system time =      11.97 seconds =       0.20 minutes
	total time  =        163 seconds =       2.72 minutes
Grab this energy -157.8130766851017
    Psi4 stopped on: Friday, 05 November 2021 11:40AM
    Psi4 wall time for execution: 0:02:42.43

*** Psi4 exiting successfully. Buy a developer a beer!
