                               Psi4 1.4a2.dev629

  ==> Input File <==

--------------------------------------------------------------------------
import os
memory 14 GB

molecule {
 C   -0.3233388567    0.0004309247    0.0004342941
 C    0.0607172633   -1.4005100263   -2.4267597909
 C    0.0613313637    2.8016530978    0.0013899458
 C    0.0612561441   -1.3992149473    2.4272967013
 H    2.0881834209   -1.6429822104   -2.8480684717
 H   -0.7647101418   -0.3899975985   -4.0243040815
 H   -0.7672188989   -3.2919393337   -2.3496363853
 H    2.0858879712    3.2881130069    0.0034943054
 H   -0.7620927126    3.6792003611    1.6750264170
 H   -0.7685051326    3.6810054138   -1.6798064773
 H    2.0866058771   -1.6399649682    2.8498317792
 H   -0.7698229713   -3.2957048048    2.3482057844
 H   -0.7609012030   -0.3901132286    4.0228959796
units bohr
0 2
}

basis {

assign 6-31g_2dfp_

[ 6-31g_2dfp_ ]

spherical

!----------------------------------------------------------------------
! Basis Set Exchange
! Version v0.8.13
! https://www.basissetexchange.org
!----------------------------------------------------------------------
!   Basis set: 6-31G(2df,p)
! Description: 6-31G(2df,p)
!        Role: orbital
!     Version: 0  (Data from the original Basis Set Exchange)
!----------------------------------------------------------------------

****
H     0
S    3   1.00
     18.7311370              0.03349460
      2.8253937              0.23472695
      0.6401217              0.81375733
S    1   1.00
      0.1612778              1.00000000
P    1   1.00
      1.5000000              1.0000000
P    1   1.00
      0.3750000              1.0000000
****
B     0
S    6   1.00
   2068.8823000              0.0018663
    310.6495700              0.0142515
     70.6830330              0.0695516
     19.8610800              0.2325729
      6.2993048              0.4670787
      2.1270270              0.3634314
SP   3   1.00
      4.7279710             -0.1303938              0.0745976
      1.1903377             -0.1307889              0.3078467
      0.3594117              1.1309444              0.7434568
SP   1   1.00
      0.1267512              1.0000000              1.0000000
D    1   1.00
      0.8020000              1.0000000
D    1   1.00
      0.2005000              1.0000000
F    1   1.00
      0.5000000              1.0000000
****
C     0
S    6   1.00
   3047.5249000              0.0018347
    457.3695100              0.0140373
    103.9486900              0.0688426
     29.2101550              0.2321844
      9.2866630              0.4679413
      3.1639270              0.3623120
SP   3   1.00
      7.8682724             -0.1193324              0.0689991
      1.8812885             -0.1608542              0.3164240
      0.5442493              1.1434564              0.7443083
SP   1   1.00
      0.1687144              1.0000000              1.0000000
D    1   1.00
      1.2520000              1.0000000
D    1   1.00
      0.3130000              1.0000000
F    1   1.00
      0.8000000              1.0000000
****
N     0
S    6   1.00
   4173.5110000              0.0018348
    627.4579000              0.0139950
    142.9021000              0.0685870
     40.2343300              0.2322410
     12.8202100              0.4690700
      4.3904370              0.3604550
SP   3   1.00
     11.6263580             -0.1149610              0.0675800
      2.7162800             -0.1691180              0.3239070
      0.7722180              1.1458520              0.7408950
SP   1   1.00
      0.2120313              1.0000000              1.0000000
D    1   1.00
      1.8260000              1.0000000
D    1   1.00
      0.4565000              1.0000000
F    1   1.00
      1.0000000              1.0000000
****
O     0
S    6   1.00
   5484.6717000              0.0018311
    825.2349500              0.0139501
    188.0469600              0.0684451
     52.9645000              0.2327143
     16.8975700              0.4701930
      5.7996353              0.3585209
SP   3   1.00
     15.5396160             -0.1107775              0.0708743
      3.5999336             -0.1480263              0.3397528
      1.0137618              1.1307670              0.7271586
SP   1   1.00
      0.2700058              1.0000000              1.0000000
D    1   1.00
      2.5840000              1.0000000
D    1   1.00
      0.6460000              1.0000000
F    1   1.00
      1.4000000              1.0000000
****
F     0
S    6   1.00
   7001.7130900              0.0018196169
   1051.3660900              0.0139160796
    239.2856900              0.0684053245
     67.3974453              0.233185760
     21.5199573              0.471267439
      7.40310130             0.356618546
SP   3   1.00
     20.8479528             -0.108506975            0.0716287243
      4.80830834            -0.146451658            0.3459121030
      1.34406986             1.128688580            0.7224699570
SP   1   1.00
      0.358151393            1.0000000              1.0000000
D    1   1.00
      3.5000000              1.0000000
D    1   1.00
      0.8750000              1.0000000
F    1   1.00
      1.8500000              1.0000000
****
Al     0
S    6   1.00
  13983.1000000              0.00194267
   2098.7500000              0.0148599
    477.7050000              0.0728494
    134.3600000              0.2468300
     42.8709000              0.4872580
     14.5189000              0.3234960
SP   6   1.00
    239.6680000             -0.00292619             0.00460285
     57.4419000             -0.0374080              0.0331990
     18.2859000             -0.1144870              0.1362820
      6.5991400              0.1156350              0.3304760
      2.4904900              0.6125950              0.4491460
      0.9445400              0.3937990              0.2657040
SP   3   1.00
      1.2779000             -0.2276060             -0.0175130
      0.3975900              0.00144583             0.2445330
      0.1600950              1.0927900              0.8049340
SP   1   1.00
      0.0556577              1.0000000              1.0000000
D    1   1.00
      0.6500000              1.0000000
D    1   1.00
      0.1625000              1.0000000
F    1   1.00
      0.2500000              1.0000000
****
Si     0
S    6   1.00
  16115.9000000              0.00195948
   2425.5800000              0.01492880
    553.8670000              0.07284780
    156.3400000              0.24613000
     50.0683000              0.48591400
     17.0178000              0.32500200
SP   6   1.00
    292.7180000             -0.00278094             0.00443826
     69.8731000             -0.03571460             0.03266790
     22.3363000             -0.11498500             0.13472100
      8.1503900              0.09356340             0.32867800
      3.1345800              0.60301700             0.44964000
      1.2254300              0.41895900             0.26137200
SP   3   1.00
      1.7273800             -0.24463000            -0.01779510
      0.5729220              0.00431572             0.25353900
      0.2221920              1.09818000             0.80066900
SP   1   1.00
      0.0778369              1.00000000             1.00000000
D    1   1.00
      0.9000000              1.0000000
D    1   1.00
      0.2250000              1.0000000
F    1   1.00
      0.3200000              1.0000000
****
P     0
S    6   1.00
  19413.3000000              0.0018516
   2909.4200000              0.0142062
    661.3640000              0.0699995
    185.7590000              0.2400790
     59.1943000              0.4847620
     20.0310000              0.3352000
SP   6   1.00
    339.4780000             -0.00278217             0.00456462
     81.0101000             -0.0360499              0.03369360
     25.8780000             -0.1166310              0.13975500
      9.4522100              0.0968328              0.33936200
      3.6656600              0.6144180              0.45092100
      1.4674600              0.4037980              0.23858600
SP   3   1.00
      2.1562300             -0.2529230             -0.01776530
      0.7489970              0.0328517              0.27405800
      0.2831450              1.0812500              0.78542100
SP   1   1.00
      0.0998317              1.0000000              1.00000000
D    1   1.00
      1.1000000              1.0000000
D    1   1.00
      0.2750000              1.0000000
F    1   1.00
      0.4500000              1.0000000
****
S     0
S    6   1.00
  21917.1000000              0.0018690
   3301.4900000              0.0142300
    754.1460000              0.0696960
    212.7110000              0.2384870
     67.9896000              0.4833070
     23.0515000              0.3380740
SP   6   1.00
    423.7350000             -0.0023767              0.0040610
    100.7100000             -0.0316930              0.0306810
     32.1599000             -0.1133170              0.1304520
     11.8079000              0.0560900              0.3272050
      4.6311000              0.5922550              0.4528510
      1.8702500              0.4550060              0.2560420
SP   3   1.00
      2.6158400             -0.2503740             -0.0145110
      0.9221670              0.0669570              0.3102630
      0.3412870              1.0545100              0.7544830
SP   1   1.00
      0.1171670              1.0000000              1.0000000
D    1   1.00
      1.3000000              1.0000000
D    1   1.00
      0.3250000              1.0000000
F    1   1.00
      0.5500000              1.0000000
****
Cl     0
S    6   1.00
  25180.1000000              0.0018330
   3780.3500000              0.0140340
    860.4740000              0.0690970
    242.1450000              0.2374520
     77.3349000              0.4830340
     26.2470000              0.3398560
SP   6   1.00
    491.7650000             -0.0022974              0.0039894
    116.9840000             -0.0307140              0.0303180
     37.4153000             -0.1125280              0.1298800
     13.7834000              0.0450160              0.3279510
      5.4521500              0.5893530              0.4535270
      2.2258800              0.4652060              0.2521540
SP   3   1.00
      3.1864900             -0.2518300             -0.0142990
      1.1442700              0.0615890              0.3235720
      0.4203770              1.0601800              0.7435070
SP   1   1.00
      0.1426570              1.0000000              1.0000000
D    1   1.00
      1.5000000              1.0000000
D    1   1.00
      0.3750000              1.0000000
F    1   1.00
      0.7000000              1.0000000
****
}

set {
reference uhf
freeze_core true
e_convergence 10
d_convergence 10
dft_spherical_points 1202
dft_radial_points 99
}

e = energy('b3lyp')

print_out('Grab this energy {0}'.format(e))
--------------------------------------------------------------------------

    Molecular point group: c1

    Geometry (in Bohr), charge = 0, multiplicity = 2:

       Center              X                  Y                   Z               Mass
    ------------   -----------------  -----------------  -----------------  -----------------
         C           -0.323339992939    -0.000023015750    -0.000020480456    12.000000000000
         C            0.060716127061    -1.400963966750    -2.427214565456    12.000000000000
         C            0.061330227461     2.801199157350     0.000935171244    12.000000000000
         C            0.061255007861    -1.399668887750     2.426841926744    12.000000000000
         H            2.088182284661    -1.643436150850    -2.848523246256     1.007825032230
         H           -0.764711278039    -0.390451538950    -4.024758856056     1.007825032230
         H           -0.767220035139    -3.292393274150    -2.350091159856     1.007825032230
         H            2.085886834961     3.287659066450     0.003039530844     1.007825032230
         H           -0.762093848839     3.678746420650     1.674571642444     1.007825032230
         H           -0.768506268839     3.680551473350    -1.680261251856     1.007825032230
         H            2.086604740861    -1.640418908650     2.849377004644     1.007825032230
         H           -0.769824107539    -3.296158745250     2.347751009844     1.007825032230
         H           -0.760902339239    -0.390567169050     4.022441205044     1.007825032230

  Charge       = 0
  Multiplicity = 2
  Basis Set: ANONYMOUS3A974A55
    Blend: 6-31G_2DFP_
  Basis Set: (ANONYMOUS3A974A55 AUX)
    Blend: DEF2-UNIVERSAL-JKFIT

    Orbital Energies [Eh]
    ---------------------

    Alpha Occupied:

       1A    -10.180342     2A    -10.167035     3A    -10.167026
       4A    -10.166983     5A     -0.797767     6A     -0.686273
       7A     -0.686105     8A     -0.530780     9A     -0.441128
      10A     -0.434936    11A     -0.434401    12A     -0.382633
      13A     -0.382566    14A     -0.363613    15A     -0.338228
      16A     -0.337767    17A     -0.168961

    Alpha Virtual:

      18A      0.076068    19A      0.133990    20A      0.134312
      21A      0.142335    22A      0.142917    23A      0.154885
      24A      0.178648    25A      0.178908    26A      0.203547
      27A      0.214805    28A      0.275830    29A      0.276143
      30A      0.398878    31A      0.399574    32A      0.403346
      33A      0.423868    34A      0.424326    35A      0.456593
      36A      0.495318    37A      0.495463    38A      0.512161
      39A      0.513979    40A      0.578738    41A      0.578895
      42A      0.591427    43A      0.591835    44A      0.602570
      45A      0.624670    46A      0.631763    47A      0.635932
      48A      0.636667    49A      0.663115    50A      0.663710
      51A      0.683592    52A      0.684146    53A      0.734994
      54A      0.825050    55A      0.825763    56A      0.853915
      57A      0.914725    58A      0.915324    59A      0.944124
      60A      0.944601    61A      0.961180    62A      0.961412
      63A      1.003458    64A      1.127714    65A      1.128516
      66A      1.142222    67A      1.163179    68A      1.163358
      69A      1.223321    70A      1.274143    71A      1.274830
      72A      1.279358    73A      1.324047    74A      1.324645
      75A      1.355986    76A      1.365632    77A      1.366473
      78A      1.392440    79A      1.403986    80A      1.404107
      81A      1.416128    82A      1.418097    83A      1.427893
      84A      1.491502    85A      1.499064    86A      1.542818
      87A      1.542869    88A      1.574154    89A      1.574750
      90A      1.669838    91A      1.738412    92A      1.740408
      93A      1.768327    94A      1.830268    95A      1.832492
      96A      1.971781    97A      2.017072    98A      2.019224
      99A      2.020077   100A      2.051923   101A      2.053394
     102A      2.738226   103A      2.738740   104A      2.790924
     105A      2.811426   106A      2.889745   107A      2.890159
     108A      2.894938   109A      2.929469   110A      2.929530
     111A      2.958929   112A      2.964312   113A      2.964519
     114A      3.034010   115A      3.070408   116A      3.072047
     117A      3.084513   118A      3.168195   119A      3.169366
     120A      3.180592   121A      3.285081   122A      3.285532
     123A      3.326622   124A      3.327705   125A      3.375636
     126A      3.489781   127A      3.490553   128A      3.514020
     129A      3.525327   130A      3.567781   131A      3.569000
     132A      3.575099   133A      3.665710   134A      3.667126
     135A      3.679629   136A      3.693811   137A      3.694485
     138A      3.776627   139A      3.776941   140A      3.789135
     141A      3.911399   142A      3.913046   143A      4.034433
     144A      4.110573   145A      4.112026   146A      4.147702
     147A      4.148393   148A      4.173427   149A      4.201785
     150A      4.202663   151A      4.204229   152A      4.211078
     153A      4.315027   154A      4.316918   155A      4.358977
     156A      4.423698   157A      4.425219   158A      4.443471
     159A      4.515351   160A      4.518326   161A      4.578250
     162A      4.578282   163A      4.617563   164A      4.709408
     165A      4.773258   166A      4.775989   167A      4.836917
     168A      4.962866   169A      5.002430   170A      5.003505
     171A      5.227151   172A      5.246641   173A      5.247773
     174A      5.353788   175A      5.357280   176A      5.479478

    Beta Occupied:

       1A    -10.167788     2A    -10.167780     3A    -10.167755
       4A    -10.166520     5A     -0.781092     6A     -0.684078
       7A     -0.683905     8A     -0.511752     9A     -0.431308
      10A     -0.430776    11A     -0.421819    12A     -0.376712
      13A     -0.376657    14A     -0.362597    15A     -0.333345
      16A     -0.332896

    Beta Virtual:

      17A     -0.025743    18A      0.077077    19A      0.134845
      20A      0.135239    21A      0.144168    22A      0.144826
      23A      0.163342    24A      0.182320    25A      0.182578
      26A      0.215035    27A      0.218930    28A      0.282179
      29A      0.282490    30A      0.400041    31A      0.400752
      32A      0.419791    33A      0.426679    34A      0.427137
      35A      0.468501    36A      0.497571    37A      0.497731
      38A      0.513896    39A      0.556325    40A      0.584290
      41A      0.584443    42A      0.597571    43A      0.598046
      44A      0.609995    45A      0.628051    46A      0.631922
      47A      0.639244    48A      0.639922    49A      0.666699
      50A      0.667254    51A      0.686257    52A      0.686750
      53A      0.757518    54A      0.830235    55A      0.830914
      56A      0.855268    57A      0.922725    58A      0.923268
      59A      0.945960    60A      0.953526    61A      0.966461
      62A      0.966746    63A      1.008698    64A      1.131748
      65A      1.132539    66A      1.155600    67A      1.168258
      68A      1.168426    69A      1.232293    70A      1.279714
      71A      1.280451    72A      1.285113    73A      1.329038
      74A      1.329631    75A      1.365401    76A      1.370965
      77A      1.371627    78A      1.393501    79A      1.407425
      80A      1.407596    81A      1.421247    82A      1.423078
      83A      1.428162    84A      1.492553    85A      1.509507
      86A      1.547188    87A      1.547319    88A      1.582021
      89A      1.582618    90A      1.674685    91A      1.744159
      92A      1.746191    93A      1.779102    94A      1.834116
      95A      1.836354    96A      1.972642    97A      2.024589
      98A      2.026232    99A      2.039704   100A      2.058643
     101A      2.060130   102A      2.746546   103A      2.747093
     104A      2.811839   105A      2.816059   106A      2.902373
     107A      2.902906   108A      2.924647   109A      2.931945
     110A      2.932012   111A      2.960018   112A      2.968845
     113A      2.969049   114A      3.041944   115A      3.080139
     116A      3.081924   117A      3.086543   118A      3.183974
     119A      3.185070   120A      3.188290   121A      3.289866
     122A      3.290348   123A      3.330378   124A      3.331557
     125A      3.383454   126A      3.492530   127A      3.493265
     128A      3.512384   129A      3.528373   130A      3.574961
     131A      3.581011   132A      3.582450   133A      3.670641
     134A      3.671684   135A      3.692947   136A      3.725704
     137A      3.725835   138A      3.781121   139A      3.781511
     140A      3.817670   141A      3.921120   142A      3.922956
     143A      4.045321   144A      4.117094   145A      4.119145
     146A      4.154588   147A      4.155952   148A      4.187440
     149A      4.207747   150A      4.210114   151A      4.210646
     152A      4.215573   153A      4.322531   154A      4.324302
     155A      4.362339   156A      4.431942   157A      4.433396
     158A      4.446361   159A      4.523130   160A      4.526125
     161A      4.588806   162A      4.588928   163A      4.624756
     164A      4.719750   165A      4.780251   166A      4.782904
     167A      4.839834   168A      4.967660   169A      5.006472
     170A      5.007542   171A      5.232674   172A      5.248445
     173A      5.249740   174A      5.360280   175A      5.363739
     176A      5.481802

    Final Occupation by Irrep:
              A
    DOCC [    16 ]
    SOCC [     1 ]

  @DF-UKS Final Energy:  -157.81304838287485

   => Energetics <=

    Nuclear Repulsion Energy =            125.3946782385056196
    One-Electron Energy =                -458.7489564633406189
    Two-Electron Energy =                 195.8483797084872720
    DFT Exchange-Correlation Energy =     -20.3071498665271264
    Empirical Dispersion Energy =           0.0000000000000000
    VV10 Nonlocal Energy =                  0.0000000000000000
    Total Energy =                       -157.8130483828748538

  UHF NO Occupations:
  HONO-2 :   15  A 1.9996009
  HONO-1 :   16  A 1.9989805
  HONO-0 :   17  A 1.0000000
  LUNO+0 :   18  A 0.0010195
  LUNO+1 :   19  A 0.0003991
  LUNO+2 :   20  A 0.0001976
  LUNO+3 :   21  A 0.0001975

Computation Completed

Properties will be evaluated at   0.000000,   0.000000,   0.000000 [a0]

Properties computed using the SCF density matrix

  Nuclear Dipole Moment: [e a0]
     X:     0.8272      Y:    -0.0032      Z:    -0.0032

  Electronic Dipole Moment: [e a0]
     X:    -0.7493      Y:     0.0050      Z:     0.0049

  Dipole Moment: [e a0]
     X:     0.0779      Y:     0.0017      Z:     0.0017     Total:     0.0780

  Dipole Moment: [D]
     X:     0.1980      Y:     0.0044      Z:     0.0044     Total:     0.1981

*** tstop() called on n091 at Fri Nov  5 14:22:29 2021
Module time:
	user time   =     462.80 seconds =       7.71 minutes
	system time =       4.38 seconds =       0.07 minutes
	total time  =        117 seconds =       1.95 minutes
Total time:
	user time   =     462.80 seconds =       7.71 minutes
	system time =       4.38 seconds =       0.07 minutes
	total time  =        117 seconds =       1.95 minutes
Grab this energy -157.81304838287485
    Psi4 stopped on: Friday, 05 November 2021 02:22PM
    Psi4 wall time for execution: 0:01:57.53

*** Psi4 exiting successfully. Buy a developer a beer!
