                               Psi4 1.4a2.dev629

  ==> Input File <==

--------------------------------------------------------------------------
import os
memory 14 GB

molecule {
 C   -0.3233524457   -0.0002578960   -0.0000000000
 C    0.0599324783   -1.3994830261   -2.4252956308
 C    0.0628872621    2.8001125317    0.0000000000
 C    0.0599324783   -1.3994830261    2.4252956308
 H    2.0869855962   -1.6445236401   -2.8477700345
 H   -0.7650822595   -0.3886098880   -4.0258666446
 H   -0.7650092157   -3.2923486354   -2.3493088366
 H    2.0865435972    3.2886043048   -0.0000000000
 H   -0.7661697444    3.6807235625    1.6761840173
 H   -0.7661697444    3.6807235625   -1.6761840173
 H    2.0869855962   -1.6445236401    2.8477700345
 H   -0.7650092157   -3.2923486354    2.3493088366
 H   -0.7650822595   -0.3886098880    4.0258666446
units bohr
0 2
}

basis {

assign 6-31g_2dfp_

[ 6-31g_2dfp_ ]

spherical

!----------------------------------------------------------------------
! Basis Set Exchange
! Version v0.8.13
! https://www.basissetexchange.org
!----------------------------------------------------------------------
!   Basis set: 6-31G(2df,p)
! Description: 6-31G(2df,p)
!        Role: orbital
!     Version: 0  (Data from the original Basis Set Exchange)
!----------------------------------------------------------------------

****
H     0
S    3   1.00
     18.7311370              0.03349460
      2.8253937              0.23472695
      0.6401217              0.81375733
S    1   1.00
      0.1612778              1.00000000
P    1   1.00
      1.5000000              1.0000000
P    1   1.00
      0.3750000              1.0000000
****
B     0
S    6   1.00
   2068.8823000              0.0018663
    310.6495700              0.0142515
     70.6830330              0.0695516
     19.8610800              0.2325729
      6.2993048              0.4670787
      2.1270270              0.3634314
SP   3   1.00
      4.7279710             -0.1303938              0.0745976
      1.1903377             -0.1307889              0.3078467
      0.3594117              1.1309444              0.7434568
SP   1   1.00
      0.1267512              1.0000000              1.0000000
D    1   1.00
      0.8020000              1.0000000
D    1   1.00
      0.2005000              1.0000000
F    1   1.00
      0.5000000              1.0000000
****
C     0
S    6   1.00
   3047.5249000              0.0018347
    457.3695100              0.0140373
    103.9486900              0.0688426
     29.2101550              0.2321844
      9.2866630              0.4679413
      3.1639270              0.3623120
SP   3   1.00
      7.8682724             -0.1193324              0.0689991
      1.8812885             -0.1608542              0.3164240
      0.5442493              1.1434564              0.7443083
SP   1   1.00
      0.1687144              1.0000000              1.0000000
D    1   1.00
      1.2520000              1.0000000
D    1   1.00
      0.3130000              1.0000000
F    1   1.00
      0.8000000              1.0000000
****
N     0
S    6   1.00
   4173.5110000              0.0018348
    627.4579000              0.0139950
    142.9021000              0.0685870
     40.2343300              0.2322410
     12.8202100              0.4690700
      4.3904370              0.3604550
SP   3   1.00
     11.6263580             -0.1149610              0.0675800
      2.7162800             -0.1691180              0.3239070
      0.7722180              1.1458520              0.7408950
SP   1   1.00
      0.2120313              1.0000000              1.0000000
D    1   1.00
      1.8260000              1.0000000
D    1   1.00
      0.4565000              1.0000000
F    1   1.00
      1.0000000              1.0000000
****
O     0
S    6   1.00
   5484.6717000              0.0018311
    825.2349500              0.0139501
    188.0469600              0.0684451
     52.9645000              0.2327143
     16.8975700              0.4701930
      5.7996353              0.3585209
SP   3   1.00
     15.5396160             -0.1107775              0.0708743
      3.5999336             -0.1480263              0.3397528
      1.0137618              1.1307670              0.7271586
SP   1   1.00
      0.2700058              1.0000000              1.0000000
D    1   1.00
      2.5840000              1.0000000
D    1   1.00
      0.6460000              1.0000000
F    1   1.00
      1.4000000              1.0000000
****
F     0
S    6   1.00
   7001.7130900              0.0018196169
   1051.3660900              0.0139160796
    239.2856900              0.0684053245
     67.3974453              0.233185760
     21.5199573              0.471267439
      7.40310130             0.356618546
SP   3   1.00
     20.8479528             -0.108506975            0.0716287243
      4.80830834            -0.146451658            0.3459121030
      1.34406986             1.128688580            0.7224699570
SP   1   1.00
      0.358151393            1.0000000              1.0000000
D    1   1.00
      3.5000000              1.0000000
D    1   1.00
      0.8750000              1.0000000
F    1   1.00
      1.8500000              1.0000000
****
Al     0
S    6   1.00
  13983.1000000              0.00194267
   2098.7500000              0.0148599
    477.7050000              0.0728494
    134.3600000              0.2468300
     42.8709000              0.4872580
     14.5189000              0.3234960
SP   6   1.00
    239.6680000             -0.00292619             0.00460285
     57.4419000             -0.0374080              0.0331990
     18.2859000             -0.1144870              0.1362820
      6.5991400              0.1156350              0.3304760
      2.4904900              0.6125950              0.4491460
      0.9445400              0.3937990              0.2657040
SP   3   1.00
      1.2779000             -0.2276060             -0.0175130
      0.3975900              0.00144583             0.2445330
      0.1600950              1.0927900              0.8049340
SP   1   1.00
      0.0556577              1.0000000              1.0000000
D    1   1.00
      0.6500000              1.0000000
D    1   1.00
      0.1625000              1.0000000
F    1   1.00
      0.2500000              1.0000000
****
Si     0
S    6   1.00
  16115.9000000              0.00195948
   2425.5800000              0.01492880
    553.8670000              0.07284780
    156.3400000              0.24613000
     50.0683000              0.48591400
     17.0178000              0.32500200
SP   6   1.00
    292.7180000             -0.00278094             0.00443826
     69.8731000             -0.03571460             0.03266790
     22.3363000             -0.11498500             0.13472100
      8.1503900              0.09356340             0.32867800
      3.1345800              0.60301700             0.44964000
      1.2254300              0.41895900             0.26137200
SP   3   1.00
      1.7273800             -0.24463000            -0.01779510
      0.5729220              0.00431572             0.25353900
      0.2221920              1.09818000             0.80066900
SP   1   1.00
      0.0778369              1.00000000             1.00000000
D    1   1.00
      0.9000000              1.0000000
D    1   1.00
      0.2250000              1.0000000
F    1   1.00
      0.3200000              1.0000000
****
P     0
S    6   1.00
  19413.3000000              0.0018516
   2909.4200000              0.0142062
    661.3640000              0.0699995
    185.7590000              0.2400790
     59.1943000              0.4847620
     20.0310000              0.3352000
SP   6   1.00
    339.4780000             -0.00278217             0.00456462
     81.0101000             -0.0360499              0.03369360
     25.8780000             -0.1166310              0.13975500
      9.4522100              0.0968328              0.33936200
      3.6656600              0.6144180              0.45092100
      1.4674600              0.4037980              0.23858600
SP   3   1.00
      2.1562300             -0.2529230             -0.01776530
      0.7489970              0.0328517              0.27405800
      0.2831450              1.0812500              0.78542100
SP   1   1.00
      0.0998317              1.0000000              1.00000000
D    1   1.00
      1.1000000              1.0000000
D    1   1.00
      0.2750000              1.0000000
F    1   1.00
      0.4500000              1.0000000
****
S     0
S    6   1.00
  21917.1000000              0.0018690
   3301.4900000              0.0142300
    754.1460000              0.0696960
    212.7110000              0.2384870
     67.9896000              0.4833070
     23.0515000              0.3380740
SP   6   1.00
    423.7350000             -0.0023767              0.0040610
    100.7100000             -0.0316930              0.0306810
     32.1599000             -0.1133170              0.1304520
     11.8079000              0.0560900              0.3272050
      4.6311000              0.5922550              0.4528510
      1.8702500              0.4550060              0.2560420
SP   3   1.00
      2.6158400             -0.2503740             -0.0145110
      0.9221670              0.0669570              0.3102630
      0.3412870              1.0545100              0.7544830
SP   1   1.00
      0.1171670              1.0000000              1.0000000
D    1   1.00
      1.3000000              1.0000000
D    1   1.00
      0.3250000              1.0000000
F    1   1.00
      0.5500000              1.0000000
****
Cl     0
S    6   1.00
  25180.1000000              0.0018330
   3780.3500000              0.0140340
    860.4740000              0.0690970
    242.1450000              0.2374520
     77.3349000              0.4830340
     26.2470000              0.3398560
SP   6   1.00
    491.7650000             -0.0022974              0.0039894
    116.9840000             -0.0307140              0.0303180
     37.4153000             -0.1125280              0.1298800
     13.7834000              0.0450160              0.3279510
      5.4521500              0.5893530              0.4535270
      2.2258800              0.4652060              0.2521540
SP   3   1.00
      3.1864900             -0.2518300             -0.0142990
      1.1442700              0.0615890              0.3235720
      0.4203770              1.0601800              0.7435070
SP   1   1.00
      0.1426570              1.0000000              1.0000000
D    1   1.00
      1.5000000              1.0000000
D    1   1.00
      0.3750000              1.0000000
F    1   1.00
      0.7000000              1.0000000
****
}

set {
reference uhf
freeze_core true
e_convergence 10
d_convergence 10
dft_spherical_points 1202
dft_radial_points 99
}

e = energy('b3lyp')

print_out('Grab this energy {0}'.format(e))
--------------------------------------------------------------------------

    Molecular point group: cs

    Geometry (in Bohr), charge = 0, multiplicity = 2:

       Center              X                  Y                   Z               Mass
    ------------   -----------------  -----------------  -----------------  -----------------
         C           -0.323244539027    -0.000428614219     0.000000000000    12.000000000000
         C            0.060040384973    -1.399653744319    -2.425295630800    12.000000000000
         C            0.062995168773     2.799941813481     0.000000000000    12.000000000000
         C            0.060040384973    -1.399653744319     2.425295630800    12.000000000000
         H            2.087093502873    -1.644694358319    -2.847770034500     1.007825032230
         H           -0.764974352827    -0.388780606219    -4.025866644600     1.007825032230
         H           -0.764901309027    -3.292519353619    -2.349308836600     1.007825032230
         H            2.086651503873     3.288433586581     0.000000000000     1.007825032230
         H           -0.766061837727     3.680552844281     1.676184017300     1.007825032230
         H           -0.766061837727     3.680552844281    -1.676184017300     1.007825032230
         H            2.087093502873    -1.644694358319     2.847770034500     1.007825032230
         H           -0.764901309027    -3.292519353619     2.349308836600     1.007825032230
         H           -0.764974352827    -0.388780606219     4.025866644600     1.007825032230

  Charge       = 0
  Multiplicity = 2
  Basis Set: ANONYMOUS99667B5C
    Blend: 6-31G_2DFP_
  Basis Set: (ANONYMOUS99667B5C AUX)
    Blend: DEF2-UNIVERSAL-JKFIT

    Orbital Energies [Eh]
    ---------------------

    Alpha Occupied:

       1Ap   -10.180290     1App  -10.167099     2Ap   -10.167079
       3Ap   -10.167024     4Ap    -0.798023     2App   -0.686229
       5Ap    -0.686163     6Ap    -0.530942     7Ap    -0.441136
       8Ap    -0.434837     3App   -0.434639     9Ap    -0.382612
       4App   -0.382310     5App   -0.363411     6App   -0.338242
      10Ap    -0.338074    11Ap    -0.168982

    Alpha Virtual:

      12Ap     0.076065     7App    0.134065    13Ap     0.134131
       8App    0.142433    14Ap     0.142556    15Ap     0.154985
       9App    0.178499    16Ap     0.178727    17Ap     0.203837
      10App    0.214678    18Ap     0.276172    11App    0.276280
      19Ap     0.399059    12App    0.399383    20Ap     0.403256
      21Ap     0.423996    13App    0.424091    22Ap     0.456774
      23Ap     0.495351    14App    0.495409    15App    0.512105
      24Ap     0.513921    16App    0.578692    25Ap     0.578858
      17App    0.591414    26Ap     0.591652    27Ap     0.602529
      28Ap     0.624642    18App    0.631545    19App    0.636197
      29Ap     0.636412    20App    0.663359    30Ap     0.663697
      31Ap     0.683688    21App    0.683987    32Ap     0.734863
      33Ap     0.825416    22App    0.825440    23App    0.854052
      24App    0.914961    34Ap     0.915008    25App    0.944173
      35Ap     0.944925    26App    0.961140    36Ap     0.961310
      37Ap     1.003283    27App    1.128088    38Ap     1.128287
      39Ap     1.142637    28App    1.162573    40Ap     1.162746
      41Ap     1.223752    29App    1.274480    42Ap     1.274756
      43Ap     1.279521    30App    1.324302    44Ap     1.324812
      45Ap     1.356322    46Ap     1.365892    31App    1.366500
      32App    1.391959    33App    1.403215    47Ap     1.403454
      34App    1.416798    48Ap     1.417395    35App    1.427659
      36App    1.492016    49Ap     1.498497    37App    1.542936
      50Ap     1.543033    51Ap     1.574390    38App    1.574710
      52Ap     1.669043    39App    1.739522    53Ap     1.740312
      54Ap     1.768300    55Ap     1.830779    40App    1.831159
      41App    1.972328    56Ap     2.018060    42App    2.019178
      57Ap     2.020425    43App    2.052695    58Ap     2.053453
      44App    2.738620    59Ap     2.738700    60Ap     2.791148
      45App    2.811514    61Ap     2.889783    46App    2.890338
      62Ap     2.895349    63Ap     2.929300    47App    2.929377
      48App    2.958947    49App    2.964248    64Ap     2.964444
      65Ap     3.034182    66Ap     3.071120    50App    3.071338
      51App    3.084762    52App    3.168767    67Ap     3.168999
      68Ap     3.181181    53App    3.284950    69Ap     3.285016
      54App    3.327254    70Ap     3.327556    71Ap     3.375520
      72Ap     3.489950    55App    3.490547    56App    3.514164
      73Ap     3.525672    57App    3.568514    74Ap     3.568751
      58App    3.575005    59App    3.665315    75Ap     3.665883
      76Ap     3.679082    60App    3.694021    77Ap     3.694037
      61App    3.776829    78Ap     3.776894    79Ap     3.788823
      80Ap     3.913238    62App    3.913409    81Ap     4.035016
      82Ap     4.111002    63App    4.111191    83Ap     4.148072
      64App    4.148178    84Ap     4.173923    85Ap     4.203356
      65App    4.203560    86Ap     4.204085    66App    4.211203
      87Ap     4.315393    67App    4.316265    68App    4.358349
      88Ap     4.423160    69App    4.423408    70App    4.441457
      71App    4.516132    89Ap     4.518233    90Ap     4.578799
      72App    4.579196    91Ap     4.617909    92Ap     4.710731
      73App    4.774871    93Ap     4.775894    74App    4.838233
      94Ap     4.961552    75App    5.001613    95Ap     5.002525
      96Ap     5.227523    76App    5.246504    97Ap     5.246552
      98Ap     5.355395    77App    5.355938    78App    5.480569

    Beta Occupied:

       1App  -10.167854     1Ap   -10.167840     2Ap   -10.167792
       3Ap   -10.166478     4Ap    -0.781333     2App   -0.684026
       5Ap    -0.683960     6Ap    -0.511960     7Ap    -0.431197
       3App   -0.430986     8Ap    -0.421788     9Ap    -0.376690
       4App   -0.376371     5App   -0.362390     6App   -0.333381
      10Ap    -0.333210

    Beta Virtual:

      11Ap    -0.025912    12Ap     0.077077     7App    0.134971
      13Ap     0.135021     8App    0.144309    14Ap     0.144425
      15Ap     0.163486     9App    0.182184    16Ap     0.182415
      10App    0.214910    17Ap     0.219170    18Ap     0.282504
      11App    0.282606    19Ap     0.400237    12App    0.400560
      20Ap     0.419708    21Ap     0.426806    13App    0.426906
      22Ap     0.468758    23Ap     0.497623    14App    0.497673
      15App    0.513849    24Ap     0.556235    16App    0.584246
      25Ap     0.584402    17App    0.597580    26Ap     0.597827
      27Ap     0.609947    28Ap     0.628053    18App    0.631705
      19App    0.639498    29Ap     0.639717    20App    0.666940
      30Ap     0.667247    31Ap     0.686332    21App    0.686635
      32Ap     0.757309    33Ap     0.830602    22App    0.830622
      23App    0.855417    24App    0.922931    34Ap     0.922976
      25App    0.946016    35Ap     0.953867    26App    0.966448
      36Ap     0.966631    37Ap     1.008514    27App    1.132070
      38Ap     1.132347    39Ap     1.156055    28App    1.167684
      40Ap     1.167761    41Ap     1.232666    29App    1.280105
      42Ap     1.280391    43Ap     1.285250    30App    1.329303
      44Ap     1.329833    45Ap     1.365749    46Ap     1.371072
      31App    1.371681    32App    1.393026    33App    1.406701
      47Ap     1.406965    34App    1.421864    48Ap     1.422432
      35App    1.427915    36App    1.493077    49Ap     1.508962
      50Ap     1.547392    37App    1.547437    51Ap     1.582298
      38App    1.582508    52Ap     1.673884    39App    1.745288
      53Ap     1.746064    54Ap     1.779120    55Ap     1.834660
      40App    1.835039    41App    1.973195    42App    2.025620
      56Ap     2.026878    57Ap     2.039473    43App    2.059396
      58Ap     2.060101    44App    2.746928    59Ap     2.747000
      45App    2.811924    60Ap     2.816250    61Ap     2.902442
      46App    2.902978    62Ap     2.925096    63Ap     2.931811
      47App    2.931883    48App    2.960006    49App    2.968828
      64Ap     2.969015    65Ap     3.042160    66Ap     3.081080
      50App    3.081278    51App    3.086595    52App    3.184448
      67Ap     3.184632    68Ap     3.188836    53App    3.289807
      69Ap     3.289854    54App    3.331039    70Ap     3.331369
      71Ap     3.383371    72Ap     3.492690    55App    3.493285
      56App    3.512525    73Ap     3.528681    57App    3.574866
      58App    3.581848    74Ap     3.581957    59App    3.669943
      75Ap     3.670402    76Ap     3.692376    60App    3.725607
      77Ap     3.725929    61App    3.781428    78Ap     3.781469
      79Ap     3.817315    80Ap     3.923001    62App    3.923204
      81Ap     4.045824    82Ap     4.117968    63App    4.118048
      83Ap     4.155182    64App    4.155379    84Ap     4.188040
      65App    4.209496    85Ap     4.209807    86Ap     4.211579
      66App    4.215693    87Ap     4.322717    67App    4.323635
      68App    4.361735    88Ap     4.431454    69App    4.431677
      70App    4.444340    71App    4.523991    89Ap     4.526081
      90Ap     4.589434    72App    4.589802    91Ap     4.625121
      92Ap     4.721079    73App    4.781840    93Ap     4.782827
      74App    4.841147    94Ap     4.966369    75App    5.005692
      95Ap     5.006569    96Ap     5.233255    76App    5.248298
      97Ap     5.248346    98Ap     5.361905    77App    5.362446
      78App    5.482898

    Final Occupation by Irrep:
             Ap   App
    DOCC [    10,    6 ]
    SOCC [     1,    0 ]

  @DF-UKS Final Energy:  -157.81309210014822

   => Energetics <=

    Nuclear Repulsion Energy =            125.4225571818237910
    One-Electron Energy =                -458.8038784290607168
    Two-Electron Energy =                 195.8752555873532799
    DFT Exchange-Correlation Energy =     -20.3070264402645684
    Empirical Dispersion Energy =           0.0000000000000000
    VV10 Nonlocal Energy =                  0.0000000000000000
    Total Energy =                       -157.8130921001482250

  UHF NO Occupations:
  HONO-2 :    9 Ap 1.9995992
  HONO-1 :   10 Ap 1.9989827
  HONO-0 :   11 Ap 1.0000000
  LUNO+0 :   12 Ap 0.0010173
  LUNO+1 :   13 Ap 0.0004008
  LUNO+2 :   14 Ap 0.0001969
  LUNO+3 :    7App 0.0001967

Computation Completed

Properties will be evaluated at   0.000000,   0.000000,   0.000000 [a0]

Properties computed using the SCF density matrix

  Nuclear Dipole Moment: [e a0]
     X:     0.8280      Y:    -0.0012      Z:     0.0000

  Electronic Dipole Moment: [e a0]
     X:    -0.7502      Y:     0.0011      Z:     0.0000

  Dipole Moment: [e a0]
     X:     0.0778      Y:    -0.0001      Z:     0.0000     Total:     0.0778

  Dipole Moment: [D]
     X:     0.1977      Y:    -0.0003      Z:     0.0000     Total:     0.1977

*** tstop() called on n033 at Fri Nov  5 12:29:01 2021
Module time:
	user time   =     637.17 seconds =      10.62 minutes
	system time =      12.13 seconds =       0.20 minutes
	total time  =        163 seconds =       2.72 minutes
Total time:
	user time   =     637.17 seconds =      10.62 minutes
	system time =      12.13 seconds =       0.20 minutes
	total time  =        163 seconds =       2.72 minutes
Grab this energy -157.81309210014822
    Psi4 stopped on: Friday, 05 November 2021 12:29PM
    Psi4 wall time for execution: 0:02:43.24

*** Psi4 exiting successfully. Buy a developer a beer!
