                               Psi4 1.4a2.dev629

  ==> Input File <==

--------------------------------------------------------------------------
import os
memory 14 GB

molecule {
 C   -0.3233408937   -0.0000014984    0.0002248589
 C    0.0612844565   -1.4034558167   -2.4271605486
 C    0.0610201191    2.8017598323   -0.0011175741
 C    0.0609941038   -1.3983003280    2.4255989901
 H    2.0870046106   -1.6431836161   -2.8472841724
 H   -0.7652883672   -0.3874808648   -4.0251613344
 H   -0.7659063165   -3.2915642367   -2.3486647451
 H    2.0867985415    3.2881020946    0.0004356757
 H   -0.7655104946    3.6802004643    1.6767107157
 H   -0.7657816457    3.6803076979   -1.6762911036
 H    2.0868635719   -1.6450107623    2.8475961467
 H   -0.7652269150   -3.2924377900    2.3493184021
 H   -0.7655186473   -0.3889594897    4.0257946889
units bohr
0 2
}

basis {

assign 6-31g_2dfp_

[ 6-31g_2dfp_ ]

spherical

!----------------------------------------------------------------------
! Basis Set Exchange
! Version v0.8.13
! https://www.basissetexchange.org
!----------------------------------------------------------------------
!   Basis set: 6-31G(2df,p)
! Description: 6-31G(2df,p)
!        Role: orbital
!     Version: 0  (Data from the original Basis Set Exchange)
!----------------------------------------------------------------------

****
H     0
S    3   1.00
     18.7311370              0.03349460
      2.8253937              0.23472695
      0.6401217              0.81375733
S    1   1.00
      0.1612778              1.00000000
P    1   1.00
      1.5000000              1.0000000
P    1   1.00
      0.3750000              1.0000000
****
B     0
S    6   1.00
   2068.8823000              0.0018663
    310.6495700              0.0142515
     70.6830330              0.0695516
     19.8610800              0.2325729
      6.2993048              0.4670787
      2.1270270              0.3634314
SP   3   1.00
      4.7279710             -0.1303938              0.0745976
      1.1903377             -0.1307889              0.3078467
      0.3594117              1.1309444              0.7434568
SP   1   1.00
      0.1267512              1.0000000              1.0000000
D    1   1.00
      0.8020000              1.0000000
D    1   1.00
      0.2005000              1.0000000
F    1   1.00
      0.5000000              1.0000000
****
C     0
S    6   1.00
   3047.5249000              0.0018347
    457.3695100              0.0140373
    103.9486900              0.0688426
     29.2101550              0.2321844
      9.2866630              0.4679413
      3.1639270              0.3623120
SP   3   1.00
      7.8682724             -0.1193324              0.0689991
      1.8812885             -0.1608542              0.3164240
      0.5442493              1.1434564              0.7443083
SP   1   1.00
      0.1687144              1.0000000              1.0000000
D    1   1.00
      1.2520000              1.0000000
D    1   1.00
      0.3130000              1.0000000
F    1   1.00
      0.8000000              1.0000000
****
N     0
S    6   1.00
   4173.5110000              0.0018348
    627.4579000              0.0139950
    142.9021000              0.0685870
     40.2343300              0.2322410
     12.8202100              0.4690700
      4.3904370              0.3604550
SP   3   1.00
     11.6263580             -0.1149610              0.0675800
      2.7162800             -0.1691180              0.3239070
      0.7722180              1.1458520              0.7408950
SP   1   1.00
      0.2120313              1.0000000              1.0000000
D    1   1.00
      1.8260000              1.0000000
D    1   1.00
      0.4565000              1.0000000
F    1   1.00
      1.0000000              1.0000000
****
O     0
S    6   1.00
   5484.6717000              0.0018311
    825.2349500              0.0139501
    188.0469600              0.0684451
     52.9645000              0.2327143
     16.8975700              0.4701930
      5.7996353              0.3585209
SP   3   1.00
     15.5396160             -0.1107775              0.0708743
      3.5999336             -0.1480263              0.3397528
      1.0137618              1.1307670              0.7271586
SP   1   1.00
      0.2700058              1.0000000              1.0000000
D    1   1.00
      2.5840000              1.0000000
D    1   1.00
      0.6460000              1.0000000
F    1   1.00
      1.4000000              1.0000000
****
F     0
S    6   1.00
   7001.7130900              0.0018196169
   1051.3660900              0.0139160796
    239.2856900              0.0684053245
     67.3974453              0.233185760
     21.5199573              0.471267439
      7.40310130             0.356618546
SP   3   1.00
     20.8479528             -0.108506975            0.0716287243
      4.80830834            -0.146451658            0.3459121030
      1.34406986             1.128688580            0.7224699570
SP   1   1.00
      0.358151393            1.0000000              1.0000000
D    1   1.00
      3.5000000              1.0000000
D    1   1.00
      0.8750000              1.0000000
F    1   1.00
      1.8500000              1.0000000
****
Al     0
S    6   1.00
  13983.1000000              0.00194267
   2098.7500000              0.0148599
    477.7050000              0.0728494
    134.3600000              0.2468300
     42.8709000              0.4872580
     14.5189000              0.3234960
SP   6   1.00
    239.6680000             -0.00292619             0.00460285
     57.4419000             -0.0374080              0.0331990
     18.2859000             -0.1144870              0.1362820
      6.5991400              0.1156350              0.3304760
      2.4904900              0.6125950              0.4491460
      0.9445400              0.3937990              0.2657040
SP   3   1.00
      1.2779000             -0.2276060             -0.0175130
      0.3975900              0.00144583             0.2445330
      0.1600950              1.0927900              0.8049340
SP   1   1.00
      0.0556577              1.0000000              1.0000000
D    1   1.00
      0.6500000              1.0000000
D    1   1.00
      0.1625000              1.0000000
F    1   1.00
      0.2500000              1.0000000
****
Si     0
S    6   1.00
  16115.9000000              0.00195948
   2425.5800000              0.01492880
    553.8670000              0.07284780
    156.3400000              0.24613000
     50.0683000              0.48591400
     17.0178000              0.32500200
SP   6   1.00
    292.7180000             -0.00278094             0.00443826
     69.8731000             -0.03571460             0.03266790
     22.3363000             -0.11498500             0.13472100
      8.1503900              0.09356340             0.32867800
      3.1345800              0.60301700             0.44964000
      1.2254300              0.41895900             0.26137200
SP   3   1.00
      1.7273800             -0.24463000            -0.01779510
      0.5729220              0.00431572             0.25353900
      0.2221920              1.09818000             0.80066900
SP   1   1.00
      0.0778369              1.00000000             1.00000000
D    1   1.00
      0.9000000              1.0000000
D    1   1.00
      0.2250000              1.0000000
F    1   1.00
      0.3200000              1.0000000
****
P     0
S    6   1.00
  19413.3000000              0.0018516
   2909.4200000              0.0142062
    661.3640000              0.0699995
    185.7590000              0.2400790
     59.1943000              0.4847620
     20.0310000              0.3352000
SP   6   1.00
    339.4780000             -0.00278217             0.00456462
     81.0101000             -0.0360499              0.03369360
     25.8780000             -0.1166310              0.13975500
      9.4522100              0.0968328              0.33936200
      3.6656600              0.6144180              0.45092100
      1.4674600              0.4037980              0.23858600
SP   3   1.00
      2.1562300             -0.2529230             -0.01776530
      0.7489970              0.0328517              0.27405800
      0.2831450              1.0812500              0.78542100
SP   1   1.00
      0.0998317              1.0000000              1.00000000
D    1   1.00
      1.1000000              1.0000000
D    1   1.00
      0.2750000              1.0000000
F    1   1.00
      0.4500000              1.0000000
****
S     0
S    6   1.00
  21917.1000000              0.0018690
   3301.4900000              0.0142300
    754.1460000              0.0696960
    212.7110000              0.2384870
     67.9896000              0.4833070
     23.0515000              0.3380740
SP   6   1.00
    423.7350000             -0.0023767              0.0040610
    100.7100000             -0.0316930              0.0306810
     32.1599000             -0.1133170              0.1304520
     11.8079000              0.0560900              0.3272050
      4.6311000              0.5922550              0.4528510
      1.8702500              0.4550060              0.2560420
SP   3   1.00
      2.6158400             -0.2503740             -0.0145110
      0.9221670              0.0669570              0.3102630
      0.3412870              1.0545100              0.7544830
SP   1   1.00
      0.1171670              1.0000000              1.0000000
D    1   1.00
      1.3000000              1.0000000
D    1   1.00
      0.3250000              1.0000000
F    1   1.00
      0.5500000              1.0000000
****
Cl     0
S    6   1.00
  25180.1000000              0.0018330
   3780.3500000              0.0140340
    860.4740000              0.0690970
    242.1450000              0.2374520
     77.3349000              0.4830340
     26.2470000              0.3398560
SP   6   1.00
    491.7650000             -0.0022974              0.0039894
    116.9840000             -0.0307140              0.0303180
     37.4153000             -0.1125280              0.1298800
     13.7834000              0.0450160              0.3279510
      5.4521500              0.5893530              0.4535270
      2.2258800              0.4652060              0.2521540
SP   3   1.00
      3.1864900             -0.2518300             -0.0142990
      1.1442700              0.0615890              0.3235720
      0.4203770              1.0601800              0.7435070
SP   1   1.00
      0.1426570              1.0000000              1.0000000
D    1   1.00
      1.5000000              1.0000000
D    1   1.00
      0.3750000              1.0000000
F    1   1.00
      0.7000000              1.0000000
****
}

set {
reference uhf
freeze_core true
e_convergence 10
d_convergence 10
dft_spherical_points 1202
dft_radial_points 99
}

e = energy('b3lyp')

print_out('Grab this energy {0}'.format(e))
--------------------------------------------------------------------------

    Molecular point group: c1

    Geometry (in Bohr), charge = 0, multiplicity = 2:

       Center              X                  Y                   Z               Mass
    ------------   -----------------  -----------------  -----------------  -----------------
         C           -0.323340464293    -0.000001490694     0.000697569694    12.000000000000
         C            0.061284885907    -1.403455808994    -2.426687837806    12.000000000000
         C            0.061020548507     2.801759840006    -0.000644863306    12.000000000000
         C            0.060994533207    -1.398300320294     2.426071700894    12.000000000000
         H            2.087005040007    -1.643183608394    -2.846811461606     1.007825032230
         H           -0.765287937793    -0.387480857094    -4.024688623606     1.007825032230
         H           -0.765905887093    -3.291564228994    -2.348192034306     1.007825032230
         H            2.086798970907     3.288102102306     0.000908386494     1.007825032230
         H           -0.765510065193     3.680200472006     1.677183426494     1.007825032230
         H           -0.765781216293     3.680307705606    -1.675818392806     1.007825032230
         H            2.086864001307    -1.645010754594     2.848068857494     1.007825032230
         H           -0.765226485593    -3.292437782294     2.349791112894     1.007825032230
         H           -0.765518217893    -0.388959481994     4.026267399694     1.007825032230

  Charge       = 0
  Multiplicity = 2
  Basis Set: ANONYMOUS25164A2F
    Blend: 6-31G_2DFP_
  Basis Set: (ANONYMOUS25164A2F AUX)
    Blend: DEF2-UNIVERSAL-JKFIT

    Orbital Energies [Eh]
    ---------------------

    Alpha Occupied:

       1A    -10.180342     2A    -10.167058     3A    -10.167019
       4A    -10.166968     5A     -0.797766     6A     -0.686210
       7A     -0.686163     8A     -0.530776     9A     -0.441124
      10A     -0.434754    11A     -0.434590    12A     -0.382689
      13A     -0.382509    14A     -0.363612    15A     -0.338206
      16A     -0.337790    17A     -0.168961

    Alpha Virtual:

      18A      0.076072    19A      0.134137    20A      0.134173
      21A      0.142565    22A      0.142693    23A      0.154879
      24A      0.178697    25A      0.178861    26A      0.203543
      27A      0.214804    28A      0.275761    29A      0.276211
      30A      0.399218    31A      0.399238    32A      0.403346
      33A      0.424053    34A      0.424141    35A      0.456593
      36A      0.495367    37A      0.495411    38A      0.512153
      39A      0.513987    40A      0.578778    41A      0.578853
      42A      0.591574    43A      0.591695    44A      0.602573
      45A      0.624751    46A      0.631785    47A      0.636082
      48A      0.636413    49A      0.663350    50A      0.663472
      51A      0.683833    52A      0.683874    53A      0.734994
      54A      0.825353    55A      0.825462    56A      0.853916
      57A      0.915011    58A      0.915042    59A      0.944125
      60A      0.944615    61A      0.961258    62A      0.961326
      63A      1.003452    64A      1.128032    65A      1.128181
      66A      1.142225    67A      1.162983    68A      1.163556
      69A      1.223322    70A      1.274180    71A      1.274783
      72A      1.279370    73A      1.324291    74A      1.324421
      75A      1.355982    76A      1.365909    77A      1.366213
      78A      1.392458    79A      1.403874    80A      1.404227
      81A      1.416949    82A      1.417257    83A      1.427917
      84A      1.491451    85A      1.499126    86A      1.542755
      87A      1.542897    88A      1.574257    89A      1.574644
      90A      1.669820    91A      1.739286    92A      1.739559
      93A      1.768323    94A      1.830891    95A      1.831902
      96A      1.971730    97A      2.018209    98A      2.018578
      99A      2.019606   100A      2.051962   101A      2.053324
     102A      2.738365   103A      2.738607   104A      2.790916
     105A      2.811433   106A      2.889871   107A      2.890025
     108A      2.894946   109A      2.929436   110A      2.929558
     111A      2.958995   112A      2.964299   113A      2.964457
     114A      3.034009   115A      3.071149   116A      3.071420
     117A      3.084349   118A      3.168584   119A      3.168963
     120A      3.180606   121A      3.285303   122A      3.285323
     123A      3.326975   124A      3.327349   125A      3.375615
     126A      3.489826   127A      3.490486   128A      3.513985
     129A      3.525354   130A      3.568308   131A      3.568475
     132A      3.575148   133A      3.665684   134A      3.667048
     135A      3.679668   136A      3.694013   137A      3.694252
     138A      3.776624   139A      3.776989   140A      3.789120
     141A      3.911475   142A      3.912974   143A      4.034453
     144A      4.111216   145A      4.111530   146A      4.147827
     147A      4.148423   148A      4.173245   149A      4.202322
     150A      4.202906   151A      4.203567   152A      4.210862
     153A      4.315221   154A      4.316666   155A      4.358977
     156A      4.423477   157A      4.425340   158A      4.443521
     159A      4.516191   160A      4.517500   161A      4.578249
     162A      4.578293   163A      4.617537   164A      4.709456
     165A      4.774260   166A      4.774893   167A      4.836925
     168A      4.962830   169A      5.002255   170A      5.003679
     171A      5.228041   172A      5.246617   173A      5.247014
     174A      5.355439   175A      5.355568   176A      5.479350

    Beta Occupied:

       1A    -10.167816     2A    -10.167776     3A    -10.167732
       4A    -10.166519     5A     -0.781091     6A     -0.684018
       7A     -0.683961     8A     -0.511748     9A     -0.431126
      10A     -0.430959    11A     -0.421822    12A     -0.376794
      13A     -0.376574    14A     -0.362595    15A     -0.333330
      16A     -0.332912

    Beta Virtual:

      17A     -0.025743    18A      0.077081    19A      0.135041
      20A      0.135048    21A      0.144452    22A      0.144547
      23A      0.163338    24A      0.182380    25A      0.182520
      26A      0.215027    27A      0.218933    28A      0.282118
      29A      0.282550    30A      0.400390    31A      0.400405
      32A      0.419791    33A      0.426863    34A      0.426953
      35A      0.468501    36A      0.497622    37A      0.497679
      38A      0.513895    39A      0.556325    40A      0.584323
      41A      0.584408    42A      0.597754    43A      0.597875
      44A      0.609997    45A      0.628119    46A      0.631949
      47A      0.639372    48A      0.639694    49A      0.666908
      50A      0.667042    51A      0.686480    52A      0.686497
      53A      0.757517    54A      0.830516    55A      0.830636
      56A      0.855269    57A      0.922980    58A      0.923015
      59A      0.945963    60A      0.953542    61A      0.966567
      62A      0.966628    63A      1.008692    64A      1.132066
      65A      1.132207    66A      1.155597    67A      1.168039
      68A      1.168649    69A      1.232295    70A      1.279773
      71A      1.280384    72A      1.285124    73A      1.329294
      74A      1.329396    75A      1.365395    76A      1.371179
      77A      1.371428    78A      1.393520    79A      1.407391
      80A      1.407642    81A      1.422015    82A      1.422286
      83A      1.428192    84A      1.492519    85A      1.509549
      86A      1.547154    87A      1.547312    88A      1.582124
      89A      1.582522    90A      1.674666    91A      1.745043
      92A      1.745324    93A      1.779104    94A      1.834756
      95A      1.835747    96A      1.972590    97A      2.024908
      98A      2.025997    99A      2.039661   100A      2.058679
     101A      2.060043   102A      2.746723   103A      2.746920
     104A      2.811804   105A      2.816093   106A      2.902584
     107A      2.902693   108A      2.924646   109A      2.931934
     110A      2.932026   111A      2.960058   112A      2.968829
     113A      2.969016   114A      3.041944   115A      3.081064
     116A      3.081323   117A      3.086170   118A      3.184297
     119A      3.184705   120A      3.188333   121A      3.290094
     122A      3.290128   123A      3.330787   124A      3.331145
     125A      3.383434   126A      3.492534   127A      3.493238
     128A      3.512358   129A      3.528391   130A      3.575004
     131A      3.581632   132A      3.581834   133A      3.670405
     134A      3.671830   135A      3.692961   136A      3.725632
     137A      3.725893   138A      3.781105   139A      3.781556
     140A      3.817667   141A      3.921342   142A      3.922740
     143A      4.045341   144A      4.117929   145A      4.118446
     146A      4.155132   147A      4.155537   148A      4.187305
     149A      4.208556   150A      4.209354   151A      4.210724
     152A      4.215340   153A      4.322633   154A      4.324134
     155A      4.362340   156A      4.431712   157A      4.433509
     158A      4.446433   159A      4.523985   160A      4.525283
     161A      4.588835   162A      4.588911   163A      4.624730
     164A      4.719800   165A      4.781232   166A      4.781826
     167A      4.839843   168A      4.967625   169A      5.006309
     170A      5.007703   171A      5.233756   172A      5.248408
     173A      5.248791   174A      5.361898   175A      5.362070
     176A      5.481672

    Final Occupation by Irrep:
              A
    DOCC [    16 ]
    SOCC [     1 ]

  @DF-UKS Final Energy:  -157.81306928638108

   => Energetics <=

    Nuclear Repulsion Energy =            125.3946029070817900
    One-Electron Energy =                -458.7488694954338371
    Two-Electron Energy =                 195.8483399250541765
    DFT Exchange-Correlation Energy =     -20.3071426230832017
    Empirical Dispersion Energy =           0.0000000000000000
    VV10 Nonlocal Energy =                  0.0000000000000000
    Total Energy =                       -157.8130692863810793

  UHF NO Occupations:
  HONO-2 :   15  A 1.9996009
  HONO-1 :   16  A 1.9989805
  HONO-0 :   17  A 1.0000000
  LUNO+0 :   18  A 0.0010195
  LUNO+1 :   19  A 0.0003991
  LUNO+2 :   20  A 0.0001979
  LUNO+3 :   21  A 0.0001972

Computation Completed

Properties will be evaluated at   0.000000,   0.000000,   0.000000 [a0]

Properties computed using the SCF density matrix

  Nuclear Dipole Moment: [e a0]
     X:     0.8272      Y:    -0.0000      Z:     0.0033

  Electronic Dipole Moment: [e a0]
     X:    -0.7493      Y:     0.0000      Z:    -0.0034

  Dipole Moment: [e a0]
     X:     0.0779      Y:     0.0000      Z:    -0.0001     Total:     0.0779

  Dipole Moment: [D]
     X:     0.1980      Y:     0.0000      Z:    -0.0002     Total:     0.1980

*** tstop() called on n059 at Fri Nov  5 12:42:27 2021
Module time:
	user time   =     621.48 seconds =      10.36 minutes
	system time =      14.77 seconds =       0.25 minutes
	total time  =        160 seconds =       2.67 minutes
Total time:
	user time   =     621.48 seconds =      10.36 minutes
	system time =      14.77 seconds =       0.25 minutes
	total time  =        160 seconds =       2.67 minutes
Grab this energy -157.81306928638108
    Psi4 stopped on: Friday, 05 November 2021 12:42PM
    Psi4 wall time for execution: 0:02:39.97

*** Psi4 exiting successfully. Buy a developer a beer!
