                               Psi4 1.4a2.dev629

  ==> Input File <==

--------------------------------------------------------------------------
import os
memory 14 GB

molecule {
 C   -0.3223170734    0.0024269290    0.0000000000
 C    0.0625973832   -1.4001750178   -2.4273319027
 C    0.0612828133    2.8003531290    0.0000000000
 C    0.0625973832   -1.4001750178    2.4273319027
 H    2.0849066367   -1.6461878338   -2.8452744852
 H   -0.7599601221   -0.3858937446   -4.0316797788
 H   -0.7676807451   -3.2910170748   -2.3486151260
 H    2.0809148674    3.2884951213   -0.0000000000
 H   -0.7661073947    3.6776239245    1.6790918502
 H   -0.7661073947    3.6776239245   -1.6790918502
 H    2.0849066367   -1.6461878338    2.8452744852
 H   -0.7676807451   -3.2910170748    2.3486151260
 H   -0.7599601221   -0.3858937446    4.0316797788
units bohr
0 2
}

basis {

assign 6-31g_2dfp_

[ 6-31g_2dfp_ ]

spherical

!----------------------------------------------------------------------
! Basis Set Exchange
! Version v0.8.13
! https://www.basissetexchange.org
!----------------------------------------------------------------------
!   Basis set: 6-31G(2df,p)
! Description: 6-31G(2df,p)
!        Role: orbital
!     Version: 0  (Data from the original Basis Set Exchange)
!----------------------------------------------------------------------

****
H     0
S    3   1.00
     18.7311370              0.03349460
      2.8253937              0.23472695
      0.6401217              0.81375733
S    1   1.00
      0.1612778              1.00000000
P    1   1.00
      1.5000000              1.0000000
P    1   1.00
      0.3750000              1.0000000
****
B     0
S    6   1.00
   2068.8823000              0.0018663
    310.6495700              0.0142515
     70.6830330              0.0695516
     19.8610800              0.2325729
      6.2993048              0.4670787
      2.1270270              0.3634314
SP   3   1.00
      4.7279710             -0.1303938              0.0745976
      1.1903377             -0.1307889              0.3078467
      0.3594117              1.1309444              0.7434568
SP   1   1.00
      0.1267512              1.0000000              1.0000000
D    1   1.00
      0.8020000              1.0000000
D    1   1.00
      0.2005000              1.0000000
F    1   1.00
      0.5000000              1.0000000
****
C     0
S    6   1.00
   3047.5249000              0.0018347
    457.3695100              0.0140373
    103.9486900              0.0688426
     29.2101550              0.2321844
      9.2866630              0.4679413
      3.1639270              0.3623120
SP   3   1.00
      7.8682724             -0.1193324              0.0689991
      1.8812885             -0.1608542              0.3164240
      0.5442493              1.1434564              0.7443083
SP   1   1.00
      0.1687144              1.0000000              1.0000000
D    1   1.00
      1.2520000              1.0000000
D    1   1.00
      0.3130000              1.0000000
F    1   1.00
      0.8000000              1.0000000
****
N     0
S    6   1.00
   4173.5110000              0.0018348
    627.4579000              0.0139950
    142.9021000              0.0685870
     40.2343300              0.2322410
     12.8202100              0.4690700
      4.3904370              0.3604550
SP   3   1.00
     11.6263580             -0.1149610              0.0675800
      2.7162800             -0.1691180              0.3239070
      0.7722180              1.1458520              0.7408950
SP   1   1.00
      0.2120313              1.0000000              1.0000000
D    1   1.00
      1.8260000              1.0000000
D    1   1.00
      0.4565000              1.0000000
F    1   1.00
      1.0000000              1.0000000
****
O     0
S    6   1.00
   5484.6717000              0.0018311
    825.2349500              0.0139501
    188.0469600              0.0684451
     52.9645000              0.2327143
     16.8975700              0.4701930
      5.7996353              0.3585209
SP   3   1.00
     15.5396160             -0.1107775              0.0708743
      3.5999336             -0.1480263              0.3397528
      1.0137618              1.1307670              0.7271586
SP   1   1.00
      0.2700058              1.0000000              1.0000000
D    1   1.00
      2.5840000              1.0000000
D    1   1.00
      0.6460000              1.0000000
F    1   1.00
      1.4000000              1.0000000
****
F     0
S    6   1.00
   7001.7130900              0.0018196169
   1051.3660900              0.0139160796
    239.2856900              0.0684053245
     67.3974453              0.233185760
     21.5199573              0.471267439
      7.40310130             0.356618546
SP   3   1.00
     20.8479528             -0.108506975            0.0716287243
      4.80830834            -0.146451658            0.3459121030
      1.34406986             1.128688580            0.7224699570
SP   1   1.00
      0.358151393            1.0000000              1.0000000
D    1   1.00
      3.5000000              1.0000000
D    1   1.00
      0.8750000              1.0000000
F    1   1.00
      1.8500000              1.0000000
****
Al     0
S    6   1.00
  13983.1000000              0.00194267
   2098.7500000              0.0148599
    477.7050000              0.0728494
    134.3600000              0.2468300
     42.8709000              0.4872580
     14.5189000              0.3234960
SP   6   1.00
    239.6680000             -0.00292619             0.00460285
     57.4419000             -0.0374080              0.0331990
     18.2859000             -0.1144870              0.1362820
      6.5991400              0.1156350              0.3304760
      2.4904900              0.6125950              0.4491460
      0.9445400              0.3937990              0.2657040
SP   3   1.00
      1.2779000             -0.2276060             -0.0175130
      0.3975900              0.00144583             0.2445330
      0.1600950              1.0927900              0.8049340
SP   1   1.00
      0.0556577              1.0000000              1.0000000
D    1   1.00
      0.6500000              1.0000000
D    1   1.00
      0.1625000              1.0000000
F    1   1.00
      0.2500000              1.0000000
****
Si     0
S    6   1.00
  16115.9000000              0.00195948
   2425.5800000              0.01492880
    553.8670000              0.07284780
    156.3400000              0.24613000
     50.0683000              0.48591400
     17.0178000              0.32500200
SP   6   1.00
    292.7180000             -0.00278094             0.00443826
     69.8731000             -0.03571460             0.03266790
     22.3363000             -0.11498500             0.13472100
      8.1503900              0.09356340             0.32867800
      3.1345800              0.60301700             0.44964000
      1.2254300              0.41895900             0.26137200
SP   3   1.00
      1.7273800             -0.24463000            -0.01779510
      0.5729220              0.00431572             0.25353900
      0.2221920              1.09818000             0.80066900
SP   1   1.00
      0.0778369              1.00000000             1.00000000
D    1   1.00
      0.9000000              1.0000000
D    1   1.00
      0.2250000              1.0000000
F    1   1.00
      0.3200000              1.0000000
****
P     0
S    6   1.00
  19413.3000000              0.0018516
   2909.4200000              0.0142062
    661.3640000              0.0699995
    185.7590000              0.2400790
     59.1943000              0.4847620
     20.0310000              0.3352000
SP   6   1.00
    339.4780000             -0.00278217             0.00456462
     81.0101000             -0.0360499              0.03369360
     25.8780000             -0.1166310              0.13975500
      9.4522100              0.0968328              0.33936200
      3.6656600              0.6144180              0.45092100
      1.4674600              0.4037980              0.23858600
SP   3   1.00
      2.1562300             -0.2529230             -0.01776530
      0.7489970              0.0328517              0.27405800
      0.2831450              1.0812500              0.78542100
SP   1   1.00
      0.0998317              1.0000000              1.00000000
D    1   1.00
      1.1000000              1.0000000
D    1   1.00
      0.2750000              1.0000000
F    1   1.00
      0.4500000              1.0000000
****
S     0
S    6   1.00
  21917.1000000              0.0018690
   3301.4900000              0.0142300
    754.1460000              0.0696960
    212.7110000              0.2384870
     67.9896000              0.4833070
     23.0515000              0.3380740
SP   6   1.00
    423.7350000             -0.0023767              0.0040610
    100.7100000             -0.0316930              0.0306810
     32.1599000             -0.1133170              0.1304520
     11.8079000              0.0560900              0.3272050
      4.6311000              0.5922550              0.4528510
      1.8702500              0.4550060              0.2560420
SP   3   1.00
      2.6158400             -0.2503740             -0.0145110
      0.9221670              0.0669570              0.3102630
      0.3412870              1.0545100              0.7544830
SP   1   1.00
      0.1171670              1.0000000              1.0000000
D    1   1.00
      1.3000000              1.0000000
D    1   1.00
      0.3250000              1.0000000
F    1   1.00
      0.5500000              1.0000000
****
Cl     0
S    6   1.00
  25180.1000000              0.0018330
   3780.3500000              0.0140340
    860.4740000              0.0690970
    242.1450000              0.2374520
     77.3349000              0.4830340
     26.2470000              0.3398560
SP   6   1.00
    491.7650000             -0.0022974              0.0039894
    116.9840000             -0.0307140              0.0303180
     37.4153000             -0.1125280              0.1298800
     13.7834000              0.0450160              0.3279510
      5.4521500              0.5893530              0.4535270
      2.2258800              0.4652060              0.2521540
SP   3   1.00
      3.1864900             -0.2518300             -0.0142990
      1.1442700              0.0615890              0.3235720
      0.4203770              1.0601800              0.7435070
SP   1   1.00
      0.1426570              1.0000000              1.0000000
D    1   1.00
      1.5000000              1.0000000
D    1   1.00
      0.3750000              1.0000000
F    1   1.00
      0.7000000              1.0000000
****
}

set {
reference uhf
freeze_core true
e_convergence 10
d_convergence 10
dft_spherical_points 1202
dft_radial_points 99
}

e = energy('b3lyp')

print_out('Grab this energy {0}'.format(e))
--------------------------------------------------------------------------

    Molecular point group: cs

    Geometry (in Bohr), charge = 0, multiplicity = 2:

       Center              X                  Y                   Z               Mass
    ------------   -----------------  -----------------  -----------------  -----------------
         C           -0.323126118249     0.001959318547     0.000000000000    12.000000000000
         C            0.061788338351    -1.400642628253    -2.427331902700    12.000000000000
         C            0.060473768451     2.799885518547     0.000000000000    12.000000000000
         C            0.061788338351    -1.400642628253     2.427331902700    12.000000000000
         H            2.084097591851    -1.646655444253    -2.845274485200     1.007825032230
         H           -0.760769166949    -0.386361355053    -4.031679778800     1.007825032230
         H           -0.768489789949    -3.291484685253    -2.348615126000     1.007825032230
         H            2.080105822551     3.288027510847     0.000000000000     1.007825032230
         H           -0.766916439549     3.677156314047     1.679091850200     1.007825032230
         H           -0.766916439549     3.677156314047    -1.679091850200     1.007825032230
         H            2.084097591851    -1.646655444253     2.845274485200     1.007825032230
         H           -0.768489789949    -3.291484685253     2.348615126000     1.007825032230
         H           -0.760769166949    -0.386361355053     4.031679778800     1.007825032230

  Charge       = 0
  Multiplicity = 2
  Basis Set: ANONYMOUS58135B8D
    Blend: 6-31G_2DFP_
  Basis Set: (ANONYMOUS58135B8D AUX)
    Blend: DEF2-UNIVERSAL-JKFIT

    Orbital Energies [Eh]
    ---------------------

    Alpha Occupied:

       1Ap   -10.180284     1App  -10.167135     2Ap   -10.167106
       3Ap   -10.166794     4Ap    -0.797805     5Ap    -0.686337
       2App   -0.686051     6Ap    -0.530787     7Ap    -0.441221
       3App   -0.434700     8Ap    -0.434557     9Ap    -0.382778
       4App   -0.382691     5App   -0.363432    10Ap    -0.338094
       6App   -0.337796    11Ap    -0.168924

    Alpha Virtual:

      12Ap     0.075987     7App    0.134085    13Ap     0.134211
      14Ap     0.142547     8App    0.142577    15Ap     0.155045
      16Ap     0.178953     9App    0.178958    17Ap     0.203589
      10App    0.214528    11App    0.275674    18Ap     0.276347
      19Ap     0.399341    12App    0.399344    20Ap     0.403439
      13App    0.423874    21Ap     0.423945    22Ap     0.456671
      23Ap     0.495160    14App    0.495262    15App    0.512279
      24Ap     0.514132    16App    0.578785    25Ap     0.579171
      17App    0.591687    26Ap     0.592125    27Ap     0.603326
      28Ap     0.624260    18App    0.631384    19App    0.635787
      29Ap     0.635970    20App    0.663705    30Ap     0.664113
      31Ap     0.683582    21App    0.683626    32Ap     0.734933
      22App    0.825408    33Ap     0.825470    23App    0.854196
      24App    0.915115    34Ap     0.915383    25App    0.943837
      35Ap     0.944470    26App    0.961346    36Ap     0.961444
      37Ap     1.003641    38Ap     1.127791    27App    1.127909
      39Ap     1.142929    40Ap     1.162898    28App    1.163134
      41Ap     1.222913    29App    1.274551    42Ap     1.274911
      43Ap     1.279522    30App    1.324444    44Ap     1.324686
      45Ap     1.355458    31App    1.365810    46Ap     1.366416
      32App    1.392491    33App    1.404732    47Ap     1.405410
      34App    1.415896    48Ap     1.416397    35App    1.428131
      36App    1.491513    49Ap     1.500035    37App    1.543073
      50Ap     1.543335    51Ap     1.573851    38App    1.574294
      52Ap     1.668565    39App    1.740004    53Ap     1.740536
      54Ap     1.770166    40App    1.829586    55Ap     1.830406
      41App    1.970710    56Ap     2.018245    42App    2.018946
      57Ap     2.019074    43App    2.053003    58Ap     2.055038
      44App    2.738113    59Ap     2.738217    60Ap     2.791322
      45App    2.810965    46App    2.889921    61Ap     2.890678
      62Ap     2.895338    63Ap     2.929119    47App    2.929464
      48App    2.959132    64Ap     2.964529    49App    2.965078
      65Ap     3.034709    50App    3.071017    66Ap     3.071617
      51App    3.082952    52App    3.168869    67Ap     3.168922
      68Ap     3.180669    53App    3.285367    69Ap     3.285459
      54App    3.326095    70Ap     3.326968    71Ap     3.375439
      55App    3.490139    72Ap     3.490652    56App    3.515216
      73Ap     3.524130    57App    3.567950    74Ap     3.569646
      58App    3.575978    75Ap     3.666506    59App    3.666980
      76Ap     3.679069    60App    3.693581    77Ap     3.694298
      78Ap     3.775007    61App    3.777731    79Ap     3.789948
      62App    3.911182    80Ap     3.912166    81Ap     4.033981
      63App    4.110378    82Ap     4.112427    64App    4.148131
      83Ap     4.149253    84Ap     4.174918    65App    4.201773
      85Ap     4.202379    86Ap     4.203120    66App    4.212001
      67App    4.315906    87Ap     4.316955    68App    4.357767
      88Ap     4.424682    69App    4.425682    70App    4.443210
      71App    4.516748    89Ap     4.518245    72App    4.576926
      90Ap     4.578231    91Ap     4.617625    92Ap     4.710006
      93Ap     4.773931    73App    4.775082    74App    4.835548
      94Ap     4.962546    75App    5.003621    95Ap     5.004902
      96Ap     5.230781    97Ap     5.243694    76App    5.243934
      77App    5.356546    98Ap     5.358459    78App    5.477403

    Beta Occupied:

       1App  -10.167886     1Ap   -10.167868     2Ap   -10.167556
       3Ap   -10.166455     4Ap    -0.781123     5Ap    -0.684115
       2App   -0.683852     6Ap    -0.511709     3App   -0.431053
       7Ap    -0.430896     8Ap    -0.421977     9Ap    -0.376878
       4App   -0.376813     5App   -0.362407    10Ap    -0.333221
       6App   -0.332922

    Beta Virtual:

      11Ap    -0.025615    12Ap     0.076980     7App    0.134905
      13Ap     0.135037    14Ap     0.144430     8App    0.144479
      15Ap     0.163483     9App    0.182650    16Ap     0.182660
      10App    0.214765    17Ap     0.218973    11App    0.282028
      18Ap     0.282679    19Ap     0.400511    12App    0.400516
      20Ap     0.419781    13App    0.426673    21Ap     0.426770
      22Ap     0.468679    23Ap     0.497418    14App    0.497506
      15App    0.514006    24Ap     0.556515    16App    0.584295
      25Ap     0.584705    17App    0.597895    26Ap     0.598292
      27Ap     0.610609    28Ap     0.627778    18App    0.631543
      19App    0.639088    29Ap     0.639318    20App    0.667249
      30Ap     0.667634    31Ap     0.686242    21App    0.686261
      32Ap     0.757459    22App    0.830583    33Ap     0.830589
      23App    0.855540    24App    0.923065    34Ap     0.923339
      25App    0.945681    35Ap     0.953348    26App    0.966657
      36Ap     0.966815    37Ap     1.008920    38Ap     1.131733
      27App    1.131953    39Ap     1.156223    40Ap     1.168062
      28App    1.168167    41Ap     1.231902    29App    1.280165
      42Ap     1.280532    43Ap     1.285336    30App    1.329399
      44Ap     1.329616    45Ap     1.364893    31App    1.371023
      46Ap     1.371552    32App    1.393533    33App    1.408217
      47Ap     1.408952    34App    1.420993    48Ap     1.421478
      35App    1.428394    36App    1.492587    49Ap     1.510471
      37App    1.547480    50Ap     1.547678    51Ap     1.581787
      38App    1.582139    52Ap     1.673362    39App    1.745756
      53Ap     1.746317    54Ap     1.780959    40App    1.833432
      55Ap     1.834267    41App    1.971583    42App    2.025449
      56Ap     2.025497    57Ap     2.039782    43App    2.059625
      58Ap     2.061606    44App    2.746413    59Ap     2.746572
      45App    2.811375    60Ap     2.816494    46App    2.902692
      61Ap     2.903389    62Ap     2.925165    63Ap     2.931624
      47App    2.931940    48App    2.960197    64Ap     2.969126
      49App    2.969641    65Ap     3.042432    50App    3.080981
      66Ap     3.081498    51App    3.084769    52App    3.184535
      67Ap     3.184668    68Ap     3.188422    53App    3.290130
      69Ap     3.290230    54App    3.329943    70Ap     3.330801
      71Ap     3.383283    55App    3.492888    72Ap     3.493444
      56App    3.513586    73Ap     3.527191    57App    3.575827
      58App    3.581159    74Ap     3.582776    75Ap     3.671507
      59App    3.671694    76Ap     3.692368    60App    3.725371
      77Ap     3.725762    78Ap     3.779666    61App    3.782276
      79Ap     3.818448    62App    3.920986    80Ap     3.921882
      81Ap     4.044806    63App    4.117192    82Ap     4.119235
      64App    4.155414    83Ap     4.156404    84Ap     4.188948
      65App    4.207587    85Ap     4.208469    86Ap     4.210899
      66App    4.216353    67App    4.323375    87Ap     4.324485
      68App    4.361174    88Ap     4.432923    69App    4.433867
      70App    4.446149    71App    4.524516    89Ap     4.525987
      72App    4.587566    90Ap     4.588874    91Ap     4.624915
      92Ap     4.720233    93Ap     4.780976    73App    4.782044
      74App    4.838476    94Ap     4.967329    75App    5.007617
      95Ap     5.008935    96Ap     5.236530    97Ap     5.245482
      76App    5.245744    77App    5.363032    98Ap     5.364988
      78App    5.479737

    Final Occupation by Irrep:
             Ap   App
    DOCC [    10,    6 ]
    SOCC [     1,    0 ]

  @DF-UKS Final Energy:  -157.81305520310437

   => Energetics <=

    Nuclear Repulsion Energy =            125.4000368952338675
    One-Electron Energy =                -458.7597197151303590
    Two-Electron Energy =                 195.8538863306129656
    DFT Exchange-Correlation Energy =     -20.3072587138208682
    Empirical Dispersion Energy =           0.0000000000000000
    VV10 Nonlocal Energy =                  0.0000000000000000
    Total Energy =                       -157.8130552031043692

  UHF NO Occupations:
  HONO-2 :    9 Ap 1.9996032
  HONO-1 :   10 Ap 1.9989813
  HONO-0 :   11 Ap 1.0000000
  LUNO+0 :   12 Ap 0.0010187
  LUNO+1 :   13 Ap 0.0003968
  LUNO+2 :    7App 0.0001981
  LUNO+3 :   14 Ap 0.0001970

Computation Completed

Properties will be evaluated at   0.000000,   0.000000,   0.000000 [a0]

Properties computed using the SCF density matrix

  Nuclear Dipole Moment: [e a0]
     X:     0.8215      Y:    -0.0033      Z:    -0.0000

  Electronic Dipole Moment: [e a0]
     X:    -0.7404      Y:     0.0033      Z:     0.0000

  Dipole Moment: [e a0]
     X:     0.0811      Y:    -0.0000      Z:    -0.0000     Total:     0.0811

  Dipole Moment: [D]
     X:     0.2061      Y:    -0.0001      Z:    -0.0000     Total:     0.2061

*** tstop() called on n073 at Fri Nov  5 14:52:47 2021
Module time:
	user time   =     565.20 seconds =       9.42 minutes
	system time =      12.72 seconds =       0.21 minutes
	total time  =        145 seconds =       2.42 minutes
Total time:
	user time   =     565.20 seconds =       9.42 minutes
	system time =      12.72 seconds =       0.21 minutes
	total time  =        145 seconds =       2.42 minutes
Grab this energy -157.81305520310437
    Psi4 stopped on: Friday, 05 November 2021 02:52PM
    Psi4 wall time for execution: 0:02:25.37

*** Psi4 exiting successfully. Buy a developer a beer!
