                               Psi4 1.4a2.dev629

  ==> Input File <==

--------------------------------------------------------------------------
import os
memory 14 GB

molecule {
 C   -0.3233400476    0.0010182368    0.0004966704
 C    0.0619564994   -1.4024533429   -2.4256017865
 C    0.0617687802    2.8013646402    0.0003839394
 C    0.0595732916   -1.4022042138    2.4259378222
 H    2.0834050948   -1.6438449255   -2.8480172008
 H   -0.7641125148   -0.3855250879   -4.0271158469
 H   -0.7633411479   -3.2939259188   -2.3476015843
 H    2.0867176295    3.2881977075    0.0001820112
 H   -0.7646607024    3.6798665207    1.6761046789
 H   -0.7670588070    3.6807967628   -1.6767065086
 H    2.0905490439   -1.6432498955    2.8473759757
 H   -0.7678376585   -3.2897725089    2.3506314002
 H   -0.7662273381   -0.3902922881    4.0239304292
units bohr
0 2
}

basis {

assign 6-31g_2dfp_

[ 6-31g_2dfp_ ]

spherical

!----------------------------------------------------------------------
! Basis Set Exchange
! Version v0.8.13
! https://www.basissetexchange.org
!----------------------------------------------------------------------
!   Basis set: 6-31G(2df,p)
! Description: 6-31G(2df,p)
!        Role: orbital
!     Version: 0  (Data from the original Basis Set Exchange)
!----------------------------------------------------------------------

****
H     0
S    3   1.00
     18.7311370              0.03349460
      2.8253937              0.23472695
      0.6401217              0.81375733
S    1   1.00
      0.1612778              1.00000000
P    1   1.00
      1.5000000              1.0000000
P    1   1.00
      0.3750000              1.0000000
****
B     0
S    6   1.00
   2068.8823000              0.0018663
    310.6495700              0.0142515
     70.6830330              0.0695516
     19.8610800              0.2325729
      6.2993048              0.4670787
      2.1270270              0.3634314
SP   3   1.00
      4.7279710             -0.1303938              0.0745976
      1.1903377             -0.1307889              0.3078467
      0.3594117              1.1309444              0.7434568
SP   1   1.00
      0.1267512              1.0000000              1.0000000
D    1   1.00
      0.8020000              1.0000000
D    1   1.00
      0.2005000              1.0000000
F    1   1.00
      0.5000000              1.0000000
****
C     0
S    6   1.00
   3047.5249000              0.0018347
    457.3695100              0.0140373
    103.9486900              0.0688426
     29.2101550              0.2321844
      9.2866630              0.4679413
      3.1639270              0.3623120
SP   3   1.00
      7.8682724             -0.1193324              0.0689991
      1.8812885             -0.1608542              0.3164240
      0.5442493              1.1434564              0.7443083
SP   1   1.00
      0.1687144              1.0000000              1.0000000
D    1   1.00
      1.2520000              1.0000000
D    1   1.00
      0.3130000              1.0000000
F    1   1.00
      0.8000000              1.0000000
****
N     0
S    6   1.00
   4173.5110000              0.0018348
    627.4579000              0.0139950
    142.9021000              0.0685870
     40.2343300              0.2322410
     12.8202100              0.4690700
      4.3904370              0.3604550
SP   3   1.00
     11.6263580             -0.1149610              0.0675800
      2.7162800             -0.1691180              0.3239070
      0.7722180              1.1458520              0.7408950
SP   1   1.00
      0.2120313              1.0000000              1.0000000
D    1   1.00
      1.8260000              1.0000000
D    1   1.00
      0.4565000              1.0000000
F    1   1.00
      1.0000000              1.0000000
****
O     0
S    6   1.00
   5484.6717000              0.0018311
    825.2349500              0.0139501
    188.0469600              0.0684451
     52.9645000              0.2327143
     16.8975700              0.4701930
      5.7996353              0.3585209
SP   3   1.00
     15.5396160             -0.1107775              0.0708743
      3.5999336             -0.1480263              0.3397528
      1.0137618              1.1307670              0.7271586
SP   1   1.00
      0.2700058              1.0000000              1.0000000
D    1   1.00
      2.5840000              1.0000000
D    1   1.00
      0.6460000              1.0000000
F    1   1.00
      1.4000000              1.0000000
****
F     0
S    6   1.00
   7001.7130900              0.0018196169
   1051.3660900              0.0139160796
    239.2856900              0.0684053245
     67.3974453              0.233185760
     21.5199573              0.471267439
      7.40310130             0.356618546
SP   3   1.00
     20.8479528             -0.108506975            0.0716287243
      4.80830834            -0.146451658            0.3459121030
      1.34406986             1.128688580            0.7224699570
SP   1   1.00
      0.358151393            1.0000000              1.0000000
D    1   1.00
      3.5000000              1.0000000
D    1   1.00
      0.8750000              1.0000000
F    1   1.00
      1.8500000              1.0000000
****
Al     0
S    6   1.00
  13983.1000000              0.00194267
   2098.7500000              0.0148599
    477.7050000              0.0728494
    134.3600000              0.2468300
     42.8709000              0.4872580
     14.5189000              0.3234960
SP   6   1.00
    239.6680000             -0.00292619             0.00460285
     57.4419000             -0.0374080              0.0331990
     18.2859000             -0.1144870              0.1362820
      6.5991400              0.1156350              0.3304760
      2.4904900              0.6125950              0.4491460
      0.9445400              0.3937990              0.2657040
SP   3   1.00
      1.2779000             -0.2276060             -0.0175130
      0.3975900              0.00144583             0.2445330
      0.1600950              1.0927900              0.8049340
SP   1   1.00
      0.0556577              1.0000000              1.0000000
D    1   1.00
      0.6500000              1.0000000
D    1   1.00
      0.1625000              1.0000000
F    1   1.00
      0.2500000              1.0000000
****
Si     0
S    6   1.00
  16115.9000000              0.00195948
   2425.5800000              0.01492880
    553.8670000              0.07284780
    156.3400000              0.24613000
     50.0683000              0.48591400
     17.0178000              0.32500200
SP   6   1.00
    292.7180000             -0.00278094             0.00443826
     69.8731000             -0.03571460             0.03266790
     22.3363000             -0.11498500             0.13472100
      8.1503900              0.09356340             0.32867800
      3.1345800              0.60301700             0.44964000
      1.2254300              0.41895900             0.26137200
SP   3   1.00
      1.7273800             -0.24463000            -0.01779510
      0.5729220              0.00431572             0.25353900
      0.2221920              1.09818000             0.80066900
SP   1   1.00
      0.0778369              1.00000000             1.00000000
D    1   1.00
      0.9000000              1.0000000
D    1   1.00
      0.2250000              1.0000000
F    1   1.00
      0.3200000              1.0000000
****
P     0
S    6   1.00
  19413.3000000              0.0018516
   2909.4200000              0.0142062
    661.3640000              0.0699995
    185.7590000              0.2400790
     59.1943000              0.4847620
     20.0310000              0.3352000
SP   6   1.00
    339.4780000             -0.00278217             0.00456462
     81.0101000             -0.0360499              0.03369360
     25.8780000             -0.1166310              0.13975500
      9.4522100              0.0968328              0.33936200
      3.6656600              0.6144180              0.45092100
      1.4674600              0.4037980              0.23858600
SP   3   1.00
      2.1562300             -0.2529230             -0.01776530
      0.7489970              0.0328517              0.27405800
      0.2831450              1.0812500              0.78542100
SP   1   1.00
      0.0998317              1.0000000              1.00000000
D    1   1.00
      1.1000000              1.0000000
D    1   1.00
      0.2750000              1.0000000
F    1   1.00
      0.4500000              1.0000000
****
S     0
S    6   1.00
  21917.1000000              0.0018690
   3301.4900000              0.0142300
    754.1460000              0.0696960
    212.7110000              0.2384870
     67.9896000              0.4833070
     23.0515000              0.3380740
SP   6   1.00
    423.7350000             -0.0023767              0.0040610
    100.7100000             -0.0316930              0.0306810
     32.1599000             -0.1133170              0.1304520
     11.8079000              0.0560900              0.3272050
      4.6311000              0.5922550              0.4528510
      1.8702500              0.4550060              0.2560420
SP   3   1.00
      2.6158400             -0.2503740             -0.0145110
      0.9221670              0.0669570              0.3102630
      0.3412870              1.0545100              0.7544830
SP   1   1.00
      0.1171670              1.0000000              1.0000000
D    1   1.00
      1.3000000              1.0000000
D    1   1.00
      0.3250000              1.0000000
F    1   1.00
      0.5500000              1.0000000
****
Cl     0
S    6   1.00
  25180.1000000              0.0018330
   3780.3500000              0.0140340
    860.4740000              0.0690970
    242.1450000              0.2374520
     77.3349000              0.4830340
     26.2470000              0.3398560
SP   6   1.00
    491.7650000             -0.0022974              0.0039894
    116.9840000             -0.0307140              0.0303180
     37.4153000             -0.1125280              0.1298800
     13.7834000              0.0450160              0.3279510
      5.4521500              0.5893530              0.4535270
      2.2258800              0.4652060              0.2521540
SP   3   1.00
      3.1864900             -0.2518300             -0.0142990
      1.1442700              0.0615890              0.3235720
      0.4203770              1.0601800              0.7435070
SP   1   1.00
      0.1426570              1.0000000              1.0000000
D    1   1.00
      1.5000000              1.0000000
D    1   1.00
      0.3750000              1.0000000
F    1   1.00
      0.7000000              1.0000000
****
}

set {
reference uhf
freeze_core true
e_convergence 10
d_convergence 10
dft_spherical_points 1202
dft_radial_points 99
}

e = energy('b3lyp')

print_out('Grab this energy {0}'.format(e))
--------------------------------------------------------------------------

    Molecular point group: c1

    Geometry (in Bohr), charge = 0, multiplicity = 2:

       Center              X                  Y                   Z               Mass
    ------------   -----------------  -----------------  -----------------  -----------------
         C           -0.323339760312     0.001456785852     0.000262335712    12.000000000000
         C            0.061956786688    -1.402014793848    -2.425836121188    12.000000000000
         C            0.061769067488     2.801803189252     0.000149604712    12.000000000000
         C            0.059573578888    -1.401765664748     2.425703487512    12.000000000000
         H            2.083405382088    -1.643406376448    -2.848251535488     1.007825032230
         H           -0.764112227512    -0.385086538848    -4.027350181588     1.007825032230
         H           -0.763340860612    -3.293487369748    -2.347835918988     1.007825032230
         H            2.086717916788     3.288636256552    -0.000052323488     1.007825032230
         H           -0.764660415112     3.680305069752     1.675870344212     1.007825032230
         H           -0.767058519712     3.681235311852    -1.676940843288     1.007825032230
         H            2.090549331188    -1.642811346448     2.847141641012     1.007825032230
         H           -0.767837371212    -3.289333959848     2.350397065512     1.007825032230
         H           -0.766227050812    -0.389853739048     4.023696094512     1.007825032230

  Charge       = 0
  Multiplicity = 2
  Basis Set: ANONYMOUSF6E6181E
    Blend: 6-31G_2DFP_
  Basis Set: (ANONYMOUSF6E6181E AUX)
    Blend: DEF2-UNIVERSAL-JKFIT

    Orbital Energies [Eh]
    ---------------------

    Alpha Occupied:

       1A    -10.180342     2A    -10.167054     3A    -10.167023
       4A    -10.166968     5A     -0.797766     6A     -0.686267
       7A     -0.686108     8A     -0.530778     9A     -0.441128
      10A     -0.434692    11A     -0.434648    12A     -0.382644
      13A     -0.382553    14A     -0.363609    15A     -0.338295
      16A     -0.337704    17A     -0.168961

    Alpha Virtual:

      18A      0.076071    19A      0.133982    20A      0.134326
      21A      0.142538    22A      0.142714    23A      0.154881
      24A      0.178681    25A      0.178877    26A      0.203548
      27A      0.214803    28A      0.275838    29A      0.276133
      30A      0.399117    31A      0.399340    32A      0.403342
      33A      0.424014    34A      0.424182    35A      0.456592
      36A      0.495240    37A      0.495537    38A      0.512161
      39A      0.513981    40A      0.578638    41A      0.578993
      42A      0.591475    43A      0.591783    44A      0.602581
      45A      0.624760    46A      0.631750    47A      0.636145
      48A      0.636376    49A      0.663037    50A      0.663799
      51A      0.683679    52A      0.684031    53A      0.734995
      54A      0.825383    55A      0.825423    56A      0.853921
      57A      0.914788    58A      0.915262    59A      0.944126
      60A      0.944610    61A      0.961149    62A      0.961442
      63A      1.003452    64A      1.128056    65A      1.128164
      66A      1.142204    67A      1.163142    68A      1.163407
      69A      1.223326    70A      1.274239    71A      1.274723
      72A      1.279371    73A      1.324286    74A      1.324429
      75A      1.355960    76A      1.365815    77A      1.366285
      78A      1.392435    79A      1.403548    80A      1.404582
      81A      1.416525    82A      1.417710    83A      1.427918
      84A      1.491490    85A      1.499078    86A      1.542347
      87A      1.543330    88A      1.574091    89A      1.574804
      90A      1.669810    91A      1.739224    92A      1.739563
      93A      1.768371    94A      1.830588    95A      1.832211
      96A      1.971710    97A      2.017887    98A      2.018796
      99A      2.019717   100A      2.051529   101A      2.053779
     102A      2.738074   103A      2.738898   104A      2.790924
     105A      2.811425   106A      2.889260   107A      2.890623
     108A      2.894962   109A      2.929332   110A      2.929662
     111A      2.958996   112A      2.963934   113A      2.964824
     114A      3.034017   115A      3.071145   116A      3.071415
     117A      3.084365   118A      3.168532   119A      3.169007
     120A      3.180620   121A      3.284924   122A      3.285706
     123A      3.326942   124A      3.327374   125A      3.375628
     126A      3.489990   127A      3.490318   128A      3.514017
     129A      3.525325   130A      3.568246   131A      3.568533
     132A      3.575159   133A      3.665650   134A      3.667092
     135A      3.679683   136A      3.693978   137A      3.694284
     138A      3.776788   139A      3.776821   140A      3.789125
     141A      3.911862   142A      3.912587   143A      4.034442
     144A      4.110859   145A      4.111861   146A      4.147504
     147A      4.148689   148A      4.173236   149A      4.201960
     150A      4.202672   151A      4.204127   152A      4.210917
     153A      4.314845   154A      4.317133   155A      4.358974
     156A      4.423818   157A      4.425075   158A      4.443459
     159A      4.516128   160A      4.517566   161A      4.577936
     162A      4.578594   163A      4.617554   164A      4.709460
     165A      4.774114   166A      4.775076   167A      4.836905
     168A      4.962866   169A      5.002149   170A      5.003738
     171A      5.227998   172A      5.244735   173A      5.248890
     174A      5.354323   175A      5.356750   176A      5.479379

    Beta Occupied:

       1A    -10.167809     2A    -10.167783     3A    -10.167732
       4A    -10.166519     5A     -0.781091     6A     -0.684067
       7A     -0.683914     8A     -0.511749     9A     -0.431068
      10A     -0.431020    11A     -0.421819    12A     -0.376749
      13A     -0.376619    14A     -0.362593    15A     -0.333416
      16A     -0.332828

    Beta Virtual:

      17A     -0.025743    18A      0.077080    19A      0.134881
      20A      0.135209    21A      0.144439    22A      0.144554
      23A      0.163337    24A      0.182341    25A      0.182560
      26A      0.215033    27A      0.218930    28A      0.282196
      29A      0.282471    30A      0.400286    31A      0.400509
      32A      0.419788    33A      0.426827    34A      0.426993
      35A      0.468500    36A      0.497494    37A      0.497805
      38A      0.513896    39A      0.556326    40A      0.584203
      41A      0.584528    42A      0.597633    43A      0.597987
      44A      0.610001    45A      0.628137    46A      0.631917
      47A      0.639429    48A      0.639650    49A      0.666631
      50A      0.667334    51A      0.686332    52A      0.686648
      53A      0.757518    54A      0.830549    55A      0.830593
      56A      0.855275    57A      0.922772    58A      0.923220
      59A      0.945963    60A      0.953539    61A      0.966433
      62A      0.966769    63A      1.008692    64A      1.132123
      65A      1.132153    66A      1.155572    67A      1.168178
      68A      1.168529    69A      1.232298    70A      1.279805
      71A      1.280348    72A      1.285128    73A      1.329268
      74A      1.329426    75A      1.365370    76A      1.371033
      77A      1.371555    78A      1.393495    79A      1.406973
      80A      1.408087    81A      1.421567    82A      1.422767
      83A      1.428189    84A      1.492538    85A      1.509521
      86A      1.546763    87A      1.547727    88A      1.581979
      89A      1.582662    90A      1.674658    91A      1.744990
      92A      1.745328    93A      1.779142    94A      1.834437
      95A      1.836074    96A      1.972571    97A      2.024810
      98A      2.026083    99A      2.039677   100A      2.058267
     101A      2.060478   102A      2.746419   103A      2.747224
     104A      2.811837   105A      2.816060   106A      2.901978
     107A      2.903300   108A      2.924646   109A      2.931777
     110A      2.932182   111A      2.960060   112A      2.968477
     113A      2.969373   114A      3.041950   115A      3.081008
     116A      3.081350   117A      3.086204   118A      3.184174
     119A      3.184818   120A      3.188350   121A      3.289729
     122A      3.290496   123A      3.330722   124A      3.331205
     125A      3.383445   126A      3.492751   127A      3.493018
     128A      3.512383   129A      3.528371   130A      3.574985
     131A      3.581571   132A      3.581919   133A      3.670321
     134A      3.671935   135A      3.692968   136A      3.725522
     137A      3.725992   138A      3.781265   139A      3.781403
     140A      3.817665   141A      3.921652   142A      3.922431
     143A      4.045328   144A      4.117691   145A      4.118657
     146A      4.154775   147A      4.155844   148A      4.187286
     149A      4.208116   150A      4.209463   151A      4.211034
     152A      4.215391   153A      4.322260   154A      4.324595
     155A      4.362337   156A      4.432035   157A      4.433275
     158A      4.446353   159A      4.523919   160A      4.525355
     161A      4.588551   162A      4.589181   163A      4.624748
     164A      4.719805   165A      4.781073   166A      4.782024
     167A      4.839822   168A      4.967661   169A      5.006206
     170A      5.007760   171A      5.233710   172A      5.246535
     173A      5.250662   174A      5.360793   175A      5.363240
     176A      5.481700

    Final Occupation by Irrep:
              A
    DOCC [    16 ]
    SOCC [     1 ]

  @DF-UKS Final Energy:  -157.81306070582559

   => Energetics <=

    Nuclear Repulsion Energy =            125.3946412371990675
    One-Electron Energy =                -458.7489202832723549
    Two-Electron Energy =                 195.8483638467924379
    DFT Exchange-Correlation Energy =     -20.3071455065447068
    Empirical Dispersion Energy =           0.0000000000000000
    VV10 Nonlocal Energy =                  0.0000000000000000
    Total Energy =                       -157.8130607058255919

  UHF NO Occupations:
  HONO-2 :   15  A 1.9996009
  HONO-1 :   16  A 1.9989805
  HONO-0 :   17  A 1.0000000
  LUNO+0 :   18  A 0.0010195
  LUNO+1 :   19  A 0.0003991
  LUNO+2 :   20  A 0.0001980
  LUNO+3 :   21  A 0.0001971

Computation Completed

Properties will be evaluated at   0.000000,   0.000000,   0.000000 [a0]

Properties computed using the SCF density matrix

  Nuclear Dipole Moment: [e a0]
     X:     0.8272      Y:     0.0031      Z:    -0.0016

  Electronic Dipole Moment: [e a0]
     X:    -0.7493      Y:    -0.0030      Z:     0.0023

  Dipole Moment: [e a0]
     X:     0.0779      Y:     0.0001      Z:     0.0007     Total:     0.0779

  Dipole Moment: [D]
     X:     0.1980      Y:     0.0001      Z:     0.0017     Total:     0.1980

*** tstop() called on n033 at Fri Nov  5 11:48:46 2021
Module time:
	user time   =     639.26 seconds =      10.65 minutes
	system time =      11.89 seconds =       0.20 minutes
	total time  =        163 seconds =       2.72 minutes
Total time:
	user time   =     639.26 seconds =      10.65 minutes
	system time =      11.89 seconds =       0.20 minutes
	total time  =        163 seconds =       2.72 minutes
Grab this energy -157.8130607058256
    Psi4 stopped on: Friday, 05 November 2021 11:48AM
    Psi4 wall time for execution: 0:02:43.72

*** Psi4 exiting successfully. Buy a developer a beer!
