                               Psi4 1.4a2.dev629

  ==> Input File <==

--------------------------------------------------------------------------
import os
memory 14 GB

molecule {
 C   -0.3233412067   -0.0015195212   -0.0000000000
 C    0.0608249687   -1.3997392585   -2.4268648160
 C    0.0616469199    2.8020576647    0.0000000000
 C    0.0608249687   -1.3997392585    2.4268648160
 H    2.0889578416   -1.6446596203   -2.8468834036
 H   -0.7676295699   -0.3898715319   -4.0251532774
 H   -0.7654642345   -3.2903819582   -2.3494399909
 H    2.0827559538    3.2884935966   -0.0000000000
 H   -0.7635237777    3.6801243419    1.6797218805
 H   -0.7635237777    3.6801243419   -1.6797218805
 H    2.0889578416   -1.6446596203    2.8468834036
 H   -0.7654642345   -3.2903819582    2.3494399909
 H   -0.7676295699   -0.3898715319    4.0251532774
units bohr
0 2
}

basis {

assign 6-31g_2dfp_

[ 6-31g_2dfp_ ]

spherical

!----------------------------------------------------------------------
! Basis Set Exchange
! Version v0.8.13
! https://www.basissetexchange.org
!----------------------------------------------------------------------
!   Basis set: 6-31G(2df,p)
! Description: 6-31G(2df,p)
!        Role: orbital
!     Version: 0  (Data from the original Basis Set Exchange)
!----------------------------------------------------------------------

****
H     0
S    3   1.00
     18.7311370              0.03349460
      2.8253937              0.23472695
      0.6401217              0.81375733
S    1   1.00
      0.1612778              1.00000000
P    1   1.00
      1.5000000              1.0000000
P    1   1.00
      0.3750000              1.0000000
****
B     0
S    6   1.00
   2068.8823000              0.0018663
    310.6495700              0.0142515
     70.6830330              0.0695516
     19.8610800              0.2325729
      6.2993048              0.4670787
      2.1270270              0.3634314
SP   3   1.00
      4.7279710             -0.1303938              0.0745976
      1.1903377             -0.1307889              0.3078467
      0.3594117              1.1309444              0.7434568
SP   1   1.00
      0.1267512              1.0000000              1.0000000
D    1   1.00
      0.8020000              1.0000000
D    1   1.00
      0.2005000              1.0000000
F    1   1.00
      0.5000000              1.0000000
****
C     0
S    6   1.00
   3047.5249000              0.0018347
    457.3695100              0.0140373
    103.9486900              0.0688426
     29.2101550              0.2321844
      9.2866630              0.4679413
      3.1639270              0.3623120
SP   3   1.00
      7.8682724             -0.1193324              0.0689991
      1.8812885             -0.1608542              0.3164240
      0.5442493              1.1434564              0.7443083
SP   1   1.00
      0.1687144              1.0000000              1.0000000
D    1   1.00
      1.2520000              1.0000000
D    1   1.00
      0.3130000              1.0000000
F    1   1.00
      0.8000000              1.0000000
****
N     0
S    6   1.00
   4173.5110000              0.0018348
    627.4579000              0.0139950
    142.9021000              0.0685870
     40.2343300              0.2322410
     12.8202100              0.4690700
      4.3904370              0.3604550
SP   3   1.00
     11.6263580             -0.1149610              0.0675800
      2.7162800             -0.1691180              0.3239070
      0.7722180              1.1458520              0.7408950
SP   1   1.00
      0.2120313              1.0000000              1.0000000
D    1   1.00
      1.8260000              1.0000000
D    1   1.00
      0.4565000              1.0000000
F    1   1.00
      1.0000000              1.0000000
****
O     0
S    6   1.00
   5484.6717000              0.0018311
    825.2349500              0.0139501
    188.0469600              0.0684451
     52.9645000              0.2327143
     16.8975700              0.4701930
      5.7996353              0.3585209
SP   3   1.00
     15.5396160             -0.1107775              0.0708743
      3.5999336             -0.1480263              0.3397528
      1.0137618              1.1307670              0.7271586
SP   1   1.00
      0.2700058              1.0000000              1.0000000
D    1   1.00
      2.5840000              1.0000000
D    1   1.00
      0.6460000              1.0000000
F    1   1.00
      1.4000000              1.0000000
****
F     0
S    6   1.00
   7001.7130900              0.0018196169
   1051.3660900              0.0139160796
    239.2856900              0.0684053245
     67.3974453              0.233185760
     21.5199573              0.471267439
      7.40310130             0.356618546
SP   3   1.00
     20.8479528             -0.108506975            0.0716287243
      4.80830834            -0.146451658            0.3459121030
      1.34406986             1.128688580            0.7224699570
SP   1   1.00
      0.358151393            1.0000000              1.0000000
D    1   1.00
      3.5000000              1.0000000
D    1   1.00
      0.8750000              1.0000000
F    1   1.00
      1.8500000              1.0000000
****
Al     0
S    6   1.00
  13983.1000000              0.00194267
   2098.7500000              0.0148599
    477.7050000              0.0728494
    134.3600000              0.2468300
     42.8709000              0.4872580
     14.5189000              0.3234960
SP   6   1.00
    239.6680000             -0.00292619             0.00460285
     57.4419000             -0.0374080              0.0331990
     18.2859000             -0.1144870              0.1362820
      6.5991400              0.1156350              0.3304760
      2.4904900              0.6125950              0.4491460
      0.9445400              0.3937990              0.2657040
SP   3   1.00
      1.2779000             -0.2276060             -0.0175130
      0.3975900              0.00144583             0.2445330
      0.1600950              1.0927900              0.8049340
SP   1   1.00
      0.0556577              1.0000000              1.0000000
D    1   1.00
      0.6500000              1.0000000
D    1   1.00
      0.1625000              1.0000000
F    1   1.00
      0.2500000              1.0000000
****
Si     0
S    6   1.00
  16115.9000000              0.00195948
   2425.5800000              0.01492880
    553.8670000              0.07284780
    156.3400000              0.24613000
     50.0683000              0.48591400
     17.0178000              0.32500200
SP   6   1.00
    292.7180000             -0.00278094             0.00443826
     69.8731000             -0.03571460             0.03266790
     22.3363000             -0.11498500             0.13472100
      8.1503900              0.09356340             0.32867800
      3.1345800              0.60301700             0.44964000
      1.2254300              0.41895900             0.26137200
SP   3   1.00
      1.7273800             -0.24463000            -0.01779510
      0.5729220              0.00431572             0.25353900
      0.2221920              1.09818000             0.80066900
SP   1   1.00
      0.0778369              1.00000000             1.00000000
D    1   1.00
      0.9000000              1.0000000
D    1   1.00
      0.2250000              1.0000000
F    1   1.00
      0.3200000              1.0000000
****
P     0
S    6   1.00
  19413.3000000              0.0018516
   2909.4200000              0.0142062
    661.3640000              0.0699995
    185.7590000              0.2400790
     59.1943000              0.4847620
     20.0310000              0.3352000
SP   6   1.00
    339.4780000             -0.00278217             0.00456462
     81.0101000             -0.0360499              0.03369360
     25.8780000             -0.1166310              0.13975500
      9.4522100              0.0968328              0.33936200
      3.6656600              0.6144180              0.45092100
      1.4674600              0.4037980              0.23858600
SP   3   1.00
      2.1562300             -0.2529230             -0.01776530
      0.7489970              0.0328517              0.27405800
      0.2831450              1.0812500              0.78542100
SP   1   1.00
      0.0998317              1.0000000              1.00000000
D    1   1.00
      1.1000000              1.0000000
D    1   1.00
      0.2750000              1.0000000
F    1   1.00
      0.4500000              1.0000000
****
S     0
S    6   1.00
  21917.1000000              0.0018690
   3301.4900000              0.0142300
    754.1460000              0.0696960
    212.7110000              0.2384870
     67.9896000              0.4833070
     23.0515000              0.3380740
SP   6   1.00
    423.7350000             -0.0023767              0.0040610
    100.7100000             -0.0316930              0.0306810
     32.1599000             -0.1133170              0.1304520
     11.8079000              0.0560900              0.3272050
      4.6311000              0.5922550              0.4528510
      1.8702500              0.4550060              0.2560420
SP   3   1.00
      2.6158400             -0.2503740             -0.0145110
      0.9221670              0.0669570              0.3102630
      0.3412870              1.0545100              0.7544830
SP   1   1.00
      0.1171670              1.0000000              1.0000000
D    1   1.00
      1.3000000              1.0000000
D    1   1.00
      0.3250000              1.0000000
F    1   1.00
      0.5500000              1.0000000
****
Cl     0
S    6   1.00
  25180.1000000              0.0018330
   3780.3500000              0.0140340
    860.4740000              0.0690970
    242.1450000              0.2374520
     77.3349000              0.4830340
     26.2470000              0.3398560
SP   6   1.00
    491.7650000             -0.0022974              0.0039894
    116.9840000             -0.0307140              0.0303180
     37.4153000             -0.1125280              0.1298800
     13.7834000              0.0450160              0.3279510
      5.4521500              0.5893530              0.4535270
      2.2258800              0.4652060              0.2521540
SP   3   1.00
      3.1864900             -0.2518300             -0.0142990
      1.1442700              0.0615890              0.3235720
      0.4203770              1.0601800              0.7435070
SP   1   1.00
      0.1426570              1.0000000              1.0000000
D    1   1.00
      1.5000000              1.0000000
D    1   1.00
      0.3750000              1.0000000
F    1   1.00
      0.7000000              1.0000000
****
}

set {
reference uhf
freeze_core true
e_convergence 10
d_convergence 10
dft_spherical_points 1202
dft_radial_points 99
}

e = energy('b3lyp')

print_out('Grab this energy {0}'.format(e))
--------------------------------------------------------------------------

    Molecular point group: cs

    Geometry (in Bohr), charge = 0, multiplicity = 2:

       Center              X                  Y                   Z               Mass
    ------------   -----------------  -----------------  -----------------  -----------------
         C           -0.323340366057    -0.001723183529     0.000000000000    12.000000000000
         C            0.060825809343    -1.399942920829    -2.426864816000    12.000000000000
         C            0.061647760543     2.801854002371     0.000000000000    12.000000000000
         C            0.060825809343    -1.399942920829     2.426864816000    12.000000000000
         H            2.088958682243    -1.644863282629    -2.846883403600     1.007825032230
         H           -0.767628729257    -0.390075194229    -4.025153277400     1.007825032230
         H           -0.765463393857    -3.290585620529    -2.349439990900     1.007825032230
         H            2.082756794443     3.288289934271     0.000000000000     1.007825032230
         H           -0.763522937057     3.679920679571     1.679721880500     1.007825032230
         H           -0.763522937057     3.679920679571    -1.679721880500     1.007825032230
         H            2.088958682243    -1.644863282629     2.846883403600     1.007825032230
         H           -0.765463393857    -3.290585620529     2.349439990900     1.007825032230
         H           -0.767628729257    -0.390075194229     4.025153277400     1.007825032230

  Charge       = 0
  Multiplicity = 2
  Basis Set: ANONYMOUS2FC3EE74
    Blend: 6-31G_2DFP_
  Basis Set: (ANONYMOUS2FC3EE74 AUX)
    Blend: DEF2-UNIVERSAL-JKFIT

    Orbital Energies [Eh]
    ---------------------

    Alpha Occupied:

       1Ap   -10.180342     1App  -10.167058     2Ap   -10.167034
       3Ap   -10.166952     4Ap    -0.797766     2App   -0.686266
       5Ap    -0.686109     6Ap    -0.530777     7Ap    -0.441131
       8Ap    -0.434693     3App   -0.434641     4App   -0.382614
       9Ap    -0.382584     5App   -0.363610     6App   -0.338325
      10Ap    -0.337673    11Ap    -0.168961

    Alpha Virtual:

      12Ap     0.076072     7App    0.134028    13Ap     0.134283
      14Ap     0.142621     8App    0.142630    15Ap     0.154882
       9App    0.178643    16Ap     0.178913    17Ap     0.203548
      10App    0.214802    18Ap     0.275785    11App    0.276186
      19Ap     0.399085    12App    0.399374    20Ap     0.403344
      13App    0.424008    21Ap     0.424187    22Ap     0.456591
      23Ap     0.495278    14App    0.495500    15App    0.512160
      24Ap     0.513981    16App    0.578689    25Ap     0.578944
      17App    0.591506    26Ap     0.591760    27Ap     0.602575
      28Ap     0.624764    18App    0.631772    19App    0.636144
      29Ap     0.636351    20App    0.663131    30Ap     0.663703
      31Ap     0.683689    21App    0.684016    32Ap     0.734995
      33Ap     0.825391    22App    0.825416    23App    0.853920
      24App    0.914705    34Ap     0.915347    25App    0.944125
      35Ap     0.944611    26App    0.961222    36Ap     0.961369
      37Ap     1.003450    27App    1.128050    38Ap     1.128169
      39Ap     1.142187    28App    1.163131    40Ap     1.163434
      41Ap     1.223331    42Ap     1.274454    29App    1.274522
      43Ap     1.279356    44Ap     1.324341    30App    1.324360
      45Ap     1.355959    31App    1.365787    46Ap     1.366321
      32App    1.392448    33App    1.403828    47Ap     1.404277
      48Ap     1.416339    34App    1.417919    35App    1.427910
      36App    1.491493    49Ap     1.499082    37App    1.542541
      50Ap     1.543138    38App    1.574292    51Ap     1.574606
      52Ap     1.669818    53Ap     1.739340    39App    1.739385
      54Ap     1.768440    55Ap     1.830662    40App    1.832131
      41App    1.971719    42App    2.018185    56Ap     2.018283
      57Ap     2.019912    43App    2.051090    58Ap     2.054208
      44App    2.738123    59Ap     2.738848    60Ap     2.790924
      45App    2.811423    61Ap     2.889246    46App    2.890638
      62Ap     2.894963    63Ap     2.929333    47App    2.929657
      48App    2.958994    49App    2.963770    64Ap     2.964988
      65Ap     3.034014    66Ap     3.071181    50App    3.071384
      51App    3.084360    67Ap     3.168683    52App    3.168889
      68Ap     3.180587    69Ap     3.284773    53App    3.285858
      70Ap     3.326980    54App    3.327328    71Ap     3.375635
      72Ap     3.489968    55App    3.490337    56App    3.514016
      73Ap     3.525314    57App    3.568374    74Ap     3.568391
      58App    3.575178    59App    3.665899    75Ap     3.666816
      76Ap     3.679725    77Ap     3.693977    60App    3.694277
      78Ap     3.776774    61App    3.776828    79Ap     3.789118
      80Ap     3.911768    62App    3.912681    81Ap     4.034439
      63App    4.110700    82Ap     4.112031    83Ap     4.147348
      64App    4.148854    84Ap     4.173220    85Ap     4.201893
      86Ap     4.203111    65App    4.203770    66App    4.210927
      67App    4.315925    87Ap     4.316038    68App    4.358976
      69App    4.424192    88Ap     4.424685    70App    4.443464
      71App    4.516328    89Ap     4.517365    90Ap     4.577835
      72App    4.578683    91Ap     4.617571    92Ap     4.709454
      73App    4.773980    93Ap     4.775198    74App    4.836896
      94Ap     4.962871    75App    5.001919    95Ap     5.003983
      96Ap     5.228005    76App    5.244950    97Ap     5.248639
      77App    5.354313    98Ap     5.356740    78App    5.479377

    Beta Occupied:

       1App  -10.167813     1Ap   -10.167798     2Ap   -10.167713
       3Ap   -10.166519     4Ap    -0.781091     2App   -0.684071
       5Ap    -0.683909     6Ap    -0.511748     7Ap    -0.431079
       3App   -0.431011     8Ap    -0.421815     4App   -0.376686
       9Ap    -0.376684     5App   -0.362594     6App   -0.333440
      10Ap    -0.332804

    Beta Virtual:

      11Ap    -0.025743    12Ap     0.077081     7App    0.134940
      13Ap     0.135151    14Ap     0.144486     8App    0.144508
      15Ap     0.163339     9App    0.182308    16Ap     0.182591
      10App    0.215032    17Ap     0.218930    18Ap     0.282144
      11App    0.282523    19Ap     0.400255    12App    0.400541
      20Ap     0.419791    13App    0.426818    21Ap     0.426999
      22Ap     0.468499    23Ap     0.497530    14App    0.497770
      15App    0.513895    24Ap     0.556325    16App    0.584254
      25Ap     0.584479    17App    0.597672    26Ap     0.597954
      27Ap     0.609998    28Ap     0.628139    18App    0.631929
      19App    0.639424    29Ap     0.639641    20App    0.666730
      30Ap     0.667232    31Ap     0.686344    21App    0.686632
      32Ap     0.757518    33Ap     0.830554    22App    0.830589
      23App    0.855274    24App    0.922689    34Ap     0.923304
      25App    0.945962    35Ap     0.953540    26App    0.966489
      36Ap     0.966713    37Ap     1.008690    38Ap     1.132126
      27App    1.132148    39Ap     1.155544    28App    1.168157
      40Ap     1.168578    41Ap     1.232302    42Ap     1.280037
      29App    1.280134    43Ap     1.285109    44Ap     1.329318
      30App    1.329363    45Ap     1.365370    31App    1.371050
      46Ap     1.371541    32App    1.393506    33App    1.407262
      47Ap     1.407783    48Ap     1.421393    34App    1.422963
      35App    1.428180    36App    1.492542    49Ap     1.509524
      37App    1.546976    50Ap     1.547517    38App    1.582157
      51Ap     1.582486    52Ap     1.674665    53Ap     1.745121
      39App    1.745145    54Ap     1.779202    55Ap     1.834509
      40App    1.835995    41App    1.972579    42App    2.024567
      56Ap     2.026332    57Ap     2.039646    43App    2.057826
      58Ap     2.060915    44App    2.746461    59Ap     2.747181
      45App    2.811835    60Ap     2.816060    61Ap     2.901915
      46App    2.903364    62Ap     2.924652    63Ap     2.931809
      47App    2.932139    48App    2.960057    49App    2.968311
      64Ap     2.969538    65Ap     3.041947    66Ap     3.081177
      50App    3.081192    51App    3.086194    67Ap     3.184349
      52App    3.184729    68Ap     3.188264    69Ap     3.289591
      53App    3.290636    70Ap     3.330777    54App    3.331143
      71Ap     3.383451    72Ap     3.492723    55App    3.493042
      56App    3.512385    73Ap     3.528360    57App    3.574970
      74Ap     3.581644    58App    3.581869    59App    3.670689
      75Ap     3.671547    76Ap     3.692985    60App    3.725736
      77Ap     3.725791    78Ap     3.781308    61App    3.781346
      79Ap     3.817661    80Ap     3.921541    62App    3.922541
      81Ap     4.045324    63App    4.117533    82Ap     4.118828
      83Ap     4.154645    64App    4.155975    84Ap     4.187278
      85Ap     4.208085    65App    4.209773    86Ap     4.210766
      66App    4.215403    67App    4.323397    87Ap     4.323444
      68App    4.362338    69App    4.432393    88Ap     4.432899
      70App    4.446361    71App    4.524102    89Ap     4.525171
      90Ap     4.588443    72App    4.589275    91Ap     4.624767
      92Ap     4.719799    73App    4.780952    93Ap     4.782133
      74App    4.839813    94Ap     4.967666    75App    5.005976
      95Ap     5.008005    96Ap     5.233721    76App    5.246737
      97Ap     5.250420    77App    5.360804    98Ap     5.363211
      78App    5.481698

    Final Occupation by Irrep:
             Ap   App
    DOCC [    10,    6 ]
    SOCC [     1,    0 ]

  @DF-UKS Final Energy:  -157.81306456169284

   => Energetics <=

    Nuclear Repulsion Energy =            125.3946274999342307
    One-Electron Energy =                -458.7489074495814521
    Two-Electron Energy =                 195.8483591512531632
    DFT Exchange-Correlation Energy =     -20.3071437632988037
    Empirical Dispersion Energy =           0.0000000000000000
    VV10 Nonlocal Energy =                  0.0000000000000000
    Total Energy =                       -157.8130645616928405

  UHF NO Occupations:
  HONO-2 :    9 Ap 1.9996009
  HONO-1 :   10 Ap 1.9989805
  HONO-0 :   11 Ap 1.0000000
  LUNO+0 :   12 Ap 0.0010195
  LUNO+1 :   13 Ap 0.0003991
  LUNO+2 :   14 Ap 0.0001979
  LUNO+3 :    7App 0.0001971

Computation Completed

Properties will be evaluated at   0.000000,   0.000000,   0.000000 [a0]

Properties computed using the SCF density matrix

  Nuclear Dipole Moment: [e a0]
     X:     0.8272      Y:    -0.0014      Z:    -0.0000

  Electronic Dipole Moment: [e a0]
     X:    -0.7493      Y:     0.0007      Z:     0.0000

  Dipole Moment: [e a0]
     X:     0.0779      Y:    -0.0007      Z:    -0.0000     Total:     0.0779

  Dipole Moment: [D]
     X:     0.1980      Y:    -0.0018      Z:    -0.0000     Total:     0.1980

*** tstop() called on n080 at Fri Nov  5 11:49:37 2021
Module time:
	user time   =     492.53 seconds =       8.21 minutes
	system time =       4.51 seconds =       0.08 minutes
	total time  =        125 seconds =       2.08 minutes
Total time:
	user time   =     492.53 seconds =       8.21 minutes
	system time =       4.51 seconds =       0.08 minutes
	total time  =        125 seconds =       2.08 minutes
Grab this energy -157.81306456169284
    Psi4 stopped on: Friday, 05 November 2021 11:49AM
    Psi4 wall time for execution: 0:02:05.01

*** Psi4 exiting successfully. Buy a developer a beer!
