                               Psi4 1.4a2.dev629

  ==> Input File <==

--------------------------------------------------------------------------
import os
memory 14 GB

molecule {
 C   -0.3233335928   -0.0063650070   -0.0000000000
 C    0.0614394402   -1.4002738009   -2.4265267465
 C    0.0604209519    2.8020996924    0.0000000000
 C    0.0614394402   -1.4002738009    2.4265267465
 H    2.0870141945   -1.6437468283   -2.8473479803
 H   -0.7648909032   -0.3879788528   -4.0261260233
 H   -0.7662434561   -3.2911942448   -2.3480613287
 H    2.0866435219    3.2886137643   -0.0000000000
 H   -0.7654886542    3.6810073452    1.6762043326
 H   -0.7654886542    3.6810073452   -1.6762043326
 H    2.0870141945   -1.6437468283    2.8473479803
 H   -0.7662434561   -3.2911942448    2.3480613287
 H   -0.7648909032   -0.3879788528    4.0261260233
units bohr
0 2
}

basis {

assign 6-31g_2dfp_

[ 6-31g_2dfp_ ]

spherical

!----------------------------------------------------------------------
! Basis Set Exchange
! Version v0.8.13
! https://www.basissetexchange.org
!----------------------------------------------------------------------
!   Basis set: 6-31G(2df,p)
! Description: 6-31G(2df,p)
!        Role: orbital
!     Version: 0  (Data from the original Basis Set Exchange)
!----------------------------------------------------------------------

****
H     0
S    3   1.00
     18.7311370              0.03349460
      2.8253937              0.23472695
      0.6401217              0.81375733
S    1   1.00
      0.1612778              1.00000000
P    1   1.00
      1.5000000              1.0000000
P    1   1.00
      0.3750000              1.0000000
****
B     0
S    6   1.00
   2068.8823000              0.0018663
    310.6495700              0.0142515
     70.6830330              0.0695516
     19.8610800              0.2325729
      6.2993048              0.4670787
      2.1270270              0.3634314
SP   3   1.00
      4.7279710             -0.1303938              0.0745976
      1.1903377             -0.1307889              0.3078467
      0.3594117              1.1309444              0.7434568
SP   1   1.00
      0.1267512              1.0000000              1.0000000
D    1   1.00
      0.8020000              1.0000000
D    1   1.00
      0.2005000              1.0000000
F    1   1.00
      0.5000000              1.0000000
****
C     0
S    6   1.00
   3047.5249000              0.0018347
    457.3695100              0.0140373
    103.9486900              0.0688426
     29.2101550              0.2321844
      9.2866630              0.4679413
      3.1639270              0.3623120
SP   3   1.00
      7.8682724             -0.1193324              0.0689991
      1.8812885             -0.1608542              0.3164240
      0.5442493              1.1434564              0.7443083
SP   1   1.00
      0.1687144              1.0000000              1.0000000
D    1   1.00
      1.2520000              1.0000000
D    1   1.00
      0.3130000              1.0000000
F    1   1.00
      0.8000000              1.0000000
****
N     0
S    6   1.00
   4173.5110000              0.0018348
    627.4579000              0.0139950
    142.9021000              0.0685870
     40.2343300              0.2322410
     12.8202100              0.4690700
      4.3904370              0.3604550
SP   3   1.00
     11.6263580             -0.1149610              0.0675800
      2.7162800             -0.1691180              0.3239070
      0.7722180              1.1458520              0.7408950
SP   1   1.00
      0.2120313              1.0000000              1.0000000
D    1   1.00
      1.8260000              1.0000000
D    1   1.00
      0.4565000              1.0000000
F    1   1.00
      1.0000000              1.0000000
****
O     0
S    6   1.00
   5484.6717000              0.0018311
    825.2349500              0.0139501
    188.0469600              0.0684451
     52.9645000              0.2327143
     16.8975700              0.4701930
      5.7996353              0.3585209
SP   3   1.00
     15.5396160             -0.1107775              0.0708743
      3.5999336             -0.1480263              0.3397528
      1.0137618              1.1307670              0.7271586
SP   1   1.00
      0.2700058              1.0000000              1.0000000
D    1   1.00
      2.5840000              1.0000000
D    1   1.00
      0.6460000              1.0000000
F    1   1.00
      1.4000000              1.0000000
****
F     0
S    6   1.00
   7001.7130900              0.0018196169
   1051.3660900              0.0139160796
    239.2856900              0.0684053245
     67.3974453              0.233185760
     21.5199573              0.471267439
      7.40310130             0.356618546
SP   3   1.00
     20.8479528             -0.108506975            0.0716287243
      4.80830834            -0.146451658            0.3459121030
      1.34406986             1.128688580            0.7224699570
SP   1   1.00
      0.358151393            1.0000000              1.0000000
D    1   1.00
      3.5000000              1.0000000
D    1   1.00
      0.8750000              1.0000000
F    1   1.00
      1.8500000              1.0000000
****
Al     0
S    6   1.00
  13983.1000000              0.00194267
   2098.7500000              0.0148599
    477.7050000              0.0728494
    134.3600000              0.2468300
     42.8709000              0.4872580
     14.5189000              0.3234960
SP   6   1.00
    239.6680000             -0.00292619             0.00460285
     57.4419000             -0.0374080              0.0331990
     18.2859000             -0.1144870              0.1362820
      6.5991400              0.1156350              0.3304760
      2.4904900              0.6125950              0.4491460
      0.9445400              0.3937990              0.2657040
SP   3   1.00
      1.2779000             -0.2276060             -0.0175130
      0.3975900              0.00144583             0.2445330
      0.1600950              1.0927900              0.8049340
SP   1   1.00
      0.0556577              1.0000000              1.0000000
D    1   1.00
      0.6500000              1.0000000
D    1   1.00
      0.1625000              1.0000000
F    1   1.00
      0.2500000              1.0000000
****
Si     0
S    6   1.00
  16115.9000000              0.00195948
   2425.5800000              0.01492880
    553.8670000              0.07284780
    156.3400000              0.24613000
     50.0683000              0.48591400
     17.0178000              0.32500200
SP   6   1.00
    292.7180000             -0.00278094             0.00443826
     69.8731000             -0.03571460             0.03266790
     22.3363000             -0.11498500             0.13472100
      8.1503900              0.09356340             0.32867800
      3.1345800              0.60301700             0.44964000
      1.2254300              0.41895900             0.26137200
SP   3   1.00
      1.7273800             -0.24463000            -0.01779510
      0.5729220              0.00431572             0.25353900
      0.2221920              1.09818000             0.80066900
SP   1   1.00
      0.0778369              1.00000000             1.00000000
D    1   1.00
      0.9000000              1.0000000
D    1   1.00
      0.2250000              1.0000000
F    1   1.00
      0.3200000              1.0000000
****
P     0
S    6   1.00
  19413.3000000              0.0018516
   2909.4200000              0.0142062
    661.3640000              0.0699995
    185.7590000              0.2400790
     59.1943000              0.4847620
     20.0310000              0.3352000
SP   6   1.00
    339.4780000             -0.00278217             0.00456462
     81.0101000             -0.0360499              0.03369360
     25.8780000             -0.1166310              0.13975500
      9.4522100              0.0968328              0.33936200
      3.6656600              0.6144180              0.45092100
      1.4674600              0.4037980              0.23858600
SP   3   1.00
      2.1562300             -0.2529230             -0.01776530
      0.7489970              0.0328517              0.27405800
      0.2831450              1.0812500              0.78542100
SP   1   1.00
      0.0998317              1.0000000              1.00000000
D    1   1.00
      1.1000000              1.0000000
D    1   1.00
      0.2750000              1.0000000
F    1   1.00
      0.4500000              1.0000000
****
S     0
S    6   1.00
  21917.1000000              0.0018690
   3301.4900000              0.0142300
    754.1460000              0.0696960
    212.7110000              0.2384870
     67.9896000              0.4833070
     23.0515000              0.3380740
SP   6   1.00
    423.7350000             -0.0023767              0.0040610
    100.7100000             -0.0316930              0.0306810
     32.1599000             -0.1133170              0.1304520
     11.8079000              0.0560900              0.3272050
      4.6311000              0.5922550              0.4528510
      1.8702500              0.4550060              0.2560420
SP   3   1.00
      2.6158400             -0.2503740             -0.0145110
      0.9221670              0.0669570              0.3102630
      0.3412870              1.0545100              0.7544830
SP   1   1.00
      0.1171670              1.0000000              1.0000000
D    1   1.00
      1.3000000              1.0000000
D    1   1.00
      0.3250000              1.0000000
F    1   1.00
      0.5500000              1.0000000
****
Cl     0
S    6   1.00
  25180.1000000              0.0018330
   3780.3500000              0.0140340
    860.4740000              0.0690970
    242.1450000              0.2374520
     77.3349000              0.4830340
     26.2470000              0.3398560
SP   6   1.00
    491.7650000             -0.0022974              0.0039894
    116.9840000             -0.0307140              0.0303180
     37.4153000             -0.1125280              0.1298800
     13.7834000              0.0450160              0.3279510
      5.4521500              0.5893530              0.4535270
      2.2258800              0.4652060              0.2521540
SP   3   1.00
      3.1864900             -0.2518300             -0.0142990
      1.1442700              0.0615890              0.3235720
      0.4203770              1.0601800              0.7435070
SP   1   1.00
      0.1426570              1.0000000              1.0000000
D    1   1.00
      1.5000000              1.0000000
D    1   1.00
      0.3750000              1.0000000
F    1   1.00
      0.7000000              1.0000000
****
}

set {
reference uhf
freeze_core true
e_convergence 10
d_convergence 10
dft_spherical_points 1202
dft_radial_points 99
}

e = energy('b3lyp')

print_out('Grab this energy {0}'.format(e))
--------------------------------------------------------------------------

    Molecular point group: cs

    Geometry (in Bohr), charge = 0, multiplicity = 2:

       Center              X                  Y                   Z               Mass
    ------------   -----------------  -----------------  -----------------  -----------------
         C           -0.323334791655    -0.005437575276     0.000000000000    12.000000000000
         C            0.061438241345    -1.399346369176    -2.426526746500    12.000000000000
         C            0.060419753045     2.803027124124     0.000000000000    12.000000000000
         C            0.061438241345    -1.399346369176     2.426526746500    12.000000000000
         H            2.087012995645    -1.642819396576    -2.847347980300     1.007825032230
         H           -0.764892102055    -0.387051421076    -4.026126023300     1.007825032230
         H           -0.766244654955    -3.290266813076    -2.348061328700     1.007825032230
         H            2.086642323045     3.289541196024     0.000000000000     1.007825032230
         H           -0.765489853055     3.681934776924     1.676204332600     1.007825032230
         H           -0.765489853055     3.681934776924    -1.676204332600     1.007825032230
         H            2.087012995645    -1.642819396576     2.847347980300     1.007825032230
         H           -0.766244654955    -3.290266813076     2.348061328700     1.007825032230
         H           -0.764892102055    -0.387051421076     4.026126023300     1.007825032230

  Charge       = 0
  Multiplicity = 2
  Basis Set: ANONYMOUS801347F7
    Blend: 6-31G_2DFP_
  Basis Set: (ANONYMOUS801347F7 AUX)
    Blend: DEF2-UNIVERSAL-JKFIT

    Orbital Energies [Eh]
    ---------------------

    Alpha Occupied:

       1Ap   -10.180341     2Ap   -10.167031     1App  -10.167029
       3Ap   -10.166984     4Ap    -0.797770     2App   -0.686455
       5Ap    -0.685917     6Ap    -0.530776     7Ap    -0.441128
       8Ap    -0.434892     3App   -0.434450     4App   -0.382753
       9Ap    -0.382444     5App   -0.363612     6App   -0.338811
      10Ap    -0.337185    11Ap    -0.168960

    Alpha Virtual:

      12Ap     0.076072    13Ap     0.134130     7App    0.134179
      14Ap     0.142389     8App    0.142867    15Ap     0.154879
       9App    0.178735    16Ap     0.178822    17Ap     0.203541
      10App    0.214802    18Ap     0.275573    11App    0.276397
      19Ap     0.398995    12App    0.399465    20Ap     0.403342
      13App    0.424093    21Ap     0.424104    22Ap     0.456592
      23Ap     0.495376    14App    0.495403    15App    0.512159
      24Ap     0.513977    25Ap     0.578575    16App    0.579057
      26Ap     0.591624    17App    0.591656    27Ap     0.602578
      28Ap     0.624759    18App    0.631773    29Ap     0.636103
      19App    0.636401    30Ap     0.663391    20App    0.663435
      21App    0.683792    31Ap     0.683912    32Ap     0.734994
      33Ap     0.825303    22App    0.825511    23App    0.853916
      24App    0.914806    34Ap     0.915236    25App    0.944126
      35Ap     0.944618    36Ap     0.961063    26App    0.961523
      37Ap     1.003452    38Ap     1.127824    27App    1.128348
      39Ap     1.142272    40Ap     1.162896    28App    1.163640
      41Ap     1.223325    29App    1.274205    42Ap     1.274782
      43Ap     1.279342    44Ap     1.324210    30App    1.324508
      45Ap     1.355994    46Ap     1.366037    31App    1.366089
      32App    1.392458    47Ap     1.403754    33App    1.404333
      34App    1.417058    48Ap     1.417170    35App    1.427909
      36App    1.491493    49Ap     1.499085    50Ap     1.542660
      37App    1.543006    38App    1.574111    51Ap     1.574785
      52Ap     1.669808    53Ap     1.739105    39App    1.739730
      54Ap     1.768326    55Ap     1.831218    40App    1.831583
      41App    1.971725    42App    2.018052    56Ap     2.018204
      57Ap     2.020129    43App    2.052569    58Ap     2.052732
      59Ap     2.738205    44App    2.738772    60Ap     2.790924
      45App    2.811422    61Ap     2.888712    46App    2.891182
      62Ap     2.894935    63Ap     2.928939    47App    2.930061
      48App    2.958996    49App    2.963942    64Ap     2.964815
      65Ap     3.033996    66Ap     3.070672    50App    3.071920
      51App    3.084350    52App    3.168600    67Ap     3.168809
      68Ap     3.180752    69Ap     3.284794    53App    3.285824
      54App    3.326731    70Ap     3.327572    71Ap     3.375604
      72Ap     3.489583    55App    3.490711    56App    3.513998
      73Ap     3.525335    57App    3.568043    74Ap     3.568729
      58App    3.575162    59App    3.666287    75Ap     3.666433
      76Ap     3.679699    60App    3.694112    77Ap     3.694118
      78Ap     3.776036    61App    3.777550    79Ap     3.789160
      80Ap     3.911408    62App    3.913033    81Ap     4.034434
      82Ap     4.111264    63App    4.111466    83Ap     4.146961
      64App    4.149275    84Ap     4.173286    85Ap     4.201894
      86Ap     4.203423    65App    4.203492    66App    4.210880
      87Ap     4.314621    67App    4.317327    68App    4.358983
      69App    4.423966    88Ap     4.424951    70App    4.443436
      89Ap     4.516506    71App    4.517140    90Ap     4.577784
      72App    4.578421    91Ap     4.617855    92Ap     4.709476
      93Ap     4.774234    73App    4.774995    74App    4.836904
      94Ap     4.962816    75App    5.002421    95Ap     5.003553
      96Ap     5.228038    97Ap     5.246556    76App    5.247081
      98Ap     5.354918    77App    5.356091    78App    5.479345

    Beta Occupied:

       1App  -10.167783     1Ap   -10.167782     2Ap   -10.167757
       3Ap   -10.166519     4Ap    -0.781095     2App   -0.684243
       5Ap    -0.683735     6Ap    -0.511747     7Ap    -0.431268
       3App   -0.430816     8Ap    -0.421822     4App   -0.376804
       9Ap    -0.376563     5App   -0.362597     6App   -0.333943
      10Ap    -0.332298

    Beta Virtual:

      11Ap    -0.025742    12Ap     0.077081    13Ap     0.134991
       7App    0.135097    14Ap     0.144288     8App    0.144710
      15Ap     0.163338     9App    0.182430    16Ap     0.182469
      10App    0.215032    17Ap     0.218924    18Ap     0.281969
      11App    0.282696    19Ap     0.400167    12App    0.400631
      20Ap     0.419788    21Ap     0.426907    13App    0.426914
      22Ap     0.468500    23Ap     0.497631    14App    0.497668
      15App    0.513895    24Ap     0.556320    25Ap     0.584106
      16App    0.584631    26Ap     0.597784    17App    0.597854
      27Ap     0.610000    28Ap     0.628133    18App    0.631930
      29Ap     0.639383    19App    0.639697    30Ap     0.666945
      20App    0.667009    21App    0.686424    31Ap     0.686550
      32Ap     0.757517    33Ap     0.830473    22App    0.830679
      23App    0.855269    24App    0.922751    34Ap     0.923234
      25App    0.945963    35Ap     0.953546    36Ap     0.966372
      26App    0.966827    37Ap     1.008693    38Ap     1.131893
      27App    1.132362    39Ap     1.155619    40Ap     1.167991
      28App    1.168696    41Ap     1.232297    29App    1.279882
      42Ap     1.280298    43Ap     1.285099    44Ap     1.329201
      30App    1.329497    45Ap     1.365410    31App    1.371259
      46Ap     1.371355    32App    1.393515    47Ap     1.407159
      33App    1.407864    34App    1.422093    48Ap     1.422232
      35App    1.428177    36App    1.492541    49Ap     1.509529
      50Ap     1.547049    37App    1.547434    38App    1.582016
      51Ap     1.582623    52Ap     1.674656    53Ap     1.744868
      39App    1.745493    54Ap     1.779100    55Ap     1.835057
      40App    1.835454    41App    1.972585    42App    2.024481
      56Ap     2.026394    57Ap     2.039675    43App    2.059251
      58Ap     2.059494    59Ap     2.746516    44App    2.747131
      45App    2.811835    60Ap     2.816060    61Ap     2.901499
      46App    2.903764    62Ap     2.924645    63Ap     2.931335
      47App    2.932633    48App    2.960058    49App    2.968499
      64Ap     2.969345    65Ap     3.041930    66Ap     3.080649
      50App    3.081762    51App    3.086166    67Ap     3.184234
      52App    3.184422    68Ap     3.188689    69Ap     3.289664
      53App    3.290552    54App    3.330520    70Ap     3.331393
      71Ap     3.383422    72Ap     3.492287    55App    3.493462
      56App    3.512365    73Ap     3.528381    57App    3.574978
      58App    3.581517    74Ap     3.581983    75Ap     3.671021
      59App    3.671210    76Ap     3.692980    60App    3.725428
      77Ap     3.726064    78Ap     3.780531    61App    3.782124
      79Ap     3.817672    80Ap     3.921216    62App    3.922870
      81Ap     4.045321    82Ap     4.118129    63App    4.118235
      83Ap     4.154230    64App    4.156423    84Ap     4.187343
      85Ap     4.208320    65App    4.209422    86Ap     4.210905
      66App    4.215358    87Ap     4.321965    67App    4.324862
      68App    4.362345    69App    4.432181    88Ap     4.433171
      70App    4.446315    89Ap     4.524264    71App    4.524964
      90Ap     4.588373    72App    4.589005    91Ap     4.625075
      92Ap     4.719825    93Ap     4.781133    73App    4.782004
      74App    4.839821    94Ap     4.967607    75App    5.006474
      95Ap     5.007582    96Ap     5.233753    97Ap     5.248355
      76App    5.248852    98Ap     5.361354    77App    5.362618
      78App    5.481667

    Final Occupation by Irrep:
             Ap   App
    DOCC [    10,    6 ]
    SOCC [     1,    0 ]

  @DF-UKS Final Energy:  -157.81306176526354

   => Energetics <=

    Nuclear Repulsion Energy =            125.3947407606469824
    One-Electron Energy =                -458.7491230898137928
    Two-Electron Energy =                 195.8484672551907408
    DFT Exchange-Correlation Energy =     -20.3071466912874747
    Empirical Dispersion Energy =           0.0000000000000000
    VV10 Nonlocal Energy =                  0.0000000000000000
    Total Energy =                       -157.8130617652635408

  UHF NO Occupations:
  HONO-2 :    9 Ap 1.9996009
  HONO-1 :   10 Ap 1.9989805
  HONO-0 :   11 Ap 1.0000000
  LUNO+0 :   12 Ap 0.0010195
  LUNO+1 :   13 Ap 0.0003991
  LUNO+2 :   14 Ap 0.0001990
  LUNO+3 :    7App 0.0001961

Computation Completed

Properties will be evaluated at   0.000000,   0.000000,   0.000000 [a0]

Properties computed using the SCF density matrix

  Nuclear Dipole Moment: [e a0]
     X:     0.8272      Y:     0.0065      Z:     0.0000

  Electronic Dipole Moment: [e a0]
     X:    -0.7493      Y:    -0.0078      Z:     0.0000

  Dipole Moment: [e a0]
     X:     0.0779      Y:    -0.0013      Z:     0.0000     Total:     0.0779

  Dipole Moment: [D]
     X:     0.1980      Y:    -0.0033      Z:     0.0000     Total:     0.1981

*** tstop() called on n070 at Fri Nov  5 11:48:20 2021
Module time:
	user time   =     577.76 seconds =       9.63 minutes
	system time =      13.43 seconds =       0.22 minutes
	total time  =        149 seconds =       2.48 minutes
Total time:
	user time   =     577.76 seconds =       9.63 minutes
	system time =      13.43 seconds =       0.22 minutes
	total time  =        149 seconds =       2.48 minutes
Grab this energy -157.81306176526354
    Psi4 stopped on: Friday, 05 November 2021 11:48AM
    Psi4 wall time for execution: 0:02:28.79

*** Psi4 exiting successfully. Buy a developer a beer!
