                               Psi4 1.4a2.dev629

  ==> Input File <==

--------------------------------------------------------------------------
import os
memory 14 GB

molecule {
 C   -0.3233408920   -0.0024285966   -0.0002244980
 C    0.0605963467   -1.4003118689   -2.4237133411
 C    0.0618162048    2.8030146842   -0.0004838709
 C    0.0608861874   -1.4026920590    2.4268778327
 H    2.0855750873   -1.6421667257   -2.8497122963
 H   -0.7698017431   -0.3890978383   -4.0210857481
 H   -0.7623577836   -3.2953431881   -2.3489446529
 H    2.0893682468    3.2872825662    0.0001849577
 H   -0.7641688070    3.6831269069    1.6763511312
 H   -0.7642906980    3.6831492884   -1.6761685776
 H    2.0857169740   -1.6414158128    2.8487821250
 H   -0.7626444761   -3.2949293169    2.3478748503
 H   -0.7699625239   -0.3882123530    4.0202620880
units bohr
0 2
}

basis {

assign 6-31g_2dfp_

[ 6-31g_2dfp_ ]

spherical

!----------------------------------------------------------------------
! Basis Set Exchange
! Version v0.8.13
! https://www.basissetexchange.org
!----------------------------------------------------------------------
!   Basis set: 6-31G(2df,p)
! Description: 6-31G(2df,p)
!        Role: orbital
!     Version: 0  (Data from the original Basis Set Exchange)
!----------------------------------------------------------------------

****
H     0
S    3   1.00
     18.7311370              0.03349460
      2.8253937              0.23472695
      0.6401217              0.81375733
S    1   1.00
      0.1612778              1.00000000
P    1   1.00
      1.5000000              1.0000000
P    1   1.00
      0.3750000              1.0000000
****
B     0
S    6   1.00
   2068.8823000              0.0018663
    310.6495700              0.0142515
     70.6830330              0.0695516
     19.8610800              0.2325729
      6.2993048              0.4670787
      2.1270270              0.3634314
SP   3   1.00
      4.7279710             -0.1303938              0.0745976
      1.1903377             -0.1307889              0.3078467
      0.3594117              1.1309444              0.7434568
SP   1   1.00
      0.1267512              1.0000000              1.0000000
D    1   1.00
      0.8020000              1.0000000
D    1   1.00
      0.2005000              1.0000000
F    1   1.00
      0.5000000              1.0000000
****
C     0
S    6   1.00
   3047.5249000              0.0018347
    457.3695100              0.0140373
    103.9486900              0.0688426
     29.2101550              0.2321844
      9.2866630              0.4679413
      3.1639270              0.3623120
SP   3   1.00
      7.8682724             -0.1193324              0.0689991
      1.8812885             -0.1608542              0.3164240
      0.5442493              1.1434564              0.7443083
SP   1   1.00
      0.1687144              1.0000000              1.0000000
D    1   1.00
      1.2520000              1.0000000
D    1   1.00
      0.3130000              1.0000000
F    1   1.00
      0.8000000              1.0000000
****
N     0
S    6   1.00
   4173.5110000              0.0018348
    627.4579000              0.0139950
    142.9021000              0.0685870
     40.2343300              0.2322410
     12.8202100              0.4690700
      4.3904370              0.3604550
SP   3   1.00
     11.6263580             -0.1149610              0.0675800
      2.7162800             -0.1691180              0.3239070
      0.7722180              1.1458520              0.7408950
SP   1   1.00
      0.2120313              1.0000000              1.0000000
D    1   1.00
      1.8260000              1.0000000
D    1   1.00
      0.4565000              1.0000000
F    1   1.00
      1.0000000              1.0000000
****
O     0
S    6   1.00
   5484.6717000              0.0018311
    825.2349500              0.0139501
    188.0469600              0.0684451
     52.9645000              0.2327143
     16.8975700              0.4701930
      5.7996353              0.3585209
SP   3   1.00
     15.5396160             -0.1107775              0.0708743
      3.5999336             -0.1480263              0.3397528
      1.0137618              1.1307670              0.7271586
SP   1   1.00
      0.2700058              1.0000000              1.0000000
D    1   1.00
      2.5840000              1.0000000
D    1   1.00
      0.6460000              1.0000000
F    1   1.00
      1.4000000              1.0000000
****
F     0
S    6   1.00
   7001.7130900              0.0018196169
   1051.3660900              0.0139160796
    239.2856900              0.0684053245
     67.3974453              0.233185760
     21.5199573              0.471267439
      7.40310130             0.356618546
SP   3   1.00
     20.8479528             -0.108506975            0.0716287243
      4.80830834            -0.146451658            0.3459121030
      1.34406986             1.128688580            0.7224699570
SP   1   1.00
      0.358151393            1.0000000              1.0000000
D    1   1.00
      3.5000000              1.0000000
D    1   1.00
      0.8750000              1.0000000
F    1   1.00
      1.8500000              1.0000000
****
Al     0
S    6   1.00
  13983.1000000              0.00194267
   2098.7500000              0.0148599
    477.7050000              0.0728494
    134.3600000              0.2468300
     42.8709000              0.4872580
     14.5189000              0.3234960
SP   6   1.00
    239.6680000             -0.00292619             0.00460285
     57.4419000             -0.0374080              0.0331990
     18.2859000             -0.1144870              0.1362820
      6.5991400              0.1156350              0.3304760
      2.4904900              0.6125950              0.4491460
      0.9445400              0.3937990              0.2657040
SP   3   1.00
      1.2779000             -0.2276060             -0.0175130
      0.3975900              0.00144583             0.2445330
      0.1600950              1.0927900              0.8049340
SP   1   1.00
      0.0556577              1.0000000              1.0000000
D    1   1.00
      0.6500000              1.0000000
D    1   1.00
      0.1625000              1.0000000
F    1   1.00
      0.2500000              1.0000000
****
Si     0
S    6   1.00
  16115.9000000              0.00195948
   2425.5800000              0.01492880
    553.8670000              0.07284780
    156.3400000              0.24613000
     50.0683000              0.48591400
     17.0178000              0.32500200
SP   6   1.00
    292.7180000             -0.00278094             0.00443826
     69.8731000             -0.03571460             0.03266790
     22.3363000             -0.11498500             0.13472100
      8.1503900              0.09356340             0.32867800
      3.1345800              0.60301700             0.44964000
      1.2254300              0.41895900             0.26137200
SP   3   1.00
      1.7273800             -0.24463000            -0.01779510
      0.5729220              0.00431572             0.25353900
      0.2221920              1.09818000             0.80066900
SP   1   1.00
      0.0778369              1.00000000             1.00000000
D    1   1.00
      0.9000000              1.0000000
D    1   1.00
      0.2250000              1.0000000
F    1   1.00
      0.3200000              1.0000000
****
P     0
S    6   1.00
  19413.3000000              0.0018516
   2909.4200000              0.0142062
    661.3640000              0.0699995
    185.7590000              0.2400790
     59.1943000              0.4847620
     20.0310000              0.3352000
SP   6   1.00
    339.4780000             -0.00278217             0.00456462
     81.0101000             -0.0360499              0.03369360
     25.8780000             -0.1166310              0.13975500
      9.4522100              0.0968328              0.33936200
      3.6656600              0.6144180              0.45092100
      1.4674600              0.4037980              0.23858600
SP   3   1.00
      2.1562300             -0.2529230             -0.01776530
      0.7489970              0.0328517              0.27405800
      0.2831450              1.0812500              0.78542100
SP   1   1.00
      0.0998317              1.0000000              1.00000000
D    1   1.00
      1.1000000              1.0000000
D    1   1.00
      0.2750000              1.0000000
F    1   1.00
      0.4500000              1.0000000
****
S     0
S    6   1.00
  21917.1000000              0.0018690
   3301.4900000              0.0142300
    754.1460000              0.0696960
    212.7110000              0.2384870
     67.9896000              0.4833070
     23.0515000              0.3380740
SP   6   1.00
    423.7350000             -0.0023767              0.0040610
    100.7100000             -0.0316930              0.0306810
     32.1599000             -0.1133170              0.1304520
     11.8079000              0.0560900              0.3272050
      4.6311000              0.5922550              0.4528510
      1.8702500              0.4550060              0.2560420
SP   3   1.00
      2.6158400             -0.2503740             -0.0145110
      0.9221670              0.0669570              0.3102630
      0.3412870              1.0545100              0.7544830
SP   1   1.00
      0.1171670              1.0000000              1.0000000
D    1   1.00
      1.3000000              1.0000000
D    1   1.00
      0.3250000              1.0000000
F    1   1.00
      0.5500000              1.0000000
****
Cl     0
S    6   1.00
  25180.1000000              0.0018330
   3780.3500000              0.0140340
    860.4740000              0.0690970
    242.1450000              0.2374520
     77.3349000              0.4830340
     26.2470000              0.3398560
SP   6   1.00
    491.7650000             -0.0022974              0.0039894
    116.9840000             -0.0307140              0.0303180
     37.4153000             -0.1125280              0.1298800
     13.7834000              0.0450160              0.3279510
      5.4521500              0.5893530              0.4535270
      2.2258800              0.4652060              0.2521540
SP   3   1.00
      3.1864900             -0.2518300             -0.0142990
      1.1442700              0.0615890              0.3235720
      0.4203770              1.0601800              0.7435070
SP   1   1.00
      0.1426570              1.0000000              1.0000000
D    1   1.00
      1.5000000              1.0000000
D    1   1.00
      0.3750000              1.0000000
F    1   1.00
      0.7000000              1.0000000
****
}

set {
reference uhf
freeze_core true
e_convergence 10
d_convergence 10
dft_spherical_points 1202
dft_radial_points 99
}

e = energy('b3lyp')

print_out('Grab this energy {0}'.format(e))
--------------------------------------------------------------------------

    Molecular point group: c1

    Geometry (in Bohr), charge = 0, multiplicity = 2:

       Center              X                  Y                   Z               Mass
    ------------   -----------------  -----------------  -----------------  -----------------
         C           -0.323340474378    -0.001962473782    -0.000697564923    12.000000000000
         C            0.060596764322    -1.399845746082    -2.424186408023    12.000000000000
         C            0.061816622422     2.803480807018    -0.000956937823    12.000000000000
         C            0.060886605022    -1.402225936182     2.426404765777    12.000000000000
         H            2.085575504922    -1.641700602882    -2.850185363223     1.007825032230
         H           -0.769801325478    -0.388631715482    -4.021558815023     1.007825032230
         H           -0.762357365978    -3.294877065282    -2.349417719823     1.007825032230
         H            2.089368664422     3.287748689018    -0.000288109223     1.007825032230
         H           -0.764168389378     3.683593029718     1.675878064277     1.007825032230
         H           -0.764290280378     3.683615411218    -1.676641644523     1.007825032230
         H            2.085717391622    -1.640949689982     2.848309058077     1.007825032230
         H           -0.762644058478    -3.294463194082     2.347401783377     1.007825032230
         H           -0.769962106278    -0.387746230182     4.019789021077     1.007825032230

  Charge       = 0
  Multiplicity = 2
  Basis Set: ANONYMOUS31AB20E4
    Blend: 6-31G_2DFP_
  Basis Set: (ANONYMOUS31AB20E4 AUX)
    Blend: DEF2-UNIVERSAL-JKFIT

    Orbital Energies [Eh]
    ---------------------

    Alpha Occupied:

       1A    -10.180341     2A    -10.167233     3A    -10.166945
       4A    -10.166866     5A     -0.797767     6A     -0.686331
       7A     -0.686042     8A     -0.530776     9A     -0.441125
      10A     -0.434780    11A     -0.434563    12A     -0.382699
      13A     -0.382499    14A     -0.363612    15A     -0.338254
      16A     -0.337741    17A     -0.168960

    Alpha Virtual:

      18A      0.076073    19A      0.134089    20A      0.134221
      21A      0.142563    22A      0.142693    23A      0.154879
      24A      0.178696    25A      0.178859    26A      0.203545
      27A      0.214802    28A      0.275582    29A      0.276390
      30A      0.399207    31A      0.399236    32A      0.403358
      33A      0.424043    34A      0.424154    35A      0.456594
      36A      0.495334    37A      0.495444    38A      0.512160
      39A      0.513980    40A      0.578619    41A      0.579005
      42A      0.591402    43A      0.591872    44A      0.602576
      45A      0.624761    46A      0.631768    47A      0.636062
      48A      0.636444    49A      0.663199    50A      0.663626
      51A      0.683825    52A      0.683880    53A      0.734995
      54A      0.825346    55A      0.825469    56A      0.853916
      57A      0.914895    58A      0.915159    59A      0.944123
      60A      0.944613    61A      0.961247    62A      0.961339
      63A      1.003453    64A      1.128006    65A      1.128187
      66A      1.142215    67A      1.162968    68A      1.163599
      69A      1.223326    70A      1.274143    71A      1.274816
      72A      1.279381    73A      1.324218    74A      1.324496
      75A      1.355995    76A      1.365725    77A      1.366380
      78A      1.392440    79A      1.403685    80A      1.404409
      81A      1.416796    82A      1.417424    83A      1.427930
      84A      1.491490    85A      1.499083    86A      1.542674
      87A      1.542983    88A      1.574149    89A      1.574739
      90A      1.669827    91A      1.739114    92A      1.739728
      93A      1.768312    94A      1.830743    95A      1.832049
      96A      1.971730    97A      2.018178    98A      2.018523
      99A      2.019677   100A      2.051462   101A      2.053844
     102A      2.738349   103A      2.738616   104A      2.790928
     105A      2.811421   106A      2.889476   107A      2.890375
     108A      2.895001   109A      2.929317   110A      2.929679
     111A      2.958992   112A      2.964108   113A      2.964645
     114A      3.034008   115A      3.070966   116A      3.071602
     117A      3.084349   118A      3.168583   119A      3.168933
     120A      3.180635   121A      3.285269   122A      3.285360
     123A      3.326671   124A      3.327645   125A      3.375615
     126A      3.489757   127A      3.490552   128A      3.514003
     129A      3.525316   130A      3.567573   131A      3.569226
     132A      3.575145   133A      3.665682   134A      3.667024
     135A      3.679690   136A      3.693768   137A      3.694491
     138A      3.775462   139A      3.778096   140A      3.789174
     141A      3.911335   142A      3.913126   143A      4.034449
     144A      4.110331   145A      4.112407   146A      4.147494
     147A      4.148746   148A      4.173249   149A      4.202280
     150A      4.202615   151A      4.203898   152A      4.210886
     153A      4.315063   154A      4.316836   155A      4.358983
     156A      4.423399   157A      4.425411   158A      4.443542
     159A      4.515833   160A      4.517842   161A      4.577582
     162A      4.578933   163A      4.617536   164A      4.709451
     165A      4.773905   166A      4.775288   167A      4.836933
     168A      4.962816   169A      5.002016   170A      5.003942
     171A      5.228027   172A      5.246580   173A      5.247048
     174A      5.354553   175A      5.356466   176A      5.479349

    Beta Occupied:

       1A    -10.167989     2A    -10.167707     3A    -10.167627
       4A    -10.166518     5A     -0.781092     6A     -0.684124
       7A     -0.683854     8A     -0.511747     9A     -0.431157
      10A     -0.430928    11A     -0.421822    12A     -0.376798
      13A     -0.376570    14A     -0.362595    15A     -0.333378
      16A     -0.332863

    Beta Virtual:

      17A     -0.025742    18A      0.077082    19A      0.134978
      20A      0.135113    21A      0.144446    22A      0.144551
      23A      0.163338    24A      0.182380    25A      0.182518
      26A      0.215031    27A      0.218927    28A      0.281944
      29A      0.282724    30A      0.400389    31A      0.400403
      32A      0.419793    33A      0.426845    34A      0.426974
      35A      0.468503    36A      0.497598    37A      0.497701
      38A      0.513895    39A      0.556323    40A      0.584158
      41A      0.584568    42A      0.597600    43A      0.598031
      44A      0.609999    45A      0.628137    46A      0.631927
      47A      0.639341    48A      0.639734    49A      0.666771
      50A      0.667181    51A      0.686477    52A      0.686498
      53A      0.757517    54A      0.830516    55A      0.830636
      56A      0.855269    57A      0.922863    58A      0.923133
      59A      0.945960    60A      0.953541    61A      0.966531
      62A      0.966669    63A      1.008693    64A      1.132013
      65A      1.132243    66A      1.155582    67A      1.168039
      68A      1.168678    69A      1.232299    70A      1.279734
      71A      1.280416    72A      1.285139    73A      1.329225
      74A      1.329469    75A      1.365410    76A      1.371015
      77A      1.371575    78A      1.393499    79A      1.407145
      80A      1.407879    81A      1.421856    82A      1.422458
      83A      1.428207    84A      1.492539    85A      1.509526
      86A      1.547102    87A      1.547370    88A      1.582047
      89A      1.582586    90A      1.674674    91A      1.744862
      92A      1.745504    93A      1.779093    94A      1.834602
      95A      1.835901    96A      1.972589    97A      2.024897
      98A      2.025984    99A      2.039665   100A      2.058205
     101A      2.060542   102A      2.746691   103A      2.746946
     104A      2.811834   105A      2.816062   106A      2.902264
     107A      2.903012   108A      2.924636   109A      2.931806
     110A      2.932173   111A      2.960055   112A      2.968663
     113A      2.969180   114A      3.041943   115A      3.080911
     116A      3.081474   117A      3.086170   118A      3.184278
     119A      3.184627   120A      3.188429   121A      3.290064
     122A      3.290163   123A      3.330486   124A      3.331439
     125A      3.383435   126A      3.492457   127A      3.493313
     128A      3.512373   129A      3.528364   130A      3.574987
     131A      3.580945   132A      3.582543   133A      3.670427
     134A      3.671804   135A      3.692964   136A      3.725530
     137A      3.725985   138A      3.780024   139A      3.782611
     140A      3.817692   141A      3.921219   142A      3.922878
     143A      4.045336   144A      4.117131   145A      4.119236
     146A      4.154804   147A      4.155857   148A      4.187306
     149A      4.208356   150A      4.209409   151A      4.210867
     152A      4.215365   153A      4.322461   154A      4.324317
     155A      4.362347   156A      4.431654   157A      4.433546
     158A      4.446467   159A      4.523634   160A      4.525618
     161A      4.588176   162A      4.589538   163A      4.624733
     164A      4.719796   165A      4.780904   166A      4.782197
     167A      4.839851   168A      4.967611   169A      5.006055
     170A      5.007982   171A      5.233742   172A      5.248364
     173A      5.248832   174A      5.361011   175A      5.362970
     176A      5.481671

    Final Occupation by Irrep:
              A
    DOCC [    16 ]
    SOCC [     1 ]

  @DF-UKS Final Energy:  -157.81306684993098

   => Energetics <=

    Nuclear Repulsion Energy =            125.3946312850964802
    One-Electron Energy =                -458.7489204714410675
    Two-Electron Energy =                 195.8483667170349918
    DFT Exchange-Correlation Energy =     -20.3071443806213665
    Empirical Dispersion Energy =           0.0000000000000000
    VV10 Nonlocal Energy =                  0.0000000000000000
    Total Energy =                       -157.8130668499309763

  UHF NO Occupations:
  HONO-2 :   15  A 1.9996009
  HONO-1 :   16  A 1.9989805
  HONO-0 :   17  A 1.0000000
  LUNO+0 :   18  A 0.0010195
  LUNO+1 :   19  A 0.0003991
  LUNO+2 :   20  A 0.0001982
  LUNO+3 :   21  A 0.0001969

Computation Completed

Properties will be evaluated at   0.000000,   0.000000,   0.000000 [a0]

Properties computed using the SCF density matrix

  Nuclear Dipole Moment: [e a0]
     X:     0.8272      Y:     0.0033      Z:    -0.0033

  Electronic Dipole Moment: [e a0]
     X:    -0.7493      Y:    -0.0032      Z:     0.0034

  Dipole Moment: [e a0]
     X:     0.0779      Y:     0.0000      Z:     0.0001     Total:     0.0779

  Dipole Moment: [D]
     X:     0.1980      Y:     0.0001      Z:     0.0002     Total:     0.1980

*** tstop() called on n023 at Fri Nov  5 13:17:01 2021
Module time:
	user time   =     637.13 seconds =      10.62 minutes
	system time =      12.25 seconds =       0.20 minutes
	total time  =        163 seconds =       2.72 minutes
Total time:
	user time   =     637.13 seconds =      10.62 minutes
	system time =      12.25 seconds =       0.20 minutes
	total time  =        163 seconds =       2.72 minutes
Grab this energy -157.81306684993098
    Psi4 stopped on: Friday, 05 November 2021 01:17PM
    Psi4 wall time for execution: 0:02:43.26

*** Psi4 exiting successfully. Buy a developer a beer!
