                               Psi4 1.4a2.dev629

  ==> Input File <==

--------------------------------------------------------------------------
import os
memory 14 GB

molecule {
 C   -0.3233398952   -0.0004953722    0.0002466122
 C    0.0621517472   -1.4010042101   -2.4266781282
 C    0.0609234698    2.8009028232   -0.0001484902
 C    0.0602269464   -1.4012390363    2.4267907217
 H    2.0876506540   -1.6460371129   -2.8527030543
 H   -0.7633000846   -0.3890583401   -4.0226848362
 H   -0.7626553326   -3.2880245394   -2.3463429869
 H    2.0909804593    3.2876057800   -0.0018583059
 H   -0.7668557911    3.6793528385    1.6811175334
 H   -0.7687870407    3.6821943535   -1.6799672311
 H    2.0820311571   -1.6423670326    2.8426424428
 H   -0.7664578510   -3.2912908271    2.3527506478
 H   -0.7651763153   -0.3905636382    4.0268350750
units bohr
0 2
}

basis {

assign 6-31g_2dfp_

[ 6-31g_2dfp_ ]

spherical

!----------------------------------------------------------------------
! Basis Set Exchange
! Version v0.8.13
! https://www.basissetexchange.org
!----------------------------------------------------------------------
!   Basis set: 6-31G(2df,p)
! Description: 6-31G(2df,p)
!        Role: orbital
!     Version: 0  (Data from the original Basis Set Exchange)
!----------------------------------------------------------------------

****
H     0
S    3   1.00
     18.7311370              0.03349460
      2.8253937              0.23472695
      0.6401217              0.81375733
S    1   1.00
      0.1612778              1.00000000
P    1   1.00
      1.5000000              1.0000000
P    1   1.00
      0.3750000              1.0000000
****
B     0
S    6   1.00
   2068.8823000              0.0018663
    310.6495700              0.0142515
     70.6830330              0.0695516
     19.8610800              0.2325729
      6.2993048              0.4670787
      2.1270270              0.3634314
SP   3   1.00
      4.7279710             -0.1303938              0.0745976
      1.1903377             -0.1307889              0.3078467
      0.3594117              1.1309444              0.7434568
SP   1   1.00
      0.1267512              1.0000000              1.0000000
D    1   1.00
      0.8020000              1.0000000
D    1   1.00
      0.2005000              1.0000000
F    1   1.00
      0.5000000              1.0000000
****
C     0
S    6   1.00
   3047.5249000              0.0018347
    457.3695100              0.0140373
    103.9486900              0.0688426
     29.2101550              0.2321844
      9.2866630              0.4679413
      3.1639270              0.3623120
SP   3   1.00
      7.8682724             -0.1193324              0.0689991
      1.8812885             -0.1608542              0.3164240
      0.5442493              1.1434564              0.7443083
SP   1   1.00
      0.1687144              1.0000000              1.0000000
D    1   1.00
      1.2520000              1.0000000
D    1   1.00
      0.3130000              1.0000000
F    1   1.00
      0.8000000              1.0000000
****
N     0
S    6   1.00
   4173.5110000              0.0018348
    627.4579000              0.0139950
    142.9021000              0.0685870
     40.2343300              0.2322410
     12.8202100              0.4690700
      4.3904370              0.3604550
SP   3   1.00
     11.6263580             -0.1149610              0.0675800
      2.7162800             -0.1691180              0.3239070
      0.7722180              1.1458520              0.7408950
SP   1   1.00
      0.2120313              1.0000000              1.0000000
D    1   1.00
      1.8260000              1.0000000
D    1   1.00
      0.4565000              1.0000000
F    1   1.00
      1.0000000              1.0000000
****
O     0
S    6   1.00
   5484.6717000              0.0018311
    825.2349500              0.0139501
    188.0469600              0.0684451
     52.9645000              0.2327143
     16.8975700              0.4701930
      5.7996353              0.3585209
SP   3   1.00
     15.5396160             -0.1107775              0.0708743
      3.5999336             -0.1480263              0.3397528
      1.0137618              1.1307670              0.7271586
SP   1   1.00
      0.2700058              1.0000000              1.0000000
D    1   1.00
      2.5840000              1.0000000
D    1   1.00
      0.6460000              1.0000000
F    1   1.00
      1.4000000              1.0000000
****
F     0
S    6   1.00
   7001.7130900              0.0018196169
   1051.3660900              0.0139160796
    239.2856900              0.0684053245
     67.3974453              0.233185760
     21.5199573              0.471267439
      7.40310130             0.356618546
SP   3   1.00
     20.8479528             -0.108506975            0.0716287243
      4.80830834            -0.146451658            0.3459121030
      1.34406986             1.128688580            0.7224699570
SP   1   1.00
      0.358151393            1.0000000              1.0000000
D    1   1.00
      3.5000000              1.0000000
D    1   1.00
      0.8750000              1.0000000
F    1   1.00
      1.8500000              1.0000000
****
Al     0
S    6   1.00
  13983.1000000              0.00194267
   2098.7500000              0.0148599
    477.7050000              0.0728494
    134.3600000              0.2468300
     42.8709000              0.4872580
     14.5189000              0.3234960
SP   6   1.00
    239.6680000             -0.00292619             0.00460285
     57.4419000             -0.0374080              0.0331990
     18.2859000             -0.1144870              0.1362820
      6.5991400              0.1156350              0.3304760
      2.4904900              0.6125950              0.4491460
      0.9445400              0.3937990              0.2657040
SP   3   1.00
      1.2779000             -0.2276060             -0.0175130
      0.3975900              0.00144583             0.2445330
      0.1600950              1.0927900              0.8049340
SP   1   1.00
      0.0556577              1.0000000              1.0000000
D    1   1.00
      0.6500000              1.0000000
D    1   1.00
      0.1625000              1.0000000
F    1   1.00
      0.2500000              1.0000000
****
Si     0
S    6   1.00
  16115.9000000              0.00195948
   2425.5800000              0.01492880
    553.8670000              0.07284780
    156.3400000              0.24613000
     50.0683000              0.48591400
     17.0178000              0.32500200
SP   6   1.00
    292.7180000             -0.00278094             0.00443826
     69.8731000             -0.03571460             0.03266790
     22.3363000             -0.11498500             0.13472100
      8.1503900              0.09356340             0.32867800
      3.1345800              0.60301700             0.44964000
      1.2254300              0.41895900             0.26137200
SP   3   1.00
      1.7273800             -0.24463000            -0.01779510
      0.5729220              0.00431572             0.25353900
      0.2221920              1.09818000             0.80066900
SP   1   1.00
      0.0778369              1.00000000             1.00000000
D    1   1.00
      0.9000000              1.0000000
D    1   1.00
      0.2250000              1.0000000
F    1   1.00
      0.3200000              1.0000000
****
P     0
S    6   1.00
  19413.3000000              0.0018516
   2909.4200000              0.0142062
    661.3640000              0.0699995
    185.7590000              0.2400790
     59.1943000              0.4847620
     20.0310000              0.3352000
SP   6   1.00
    339.4780000             -0.00278217             0.00456462
     81.0101000             -0.0360499              0.03369360
     25.8780000             -0.1166310              0.13975500
      9.4522100              0.0968328              0.33936200
      3.6656600              0.6144180              0.45092100
      1.4674600              0.4037980              0.23858600
SP   3   1.00
      2.1562300             -0.2529230             -0.01776530
      0.7489970              0.0328517              0.27405800
      0.2831450              1.0812500              0.78542100
SP   1   1.00
      0.0998317              1.0000000              1.00000000
D    1   1.00
      1.1000000              1.0000000
D    1   1.00
      0.2750000              1.0000000
F    1   1.00
      0.4500000              1.0000000
****
S     0
S    6   1.00
  21917.1000000              0.0018690
   3301.4900000              0.0142300
    754.1460000              0.0696960
    212.7110000              0.2384870
     67.9896000              0.4833070
     23.0515000              0.3380740
SP   6   1.00
    423.7350000             -0.0023767              0.0040610
    100.7100000             -0.0316930              0.0306810
     32.1599000             -0.1133170              0.1304520
     11.8079000              0.0560900              0.3272050
      4.6311000              0.5922550              0.4528510
      1.8702500              0.4550060              0.2560420
SP   3   1.00
      2.6158400             -0.2503740             -0.0145110
      0.9221670              0.0669570              0.3102630
      0.3412870              1.0545100              0.7544830
SP   1   1.00
      0.1171670              1.0000000              1.0000000
D    1   1.00
      1.3000000              1.0000000
D    1   1.00
      0.3250000              1.0000000
F    1   1.00
      0.5500000              1.0000000
****
Cl     0
S    6   1.00
  25180.1000000              0.0018330
   3780.3500000              0.0140340
    860.4740000              0.0690970
    242.1450000              0.2374520
     77.3349000              0.4830340
     26.2470000              0.3398560
SP   6   1.00
    491.7650000             -0.0022974              0.0039894
    116.9840000             -0.0307140              0.0303180
     37.4153000             -0.1125280              0.1298800
     13.7834000              0.0450160              0.3279510
      5.4521500              0.5893530              0.4535270
      2.2258800              0.4652060              0.2521540
SP   3   1.00
      3.1864900             -0.2518300             -0.0142990
      1.1442700              0.0615890              0.3235720
      0.4203770              1.0601800              0.7435070
SP   1   1.00
      0.1426570              1.0000000              1.0000000
D    1   1.00
      1.5000000              1.0000000
D    1   1.00
      0.3750000              1.0000000
F    1   1.00
      0.7000000              1.0000000
****
}

set {
reference uhf
freeze_core true
e_convergence 10
d_convergence 10
dft_spherical_points 1202
dft_radial_points 99
}

e = energy('b3lyp')

print_out('Grab this energy {0}'.format(e))
--------------------------------------------------------------------------

    Molecular point group: c1

    Geometry (in Bohr), charge = 0, multiplicity = 2:

       Center              X                  Y                   Z               Mass
    ------------   -----------------  -----------------  -----------------  -----------------
         C           -0.323340329153    -0.000141355420     0.000206026875    12.000000000000
         C            0.062151313247    -1.400650193320    -2.426718713525    12.000000000000
         C            0.060923035847     2.801256839980    -0.000189075525    12.000000000000
         C            0.060226512447    -1.400885019520     2.426750136375    12.000000000000
         H            2.087650220047    -1.645683096120    -2.852743639625     1.007825032230
         H           -0.763300518553    -0.388704323320    -4.022725421525     1.007825032230
         H           -0.762655766553    -3.287670522620    -2.346383572225     1.007825032230
         H            2.090980025347     3.287959796780    -0.001898891225     1.007825032230
         H           -0.766856225053     3.679706855280     1.681076948075     1.007825032230
         H           -0.768787474653     3.682548370280    -1.680007816425     1.007825032230
         H            2.082030723147    -1.642013015820     2.842601857475     1.007825032230
         H           -0.766458284953    -3.290936810320     2.352710062475     1.007825032230
         H           -0.765176749253    -0.390209621420     4.026794489675     1.007825032230

  Charge       = 0
  Multiplicity = 2
  Basis Set: ANONYMOUSCF6CFCBE
    Blend: 6-31G_2DFP_
  Basis Set: (ANONYMOUSCF6CFCBE AUX)
    Blend: DEF2-UNIVERSAL-JKFIT

    Orbital Energies [Eh]
    ---------------------

    Alpha Occupied:

       1A    -10.180343     2A    -10.167686     3A    -10.166712
       4A    -10.166647     5A     -0.797767     6A     -0.686510
       7A     -0.685866     8A     -0.530775     9A     -0.441127
      10A     -0.434795    11A     -0.434549    12A     -0.382913
      13A     -0.382283    14A     -0.363612    15A     -0.338154
      16A     -0.337842    17A     -0.168961

    Alpha Virtual:

      18A      0.076071    19A      0.134099    20A      0.134195
      21A      0.142405    22A      0.142862    23A      0.154876
      24A      0.178432    25A      0.179125    26A      0.203550
      27A      0.214805    28A      0.275935    29A      0.276036
      30A      0.399078    31A      0.399376    32A      0.403345
      33A      0.423957    34A      0.424237    35A      0.456593
      36A      0.495318    37A      0.495460    38A      0.512163
      39A      0.513980    40A      0.578629    41A      0.578990
      42A      0.591235    43A      0.591991    44A      0.602624
      45A      0.624767    46A      0.631668    47A      0.635862
      48A      0.636743    49A      0.663229    50A      0.663602
      51A      0.683528    52A      0.684191    53A      0.734993
      54A      0.824993    55A      0.825811    56A      0.853917
      57A      0.914707    58A      0.915343    59A      0.944113
      60A      0.944611    61A      0.961029    62A      0.961586
      63A      1.003453    64A      1.127582    65A      1.128635
      66A      1.142204    67A      1.163094    68A      1.163455
      69A      1.223325    70A      1.274282    71A      1.274681
      72A      1.279368    73A      1.323988    74A      1.324712
      75A      1.355964    76A      1.365795    77A      1.366325
      78A      1.392451    79A      1.403418    80A      1.404664
      81A      1.416635    82A      1.417562    83A      1.427930
      84A      1.491499    85A      1.499067    86A      1.542796
      87A      1.542883    88A      1.573891    89A      1.575024
      90A      1.669803    91A      1.739293    92A      1.739500
      93A      1.768340    94A      1.829799    95A      1.833070
      96A      1.971694    97A      2.018073    98A      2.018938
      99A      2.019373   100A      2.052188   101A      2.053146
     102A      2.738042   103A      2.738934   104A      2.790927
     105A      2.811431   106A      2.889570   107A      2.890261
     108A      2.895013   109A      2.929174   110A      2.929812
     111A      2.959000   112A      2.963828   113A      2.964949
     114A      3.034015   115A      3.070600   116A      3.071964
     117A      3.084381   118A      3.168529   119A      3.169038
     120A      3.180588   121A      3.285185   122A      3.285452
     123A      3.326292   124A      3.328042   125A      3.375610
     126A      3.488804   127A      3.491515   128A      3.514009
     129A      3.525349   130A      3.568219   131A      3.568369
     132A      3.575343   133A      3.665440   134A      3.667224
     135A      3.679657   136A      3.693345   137A      3.694930
     138A      3.776205   139A      3.777410   140A      3.789176
     141A      3.911748   142A      3.912694   143A      4.034431
     144A      4.110552   145A      4.112053   146A      4.146008
     147A      4.150134   148A      4.173319   149A      4.200539
     150A      4.203264   151A      4.204934   152A      4.211151
     153A      4.315241   154A      4.316671   155A      4.358949
     156A      4.424121   157A      4.424720   158A      4.443530
     159A      4.516130   160A      4.517487   161A      4.577861
     162A      4.578733   163A      4.617583   164A      4.709432
     165A      4.773980   166A      4.775229   167A      4.836883
     168A      4.962868   169A      5.002201   170A      5.003749
     171A      5.227860   172A      5.243030   173A      5.250567
     174A      5.352670   175A      5.358543   176A      5.479430

    Beta Occupied:

       1A    -10.168448     2A    -10.167465     3A    -10.167413
       4A    -10.166518     5A     -0.781093     6A     -0.684312
       7A     -0.683669     8A     -0.511746     9A     -0.431182
      10A     -0.430904    11A     -0.421825    12A     -0.377008
      13A     -0.376357    14A     -0.362595    15A     -0.333265
      16A     -0.332978

    Beta Virtual:

      17A     -0.025743    18A      0.077080    19A      0.134966
      20A      0.135109    21A      0.144313    22A      0.144694
      23A      0.163334    24A      0.182110    25A      0.182791
      26A      0.215035    27A      0.218932    28A      0.282278
      29A      0.282388    30A      0.400249    31A      0.400545
      32A      0.419791    33A      0.426765    34A      0.427052
      35A      0.468501    36A      0.497579    37A      0.497722
      38A      0.513898    39A      0.556324    40A      0.584170
      41A      0.584549    42A      0.597430    43A      0.598164
      44A      0.610036    45A      0.628144    46A      0.631872
      47A      0.639141    48A      0.639988    49A      0.666777
      50A      0.667180    51A      0.686201    52A      0.686789
      53A      0.757516    54A      0.830136    55A      0.831004
      56A      0.855271    57A      0.922704    58A      0.923289
      59A      0.945952    60A      0.953536    61A      0.966368
      62A      0.966859    63A      1.008693    64A      1.131635
      65A      1.132639    66A      1.155573    67A      1.168133
      68A      1.168570    69A      1.232297    70A      1.279883
      71A      1.280277    72A      1.285120    73A      1.328930
      74A      1.329748    75A      1.365359    76A      1.371059
      77A      1.371570    78A      1.393511    79A      1.406866
      80A      1.408145    81A      1.421645    82A      1.422639
      83A      1.428212    84A      1.492548    85A      1.509506
      86A      1.547116    87A      1.547385    88A      1.581684
      89A      1.582970    90A      1.674648    91A      1.745067
      92A      1.745256    93A      1.779115    94A      1.833684
      95A      1.836897    96A      1.972558    97A      2.025368
      98A      2.025514    99A      2.039669   100A      2.058878
     101A      2.059894   102A      2.746363   103A      2.747284
     104A      2.811843   105A      2.816062   106A      2.902352
     107A      2.902907   108A      2.924661   109A      2.931681
     110A      2.932274   111A      2.960069   112A      2.968333
     113A      2.969528   114A      3.041948   115A      3.080436
     116A      3.081910   117A      3.086236   118A      3.184257
     119A      3.184791   120A      3.188288   121A      3.289938
     122A      3.290296   123A      3.330108   124A      3.331834
     125A      3.383428   126A      3.491572   127A      3.494208
     128A      3.512375   129A      3.528393   130A      3.574835
     131A      3.581756   132A      3.581876   133A      3.670163
     134A      3.672014   135A      3.692970   136A      3.725147
     137A      3.726364   138A      3.780765   139A      3.781914
     140A      3.817704   141A      3.921576   142A      3.922500
     143A      4.045314   144A      4.117589   145A      4.118626
     146A      4.153443   147A      4.157152   148A      4.187369
     149A      4.207191   150A      4.209376   151A      4.212003
     152A      4.215639   153A      4.322807   154A      4.323982
     155A      4.362313   156A      4.432340   157A      4.432884
     158A      4.446462   159A      4.523946   160A      4.525253
     161A      4.588507   162A      4.589287   163A      4.624775
     164A      4.719775   165A      4.780896   166A      4.782220
     167A      4.839800   168A      4.967664   169A      5.006263
     170A      5.007765   171A      5.233573   172A      5.244816
     173A      5.252357   174A      5.359162   175A      5.365009
     176A      5.481750

    Final Occupation by Irrep:
              A
    DOCC [    16 ]
    SOCC [     1 ]

  @DF-UKS Final Energy:  -157.81305182299266

   => Energetics <=

    Nuclear Repulsion Energy =            125.3946643222964354
    One-Electron Energy =                -458.7489420797117532
    Two-Electron Energy =                 195.8483740296261146
    DFT Exchange-Correlation Energy =     -20.3071480952034555
    Empirical Dispersion Energy =           0.0000000000000000
    VV10 Nonlocal Energy =                  0.0000000000000000
    Total Energy =                       -157.8130518229926622

  UHF NO Occupations:
  HONO-2 :   15  A 1.9996008
  HONO-1 :   16  A 1.9989805
  HONO-0 :   17  A 1.0000000
  LUNO+0 :   18  A 0.0010195
  LUNO+1 :   19  A 0.0003992
  LUNO+2 :   20  A 0.0001977
  LUNO+3 :   21  A 0.0001974

Computation Completed

Properties will be evaluated at   0.000000,   0.000000,   0.000000 [a0]

Properties computed using the SCF density matrix

  Nuclear Dipole Moment: [e a0]
     X:     0.8272      Y:     0.0025      Z:    -0.0003

  Electronic Dipole Moment: [e a0]
     X:    -0.7493      Y:    -0.0049      Z:     0.0010

  Dipole Moment: [e a0]
     X:     0.0779      Y:    -0.0024      Z:     0.0008     Total:     0.0780

  Dipole Moment: [D]
     X:     0.1980      Y:    -0.0062      Z:     0.0019     Total:     0.1981

*** tstop() called on n091 at Fri Nov  5 15:09:07 2021
Module time:
	user time   =     493.18 seconds =       8.22 minutes
	system time =       4.47 seconds =       0.07 minutes
	total time  =        125 seconds =       2.08 minutes
Total time:
	user time   =     493.18 seconds =       8.22 minutes
	system time =       4.47 seconds =       0.07 minutes
	total time  =        125 seconds =       2.08 minutes
Grab this energy -157.81305182299266
    Psi4 stopped on: Friday, 05 November 2021 03:09PM
    Psi4 wall time for execution: 0:02:05.13

*** Psi4 exiting successfully. Buy a developer a beer!
