                               Psi4 1.4a2.dev629

  ==> Input File <==

--------------------------------------------------------------------------
import os
memory 14 GB

molecule {
 C   -0.3233623054   -0.0000020260   -0.0000000140
 C    0.0610475335   -1.4013848644   -2.4253272425
 C    0.0609277655    2.8011008151   -0.0009661112
 C    0.0610475214   -1.3997116075    2.4262933062
 H    2.0900911689   -1.6461730669   -2.8458267109
 H   -0.7692965562   -0.3846316849   -4.0283664997
 H   -0.7647315559   -3.2927351085   -2.3482063174
 H    2.0899522980    3.2877428315   -0.0026043619
 H   -0.7695378222    3.6809574163    1.6810508423
 H   -0.7648090174    3.6799448899   -1.6775272619
 H    2.0900918114   -1.6416623745    2.8484309178
 H   -0.7694603340   -3.2962923742    2.3473218600
 H   -0.7645683841   -0.3871771594    4.0257275930
units bohr
0 2
}

basis {

assign 6-31g_2dfp_

[ 6-31g_2dfp_ ]

spherical

!----------------------------------------------------------------------
! Basis Set Exchange
! Version v0.8.13
! https://www.basissetexchange.org
!----------------------------------------------------------------------
!   Basis set: 6-31G(2df,p)
! Description: 6-31G(2df,p)
!        Role: orbital
!     Version: 0  (Data from the original Basis Set Exchange)
!----------------------------------------------------------------------

****
H     0
S    3   1.00
     18.7311370              0.03349460
      2.8253937              0.23472695
      0.6401217              0.81375733
S    1   1.00
      0.1612778              1.00000000
P    1   1.00
      1.5000000              1.0000000
P    1   1.00
      0.3750000              1.0000000
****
B     0
S    6   1.00
   2068.8823000              0.0018663
    310.6495700              0.0142515
     70.6830330              0.0695516
     19.8610800              0.2325729
      6.2993048              0.4670787
      2.1270270              0.3634314
SP   3   1.00
      4.7279710             -0.1303938              0.0745976
      1.1903377             -0.1307889              0.3078467
      0.3594117              1.1309444              0.7434568
SP   1   1.00
      0.1267512              1.0000000              1.0000000
D    1   1.00
      0.8020000              1.0000000
D    1   1.00
      0.2005000              1.0000000
F    1   1.00
      0.5000000              1.0000000
****
C     0
S    6   1.00
   3047.5249000              0.0018347
    457.3695100              0.0140373
    103.9486900              0.0688426
     29.2101550              0.2321844
      9.2866630              0.4679413
      3.1639270              0.3623120
SP   3   1.00
      7.8682724             -0.1193324              0.0689991
      1.8812885             -0.1608542              0.3164240
      0.5442493              1.1434564              0.7443083
SP   1   1.00
      0.1687144              1.0000000              1.0000000
D    1   1.00
      1.2520000              1.0000000
D    1   1.00
      0.3130000              1.0000000
F    1   1.00
      0.8000000              1.0000000
****
N     0
S    6   1.00
   4173.5110000              0.0018348
    627.4579000              0.0139950
    142.9021000              0.0685870
     40.2343300              0.2322410
     12.8202100              0.4690700
      4.3904370              0.3604550
SP   3   1.00
     11.6263580             -0.1149610              0.0675800
      2.7162800             -0.1691180              0.3239070
      0.7722180              1.1458520              0.7408950
SP   1   1.00
      0.2120313              1.0000000              1.0000000
D    1   1.00
      1.8260000              1.0000000
D    1   1.00
      0.4565000              1.0000000
F    1   1.00
      1.0000000              1.0000000
****
O     0
S    6   1.00
   5484.6717000              0.0018311
    825.2349500              0.0139501
    188.0469600              0.0684451
     52.9645000              0.2327143
     16.8975700              0.4701930
      5.7996353              0.3585209
SP   3   1.00
     15.5396160             -0.1107775              0.0708743
      3.5999336             -0.1480263              0.3397528
      1.0137618              1.1307670              0.7271586
SP   1   1.00
      0.2700058              1.0000000              1.0000000
D    1   1.00
      2.5840000              1.0000000
D    1   1.00
      0.6460000              1.0000000
F    1   1.00
      1.4000000              1.0000000
****
F     0
S    6   1.00
   7001.7130900              0.0018196169
   1051.3660900              0.0139160796
    239.2856900              0.0684053245
     67.3974453              0.233185760
     21.5199573              0.471267439
      7.40310130             0.356618546
SP   3   1.00
     20.8479528             -0.108506975            0.0716287243
      4.80830834            -0.146451658            0.3459121030
      1.34406986             1.128688580            0.7224699570
SP   1   1.00
      0.358151393            1.0000000              1.0000000
D    1   1.00
      3.5000000              1.0000000
D    1   1.00
      0.8750000              1.0000000
F    1   1.00
      1.8500000              1.0000000
****
Al     0
S    6   1.00
  13983.1000000              0.00194267
   2098.7500000              0.0148599
    477.7050000              0.0728494
    134.3600000              0.2468300
     42.8709000              0.4872580
     14.5189000              0.3234960
SP   6   1.00
    239.6680000             -0.00292619             0.00460285
     57.4419000             -0.0374080              0.0331990
     18.2859000             -0.1144870              0.1362820
      6.5991400              0.1156350              0.3304760
      2.4904900              0.6125950              0.4491460
      0.9445400              0.3937990              0.2657040
SP   3   1.00
      1.2779000             -0.2276060             -0.0175130
      0.3975900              0.00144583             0.2445330
      0.1600950              1.0927900              0.8049340
SP   1   1.00
      0.0556577              1.0000000              1.0000000
D    1   1.00
      0.6500000              1.0000000
D    1   1.00
      0.1625000              1.0000000
F    1   1.00
      0.2500000              1.0000000
****
Si     0
S    6   1.00
  16115.9000000              0.00195948
   2425.5800000              0.01492880
    553.8670000              0.07284780
    156.3400000              0.24613000
     50.0683000              0.48591400
     17.0178000              0.32500200
SP   6   1.00
    292.7180000             -0.00278094             0.00443826
     69.8731000             -0.03571460             0.03266790
     22.3363000             -0.11498500             0.13472100
      8.1503900              0.09356340             0.32867800
      3.1345800              0.60301700             0.44964000
      1.2254300              0.41895900             0.26137200
SP   3   1.00
      1.7273800             -0.24463000            -0.01779510
      0.5729220              0.00431572             0.25353900
      0.2221920              1.09818000             0.80066900
SP   1   1.00
      0.0778369              1.00000000             1.00000000
D    1   1.00
      0.9000000              1.0000000
D    1   1.00
      0.2250000              1.0000000
F    1   1.00
      0.3200000              1.0000000
****
P     0
S    6   1.00
  19413.3000000              0.0018516
   2909.4200000              0.0142062
    661.3640000              0.0699995
    185.7590000              0.2400790
     59.1943000              0.4847620
     20.0310000              0.3352000
SP   6   1.00
    339.4780000             -0.00278217             0.00456462
     81.0101000             -0.0360499              0.03369360
     25.8780000             -0.1166310              0.13975500
      9.4522100              0.0968328              0.33936200
      3.6656600              0.6144180              0.45092100
      1.4674600              0.4037980              0.23858600
SP   3   1.00
      2.1562300             -0.2529230             -0.01776530
      0.7489970              0.0328517              0.27405800
      0.2831450              1.0812500              0.78542100
SP   1   1.00
      0.0998317              1.0000000              1.00000000
D    1   1.00
      1.1000000              1.0000000
D    1   1.00
      0.2750000              1.0000000
F    1   1.00
      0.4500000              1.0000000
****
S     0
S    6   1.00
  21917.1000000              0.0018690
   3301.4900000              0.0142300
    754.1460000              0.0696960
    212.7110000              0.2384870
     67.9896000              0.4833070
     23.0515000              0.3380740
SP   6   1.00
    423.7350000             -0.0023767              0.0040610
    100.7100000             -0.0316930              0.0306810
     32.1599000             -0.1133170              0.1304520
     11.8079000              0.0560900              0.3272050
      4.6311000              0.5922550              0.4528510
      1.8702500              0.4550060              0.2560420
SP   3   1.00
      2.6158400             -0.2503740             -0.0145110
      0.9221670              0.0669570              0.3102630
      0.3412870              1.0545100              0.7544830
SP   1   1.00
      0.1171670              1.0000000              1.0000000
D    1   1.00
      1.3000000              1.0000000
D    1   1.00
      0.3250000              1.0000000
F    1   1.00
      0.5500000              1.0000000
****
Cl     0
S    6   1.00
  25180.1000000              0.0018330
   3780.3500000              0.0140340
    860.4740000              0.0690970
    242.1450000              0.2374520
     77.3349000              0.4830340
     26.2470000              0.3398560
SP   6   1.00
    491.7650000             -0.0022974              0.0039894
    116.9840000             -0.0307140              0.0303180
     37.4153000             -0.1125280              0.1298800
     13.7834000              0.0450160              0.3279510
      5.4521500              0.5893530              0.4535270
      2.2258800              0.4652060              0.2521540
SP   3   1.00
      3.1864900             -0.2518300             -0.0142990
      1.1442700              0.0615890              0.3235720
      0.4203770              1.0601800              0.7435070
SP   1   1.00
      0.1426570              1.0000000              1.0000000
D    1   1.00
      1.5000000              1.0000000
D    1   1.00
      0.3750000              1.0000000
F    1   1.00
      0.7000000              1.0000000
****
}

set {
reference uhf
freeze_core true
e_convergence 10
d_convergence 10
dft_spherical_points 1202
dft_radial_points 99
}

e = energy('b3lyp')

print_out('Grab this energy {0}'.format(e))
--------------------------------------------------------------------------

    Molecular point group: c1

    Geometry (in Bohr), charge = 0, multiplicity = 2:

       Center              X                  Y                   Z               Mass
    ------------   -----------------  -----------------  -----------------  -----------------
         C           -0.323304619516    -0.000002042949    -0.000000002151    12.000000000000
         C            0.061105219384    -1.401384881349    -2.425327230651    12.000000000000
         C            0.060985451384     2.801100798151    -0.000966099351    12.000000000000
         C            0.061105207284    -1.399711624449     2.426293318049    12.000000000000
         H            2.090148854784    -1.646173083849    -2.845826699051     1.007825032230
         H           -0.769238870316    -0.384631701849    -4.028366487851     1.007825032230
         H           -0.764673870016    -3.292735125449    -2.348206305551     1.007825032230
         H            2.090009983884     3.287742814551    -0.002604350051     1.007825032230
         H           -0.769480136316     3.680957399351     1.681050854149     1.007825032230
         H           -0.764751331516     3.679944872951    -1.677527250051     1.007825032230
         H            2.090149497284    -1.641662391449     2.848430929649     1.007825032230
         H           -0.769402648116    -3.296292391149     2.347321871849     1.007825032230
         H           -0.764510698216    -0.387177176349     4.025727604849     1.007825032230

  Charge       = 0
  Multiplicity = 2
  Basis Set: ANONYMOUS2EA4D626
    Blend: 6-31G_2DFP_
  Basis Set: (ANONYMOUS2EA4D626 AUX)
    Blend: DEF2-UNIVERSAL-JKFIT

    Orbital Energies [Eh]
    ---------------------

    Alpha Occupied:

       1A    -10.180410     2A    -10.167566     3A    -10.167565
       4A    -10.167520     5A     -0.797806     6A     -0.685829
       7A     -0.685829     8A     -0.530467     9A     -0.441023
      10A     -0.434533    11A     -0.434532    12A     -0.382341
      13A     -0.382340    14A     -0.363295    15A     -0.337993
      16A     -0.337993    17A     -0.169023

    Alpha Virtual:

      18A      0.075739    19A      0.133777    20A      0.133778
      21A      0.142226    22A      0.142226    23A      0.154580
      24A      0.178274    25A      0.178274    26A      0.203655
      27A      0.214349    28A      0.275962    29A      0.275963
      30A      0.399282    31A      0.399286    32A      0.403135
      33A      0.423822    34A      0.423823    35A      0.456457
      36A      0.495166    37A      0.495167    38A      0.511890
      39A      0.513847    40A      0.578477    41A      0.578485
      42A      0.591030    43A      0.591032    44A      0.601920
      45A      0.623749    46A      0.631126    47A      0.635679
      48A      0.635682    49A      0.663079    50A      0.663079
      51A      0.683316    52A      0.683317    53A      0.734684
      54A      0.824588    55A      0.824591    56A      0.853398
      57A      0.914313    58A      0.914319    59A      0.943466
      60A      0.943860    61A      0.960628    62A      0.960644
      63A      1.003357    64A      1.127687    65A      1.127699
      66A      1.141345    67A      1.163006    68A      1.163019
      69A      1.222878    70A      1.273955    71A      1.273958
      72A      1.279801    73A      1.323630    74A      1.323632
      75A      1.355133    76A      1.365549    77A      1.365554
      78A      1.391886    79A      1.403023    80A      1.403025
      81A      1.416176    82A      1.416183    83A      1.427155
      84A      1.490568    85A      1.497746    86A      1.542307
      87A      1.542309    88A      1.574284    89A      1.574287
      90A      1.667671    91A      1.737970    92A      1.737982
      93A      1.766799    94A      1.828929    95A      1.828930
      96A      1.970071    97A      2.017259    98A      2.017845
      99A      2.017849   100A      2.051565   101A      2.051566
     102A      2.737507   103A      2.737508   104A      2.790711
     105A      2.810918   106A      2.889386   107A      2.889392
     108A      2.894863   109A      2.929110   110A      2.929118
     111A      2.958375   112A      2.963731   113A      2.963746
     114A      3.033095   115A      3.070338   116A      3.070352
     117A      3.083448   118A      3.169445   119A      3.169453
     120A      3.180295   121A      3.285344   122A      3.285344
     123A      3.327681   124A      3.327687   125A      3.376311
     126A      3.491150   127A      3.491170   128A      3.514298
     129A      3.525965   130A      3.568194   131A      3.568214
     132A      3.576809   133A      3.665635   134A      3.665643
     135A      3.677843   136A      3.693296   137A      3.693313
     138A      3.776248   139A      3.776274   140A      3.788554
     141A      3.911283   142A      3.911290   143A      4.032094
     144A      4.108833   145A      4.108837   146A      4.144856
     147A      4.144864   148A      4.170164   149A      4.201220
     150A      4.201685   151A      4.201689   152A      4.207333
     153A      4.313714   154A      4.313734   155A      4.356558
     156A      4.421886   157A      4.421888   158A      4.441413
     159A      4.514416   160A      4.514417   161A      4.576787
     162A      4.576800   163A      4.616846   164A      4.707435
     165A      4.772827   166A      4.772835   167A      4.834546
     168A      4.962103   169A      5.001863   170A      5.001876
     171A      5.222737   172A      5.241442   173A      5.241442
     174A      5.350998   175A      5.351010   176A      5.476163

    Beta Occupied:

       1A    -10.168322     2A    -10.168322     3A    -10.168291
       4A    -10.166602     5A     -0.781104     6A     -0.683634
       7A     -0.683633     8A     -0.511496     9A     -0.430895
      10A     -0.430894    11A     -0.421686    12A     -0.376418
      13A     -0.376416    14A     -0.362276    15A     -0.333126
      16A     -0.333126

    Beta Virtual:

      17A     -0.025976    18A      0.076752    19A      0.134659
      20A      0.134659    21A      0.144124    22A      0.144124
      23A      0.163102    24A      0.181954    25A      0.181954
      26A      0.214575    27A      0.219025    28A      0.282300
      29A      0.282302    30A      0.400455    31A      0.400460
      32A      0.419568    33A      0.426631    34A      0.426632
      35A      0.468383    36A      0.497428    37A      0.497429
      38A      0.513632    39A      0.556133    40A      0.584010
      41A      0.584018    42A      0.597190    43A      0.597191
      44A      0.609356    45A      0.627110    46A      0.631315
      47A      0.638986    48A      0.638990    49A      0.666638
      50A      0.666638    51A      0.685986    52A      0.685987
      53A      0.757182    54A      0.829759    55A      0.829762
      56A      0.854775    57A      0.922298    58A      0.922305
      59A      0.945337    60A      0.952734    61A      0.965942
      62A      0.965958    63A      1.008585    64A      1.131728
      65A      1.131740    66A      1.154735    67A      1.168050
      68A      1.168063    69A      1.231868    70A      1.279564
      71A      1.279567    72A      1.285567    73A      1.328592
      74A      1.328594    75A      1.364524    76A      1.370795
      77A      1.370799    78A      1.392950    79A      1.406492
      80A      1.406495    81A      1.421227    82A      1.421234
      83A      1.427435    84A      1.491624    85A      1.508174
      86A      1.546848    87A      1.546848    88A      1.582047
      89A      1.582048    90A      1.672444    91A      1.743725
      92A      1.743736    93A      1.777636    94A      1.832815
      95A      1.832816    96A      1.970947    97A      2.024265
      98A      2.024268    99A      2.038642   100A      2.058281
     101A      2.058282   102A      2.745831   103A      2.745832
     104A      2.811323   105A      2.815825   106A      2.902029
     107A      2.902034   108A      2.924535   109A      2.931640
     110A      2.931649   111A      2.959433   112A      2.968235
     113A      2.968249   114A      3.041107   115A      3.080193
     116A      3.080204   117A      3.085264   118A      3.185246
     119A      3.185250   120A      3.187912   121A      3.290197
     122A      3.290198   123A      3.331479   124A      3.331484
     125A      3.384106   126A      3.493835   127A      3.493855
     128A      3.512660   129A      3.528991   130A      3.576679
     131A      3.581508   132A      3.581530   133A      3.670124
     134A      3.670135   135A      3.691072   136A      3.725072
     137A      3.725088   138A      3.780788   139A      3.780814
     140A      3.817073   141A      3.921114   142A      3.921121
     143A      4.042859   144A      4.115566   145A      4.115568
     146A      4.152112   147A      4.152121   148A      4.184318
     149A      4.207622   150A      4.207626   151A      4.209211
     152A      4.211932   153A      4.321237   154A      4.321257
     155A      4.359930   156A      4.430130   157A      4.430133
     158A      4.444310   159A      4.522218   160A      4.522219
     161A      4.587422   162A      4.587434   163A      4.624047
     164A      4.717784   165A      4.779784   166A      4.779792
     167A      4.837457   168A      4.966925   169A      5.005922
     170A      5.005935   171A      5.228478   172A      5.243236
     173A      5.243237   174A      5.357501   175A      5.357514
     176A      5.478496

    Final Occupation by Irrep:
              A
    DOCC [    16 ]
    SOCC [     1 ]

  @DF-UKS Final Energy:  -157.81308109437524

   => Energetics <=

    Nuclear Repulsion Energy =            125.3573111645126232
    One-Electron Energy =                -458.6781212967381407
    Two-Electron Energy =                 195.8108551160394768
    DFT Exchange-Correlation Energy =     -20.3031260781891980
    Empirical Dispersion Energy =           0.0000000000000000
    VV10 Nonlocal Energy =                  0.0000000000000000
    Total Energy =                       -157.8130810943752351

  UHF NO Occupations:
  HONO-2 :   15  A 1.9995983
  HONO-1 :   16  A 1.9989811
  HONO-0 :   17  A 1.0000000
  LUNO+0 :   18  A 0.0010189
  LUNO+1 :   19  A 0.0004017
  LUNO+2 :   20  A 0.0001972
  LUNO+3 :   21  A 0.0001972

Computation Completed

Properties will be evaluated at   0.000000,   0.000000,   0.000000 [a0]

Properties computed using the SCF density matrix

  Nuclear Dipole Moment: [e a0]
     X:     0.8276      Y:    -0.0000      Z:     0.0000

  Electronic Dipole Moment: [e a0]
     X:    -0.7503      Y:     0.0000      Z:    -0.0000

  Dipole Moment: [e a0]
     X:     0.0773      Y:     0.0000      Z:    -0.0000     Total:     0.0773

  Dipole Moment: [D]
     X:     0.1964      Y:     0.0000      Z:    -0.0000     Total:     0.1964

*** tstop() called on n082 at Fri Nov  5 14:40:31 2021
Module time:
	user time   =     466.10 seconds =       7.77 minutes
	system time =       4.26 seconds =       0.07 minutes
	total time  =        119 seconds =       1.98 minutes
Total time:
	user time   =     466.10 seconds =       7.77 minutes
	system time =       4.26 seconds =       0.07 minutes
	total time  =        119 seconds =       1.98 minutes
Grab this energy -157.81308109437524
    Psi4 stopped on: Friday, 05 November 2021 02:40PM
    Psi4 wall time for execution: 0:01:58.35

*** Psi4 exiting successfully. Buy a developer a beer!
