                               Psi4 1.4a2.dev629

  ==> Input File <==

--------------------------------------------------------------------------
import os
memory 14 GB

molecule {
 C   -0.3223161646   -0.0000020153   -0.0000017732
 C    0.0621992369   -1.4008426882   -2.4262225109
 C    0.0620800020    2.8016058217   -0.0000503176
 C    0.0622002263   -1.4007586995    2.4262728263
 H    2.0836190362   -1.6479125445   -2.8447528817
 H   -0.7604305851   -0.3844761247   -4.0276728132
 H   -0.7686296898   -3.2925444429   -2.3492230588
 H    2.0834817735    3.2876818506   -0.0046446312
 H   -0.7606757678    3.6802779162    1.6808361019
 H   -0.7687015090    3.6807349000   -1.6768578786
 H    2.0836226990   -1.6398611459    2.8494002659
 H   -0.7605929881   -3.2957723817    2.3468429078
 H   -0.7684641463   -0.3881547594    4.0260737634
units bohr
0 2
}

basis {

assign 6-31g_2dfp_

[ 6-31g_2dfp_ ]

spherical

!----------------------------------------------------------------------
! Basis Set Exchange
! Version v0.8.13
! https://www.basissetexchange.org
!----------------------------------------------------------------------
!   Basis set: 6-31G(2df,p)
! Description: 6-31G(2df,p)
!        Role: orbital
!     Version: 0  (Data from the original Basis Set Exchange)
!----------------------------------------------------------------------

****
H     0
S    3   1.00
     18.7311370              0.03349460
      2.8253937              0.23472695
      0.6401217              0.81375733
S    1   1.00
      0.1612778              1.00000000
P    1   1.00
      1.5000000              1.0000000
P    1   1.00
      0.3750000              1.0000000
****
B     0
S    6   1.00
   2068.8823000              0.0018663
    310.6495700              0.0142515
     70.6830330              0.0695516
     19.8610800              0.2325729
      6.2993048              0.4670787
      2.1270270              0.3634314
SP   3   1.00
      4.7279710             -0.1303938              0.0745976
      1.1903377             -0.1307889              0.3078467
      0.3594117              1.1309444              0.7434568
SP   1   1.00
      0.1267512              1.0000000              1.0000000
D    1   1.00
      0.8020000              1.0000000
D    1   1.00
      0.2005000              1.0000000
F    1   1.00
      0.5000000              1.0000000
****
C     0
S    6   1.00
   3047.5249000              0.0018347
    457.3695100              0.0140373
    103.9486900              0.0688426
     29.2101550              0.2321844
      9.2866630              0.4679413
      3.1639270              0.3623120
SP   3   1.00
      7.8682724             -0.1193324              0.0689991
      1.8812885             -0.1608542              0.3164240
      0.5442493              1.1434564              0.7443083
SP   1   1.00
      0.1687144              1.0000000              1.0000000
D    1   1.00
      1.2520000              1.0000000
D    1   1.00
      0.3130000              1.0000000
F    1   1.00
      0.8000000              1.0000000
****
N     0
S    6   1.00
   4173.5110000              0.0018348
    627.4579000              0.0139950
    142.9021000              0.0685870
     40.2343300              0.2322410
     12.8202100              0.4690700
      4.3904370              0.3604550
SP   3   1.00
     11.6263580             -0.1149610              0.0675800
      2.7162800             -0.1691180              0.3239070
      0.7722180              1.1458520              0.7408950
SP   1   1.00
      0.2120313              1.0000000              1.0000000
D    1   1.00
      1.8260000              1.0000000
D    1   1.00
      0.4565000              1.0000000
F    1   1.00
      1.0000000              1.0000000
****
O     0
S    6   1.00
   5484.6717000              0.0018311
    825.2349500              0.0139501
    188.0469600              0.0684451
     52.9645000              0.2327143
     16.8975700              0.4701930
      5.7996353              0.3585209
SP   3   1.00
     15.5396160             -0.1107775              0.0708743
      3.5999336             -0.1480263              0.3397528
      1.0137618              1.1307670              0.7271586
SP   1   1.00
      0.2700058              1.0000000              1.0000000
D    1   1.00
      2.5840000              1.0000000
D    1   1.00
      0.6460000              1.0000000
F    1   1.00
      1.4000000              1.0000000
****
F     0
S    6   1.00
   7001.7130900              0.0018196169
   1051.3660900              0.0139160796
    239.2856900              0.0684053245
     67.3974453              0.233185760
     21.5199573              0.471267439
      7.40310130             0.356618546
SP   3   1.00
     20.8479528             -0.108506975            0.0716287243
      4.80830834            -0.146451658            0.3459121030
      1.34406986             1.128688580            0.7224699570
SP   1   1.00
      0.358151393            1.0000000              1.0000000
D    1   1.00
      3.5000000              1.0000000
D    1   1.00
      0.8750000              1.0000000
F    1   1.00
      1.8500000              1.0000000
****
Al     0
S    6   1.00
  13983.1000000              0.00194267
   2098.7500000              0.0148599
    477.7050000              0.0728494
    134.3600000              0.2468300
     42.8709000              0.4872580
     14.5189000              0.3234960
SP   6   1.00
    239.6680000             -0.00292619             0.00460285
     57.4419000             -0.0374080              0.0331990
     18.2859000             -0.1144870              0.1362820
      6.5991400              0.1156350              0.3304760
      2.4904900              0.6125950              0.4491460
      0.9445400              0.3937990              0.2657040
SP   3   1.00
      1.2779000             -0.2276060             -0.0175130
      0.3975900              0.00144583             0.2445330
      0.1600950              1.0927900              0.8049340
SP   1   1.00
      0.0556577              1.0000000              1.0000000
D    1   1.00
      0.6500000              1.0000000
D    1   1.00
      0.1625000              1.0000000
F    1   1.00
      0.2500000              1.0000000
****
Si     0
S    6   1.00
  16115.9000000              0.00195948
   2425.5800000              0.01492880
    553.8670000              0.07284780
    156.3400000              0.24613000
     50.0683000              0.48591400
     17.0178000              0.32500200
SP   6   1.00
    292.7180000             -0.00278094             0.00443826
     69.8731000             -0.03571460             0.03266790
     22.3363000             -0.11498500             0.13472100
      8.1503900              0.09356340             0.32867800
      3.1345800              0.60301700             0.44964000
      1.2254300              0.41895900             0.26137200
SP   3   1.00
      1.7273800             -0.24463000            -0.01779510
      0.5729220              0.00431572             0.25353900
      0.2221920              1.09818000             0.80066900
SP   1   1.00
      0.0778369              1.00000000             1.00000000
D    1   1.00
      0.9000000              1.0000000
D    1   1.00
      0.2250000              1.0000000
F    1   1.00
      0.3200000              1.0000000
****
P     0
S    6   1.00
  19413.3000000              0.0018516
   2909.4200000              0.0142062
    661.3640000              0.0699995
    185.7590000              0.2400790
     59.1943000              0.4847620
     20.0310000              0.3352000
SP   6   1.00
    339.4780000             -0.00278217             0.00456462
     81.0101000             -0.0360499              0.03369360
     25.8780000             -0.1166310              0.13975500
      9.4522100              0.0968328              0.33936200
      3.6656600              0.6144180              0.45092100
      1.4674600              0.4037980              0.23858600
SP   3   1.00
      2.1562300             -0.2529230             -0.01776530
      0.7489970              0.0328517              0.27405800
      0.2831450              1.0812500              0.78542100
SP   1   1.00
      0.0998317              1.0000000              1.00000000
D    1   1.00
      1.1000000              1.0000000
D    1   1.00
      0.2750000              1.0000000
F    1   1.00
      0.4500000              1.0000000
****
S     0
S    6   1.00
  21917.1000000              0.0018690
   3301.4900000              0.0142300
    754.1460000              0.0696960
    212.7110000              0.2384870
     67.9896000              0.4833070
     23.0515000              0.3380740
SP   6   1.00
    423.7350000             -0.0023767              0.0040610
    100.7100000             -0.0316930              0.0306810
     32.1599000             -0.1133170              0.1304520
     11.8079000              0.0560900              0.3272050
      4.6311000              0.5922550              0.4528510
      1.8702500              0.4550060              0.2560420
SP   3   1.00
      2.6158400             -0.2503740             -0.0145110
      0.9221670              0.0669570              0.3102630
      0.3412870              1.0545100              0.7544830
SP   1   1.00
      0.1171670              1.0000000              1.0000000
D    1   1.00
      1.3000000              1.0000000
D    1   1.00
      0.3250000              1.0000000
F    1   1.00
      0.5500000              1.0000000
****
Cl     0
S    6   1.00
  25180.1000000              0.0018330
   3780.3500000              0.0140340
    860.4740000              0.0690970
    242.1450000              0.2374520
     77.3349000              0.4830340
     26.2470000              0.3398560
SP   6   1.00
    491.7650000             -0.0022974              0.0039894
    116.9840000             -0.0307140              0.0303180
     37.4153000             -0.1125280              0.1298800
     13.7834000              0.0450160              0.3279510
      5.4521500              0.5893530              0.4535270
      2.2258800              0.4652060              0.2521540
SP   3   1.00
      3.1864900             -0.2518300             -0.0142990
      1.1442700              0.0615890              0.3235720
      0.4203770              1.0601800              0.7435070
SP   1   1.00
      0.1426570              1.0000000              1.0000000
D    1   1.00
      1.5000000              1.0000000
D    1   1.00
      0.3750000              1.0000000
F    1   1.00
      0.7000000              1.0000000
****
}

set {
reference uhf
freeze_core true
e_convergence 10
d_convergence 10
dft_spherical_points 1202
dft_radial_points 99
}

e = energy('b3lyp')

print_out('Grab this energy {0}'.format(e))
--------------------------------------------------------------------------

    Molecular point group: c1

    Geometry (in Bohr), charge = 0, multiplicity = 2:

       Center              X                  Y                   Z               Mass
    ------------   -----------------  -----------------  -----------------  -----------------
         C           -0.323125747650    -0.000002051797    -0.000001431247    12.000000000000
         C            0.061389653850    -1.400842724697    -2.426222168947    12.000000000000
         C            0.061270418950     2.801605785203    -0.000049975647    12.000000000000
         C            0.061390643250    -1.400758735997     2.426273168253    12.000000000000
         H            2.082809453150    -1.647912580997    -2.844752539747     1.007825032230
         H           -0.761240168150    -0.384476161197    -4.027672471247     1.007825032230
         H           -0.769439272850    -3.292544479397    -2.349222716847     1.007825032230
         H            2.082672190450     3.287681814103    -0.004644289247     1.007825032230
         H           -0.761485350850     3.680277879703     1.680836443853     1.007825032230
         H           -0.769511092050     3.680734863503    -1.676857536647     1.007825032230
         H            2.082813115950    -1.639861182397     2.849400607853     1.007825032230
         H           -0.761402571150    -3.295772418197     2.346843249753     1.007825032230
         H           -0.769273729350    -0.388154795897     4.026074105353     1.007825032230

  Charge       = 0
  Multiplicity = 2
  Basis Set: ANONYMOUSCEBD9D6C
    Blend: 6-31G_2DFP_
  Basis Set: (ANONYMOUSCEBD9D6C AUX)
    Blend: DEF2-UNIVERSAL-JKFIT

    Orbital Energies [Eh]
    ---------------------

    Alpha Occupied:

       1A    -10.180284     2A    -10.167027     3A    -10.167027
       4A    -10.166981     5A     -0.797804     6A     -0.686194
       7A     -0.686193     8A     -0.530787     9A     -0.441219
      10A     -0.434628    11A     -0.434628    12A     -0.382735
      13A     -0.382734    14A     -0.363433    15A     -0.337946
      16A     -0.337945    17A     -0.168924

    Alpha Virtual:

      18A      0.075987    19A      0.134148    20A      0.134149
      21A      0.142563    22A      0.142563    23A      0.155045
      24A      0.178956    25A      0.178956    26A      0.203588
      27A      0.214528    28A      0.276010    29A      0.276012
      30A      0.399346    31A      0.399350    32A      0.403428
      33A      0.423909    34A      0.423909    35A      0.456670
      36A      0.495210    37A      0.495211    38A      0.512265
      39A      0.514146    40A      0.578977    41A      0.578985
      42A      0.591903    43A      0.591905    44A      0.603321
      45A      0.624260    46A      0.631391    47A      0.635872
      48A      0.635876    49A      0.663908    50A      0.663908
      51A      0.683602    52A      0.683604    53A      0.734933
      54A      0.825438    55A      0.825441    56A      0.854194
      57A      0.915243    58A      0.915249    59A      0.943742
      60A      0.944557    61A      0.961390    62A      0.961407
      63A      1.003651    64A      1.127856    65A      1.127869
      66A      1.142944    67A      1.162995    68A      1.163008
      69A      1.222911    70A      1.274728    71A      1.274731
      72A      1.279513    73A      1.324566    74A      1.324568
      75A      1.355438    76A      1.366112    77A      1.366117
      78A      1.392518    79A      1.405071    80A      1.405073
      81A      1.416143    82A      1.416149    83A      1.428120
      84A      1.491488    85A      1.500054    86A      1.543201
      87A      1.543203    88A      1.574070    89A      1.574072
      90A      1.668560    91A      1.740264    92A      1.740275
      93A      1.770169    94A      1.829997    95A      1.829998
      96A      1.970706    97A      2.018400    98A      2.018935
      99A      2.018939   100A      2.054009   101A      2.054011
     102A      2.738168   103A      2.738169   104A      2.791310
     105A      2.810970   106A      2.890328   107A      2.890334
     108A      2.895276   109A      2.929285   110A      2.929293
     111A      2.959132   112A      2.964795   113A      2.964809
     114A      3.034709   115A      3.071309   116A      3.071323
     117A      3.082954   118A      3.168904   119A      3.168912
     120A      3.180640   121A      3.285412   122A      3.285413
     123A      3.326530   124A      3.326536   125A      3.375441
     126A      3.490390   127A      3.490410   128A      3.515208
     129A      3.524153   130A      3.568782   131A      3.568802
     132A      3.575982   133A      3.666762   134A      3.666770
     135A      3.679041   136A      3.693930   137A      3.693946
     138A      3.776372   139A      3.776398   140A      3.789905
     141A      3.911664   142A      3.911670   143A      4.033988
     144A      4.111405   145A      4.111409   146A      4.148693
     147A      4.148701   148A      4.174916   149A      4.202234
     150A      4.202238   151A      4.202802   152A      4.211981
     153A      4.316424   154A      4.316444   155A      4.357763
     156A      4.425186   157A      4.425189   158A      4.443196
     159A      4.517498   160A      4.517500   161A      4.577586
     162A      4.577598   163A      4.617628   164A      4.709999
     165A      4.774476   166A      4.774483   167A      4.835535
     168A      4.962559   169A      5.004248   170A      5.004260
     171A      5.230797   172A      5.243809   173A      5.243809
     174A      5.357487   175A      5.357500   176A      5.477399

    Beta Occupied:

       1A    -10.167779     2A    -10.167778     3A    -10.167752
       4A    -10.166455     5A     -0.781122     6A     -0.683984
       7A     -0.683984     8A     -0.511709     9A     -0.430974
      10A     -0.430974    11A     -0.421976    12A     -0.376846
      13A     -0.376844    14A     -0.362408    15A     -0.333072
      16A     -0.333072

    Beta Virtual:

      17A     -0.025615    18A      0.076980    19A      0.134971
      20A      0.134972    21A      0.144455    22A      0.144456
      23A      0.163484    24A      0.182654    25A      0.182655
      26A      0.214764    27A      0.218974    28A      0.282353
      29A      0.282355    30A      0.400513    31A      0.400517
      32A      0.419779    33A      0.426720    34A      0.426721
      35A      0.468677    36A      0.497462    37A      0.497463
      38A      0.514006    39A      0.556518    40A      0.584499
      41A      0.584506    42A      0.598092    43A      0.598093
      44A      0.610605    45A      0.627776    46A      0.631548
      47A      0.639196    48A      0.639200    49A      0.667441
      50A      0.667442    51A      0.686250    52A      0.686251
      53A      0.757460    54A      0.830585    55A      0.830588
      56A      0.855539    57A      0.923196    58A      0.923203
      59A      0.945666    60A      0.953359    61A      0.966731
      62A      0.966747    63A      1.008931    64A      1.131847
      65A      1.131859    66A      1.156244    67A      1.168092
      68A      1.168105    69A      1.231900    70A      1.280347
      71A      1.280351    72A      1.285323    73A      1.329508
      74A      1.329510    75A      1.364869    76A      1.371287
      77A      1.371292    78A      1.393564    79A      1.408585
      80A      1.408588    81A      1.421233    82A      1.421239
      83A      1.428380    84A      1.492574    85A      1.510477
      86A      1.547577    87A      1.547578    88A      1.581961
      89A      1.581962    90A      1.673357    91A      1.746031
      92A      1.746042    93A      1.780962    94A      1.833851
      95A      1.833852    96A      1.971579    97A      2.025478
      98A      2.025482    99A      2.039780   100A      2.060602
     101A      2.060603   102A      2.746495   103A      2.746496
     104A      2.811340   105A      2.816524   106A      2.903043
     107A      2.903048   108A      2.925185   109A      2.931762
     110A      2.931771   111A      2.960197   112A      2.969375
     113A      2.969389   114A      3.042431   115A      3.081233
     116A      3.081244   117A      3.084771   118A      3.184644
     119A      3.184648   120A      3.188328   121A      3.290180
     122A      3.290180   123A      3.330371   124A      3.330377
     125A      3.383284   126A      3.493160   127A      3.493180
     128A      3.513580   129A      3.527206   130A      3.575850
     131A      3.581946   132A      3.581968   133A      3.671604
     134A      3.671615   135A      3.692361   136A      3.725560
     137A      3.725576   138A      3.780964   139A      3.780990
     140A      3.818424   141A      3.921423   142A      3.921430
     143A      4.044813   144A      4.118217   145A      4.118220
     146A      4.155908   147A      4.155917   148A      4.188950
     149A      4.208061   150A      4.208064   151A      4.210834
     152A      4.216332   153A      4.323924   154A      4.323945
     155A      4.361169   156A      4.433403   157A      4.433406
     158A      4.446125   159A      4.525253   160A      4.525256
     161A      4.588230   162A      4.588242   163A      4.624914
     164A      4.720226   165A      4.781479   166A      4.781486
     167A      4.838463   168A      4.967343   169A      5.008261
     170A      5.008274   171A      5.236548   172A      5.245607
     173A      5.245607   174A      5.363994   175A      5.364008
     176A      5.479733

    Final Occupation by Irrep:
              A
    DOCC [    16 ]
    SOCC [     1 ]

  @DF-UKS Final Energy:  -157.81306028837221

   => Energetics <=

    Nuclear Repulsion Energy =            125.3999875970848308
    One-Electron Energy =                -458.7596355068095022
    Two-Electron Energy =                 195.8538440331290076
    DFT Exchange-Correlation Energy =     -20.3072564117765353
    Empirical Dispersion Energy =           0.0000000000000000
    VV10 Nonlocal Energy =                  0.0000000000000000
    Total Energy =                       -157.8130602883722133

  UHF NO Occupations:
  HONO-2 :   15  A 1.9996032
  HONO-1 :   16  A 1.9989813
  HONO-0 :   17  A 1.0000000
  LUNO+0 :   18  A 0.0010187
  LUNO+1 :   19  A 0.0003968
  LUNO+2 :   20  A 0.0001975
  LUNO+3 :   21  A 0.0001975

Computation Completed

Properties will be evaluated at   0.000000,   0.000000,   0.000000 [a0]

Properties computed using the SCF density matrix

  Nuclear Dipole Moment: [e a0]
     X:     0.8215      Y:    -0.0000      Z:     0.0000

  Electronic Dipole Moment: [e a0]
     X:    -0.7404      Y:     0.0000      Z:    -0.0000

  Dipole Moment: [e a0]
     X:     0.0811      Y:     0.0000      Z:     0.0000     Total:     0.0811

  Dipole Moment: [D]
     X:     0.2061      Y:     0.0000      Z:     0.0000     Total:     0.2061

*** tstop() called on n036 at Fri Nov  5 14:52:30 2021
Module time:
	user time   =     634.09 seconds =      10.57 minutes
	system time =      12.09 seconds =       0.20 minutes
	total time  =        162 seconds =       2.70 minutes
Total time:
	user time   =     634.09 seconds =      10.57 minutes
	system time =      12.09 seconds =       0.20 minutes
	total time  =        162 seconds =       2.70 minutes
Grab this energy -157.8130602883722
    Psi4 stopped on: Friday, 05 November 2021 02:52PM
    Psi4 wall time for execution: 0:02:42.45

*** Psi4 exiting successfully. Buy a developer a beer!
