                               Psi4 1.4a2.dev629

  ==> Input File <==

--------------------------------------------------------------------------
import os
memory 14 GB

molecule {
 C   -0.3215599123   -0.0000015976    0.0010220572
 C    0.0610505216   -1.4001378429   -2.4269024681
 C    0.0615780258    2.8015007875   -0.0018010098
 C    0.0623467147   -1.4013574189    2.4254128600
 H    2.0866746653   -1.6473730702   -2.8524177810
 H   -0.7657028445   -0.3861622127   -4.0229168812
 H   -0.7657163330   -3.2910056538   -2.3457032331
 H    2.0864614807    3.2941329630    0.0006955057
 H   -0.7659040673    3.6769348315    1.6773434214
 H   -0.7662041739    3.6771122577   -1.6767783694
 H    2.0865302065   -1.6468543078    2.8529102226
 H   -0.7662378576   -3.2907317242    2.3461191781
 H   -0.7659243027   -0.3860813251    4.0230164978
units bohr
0 2
}

basis {

assign 6-31g_2dfp_

[ 6-31g_2dfp_ ]

spherical

!----------------------------------------------------------------------
! Basis Set Exchange
! Version v0.8.13
! https://www.basissetexchange.org
!----------------------------------------------------------------------
!   Basis set: 6-31G(2df,p)
! Description: 6-31G(2df,p)
!        Role: orbital
!     Version: 0  (Data from the original Basis Set Exchange)
!----------------------------------------------------------------------

****
H     0
S    3   1.00
     18.7311370              0.03349460
      2.8253937              0.23472695
      0.6401217              0.81375733
S    1   1.00
      0.1612778              1.00000000
P    1   1.00
      1.5000000              1.0000000
P    1   1.00
      0.3750000              1.0000000
****
B     0
S    6   1.00
   2068.8823000              0.0018663
    310.6495700              0.0142515
     70.6830330              0.0695516
     19.8610800              0.2325729
      6.2993048              0.4670787
      2.1270270              0.3634314
SP   3   1.00
      4.7279710             -0.1303938              0.0745976
      1.1903377             -0.1307889              0.3078467
      0.3594117              1.1309444              0.7434568
SP   1   1.00
      0.1267512              1.0000000              1.0000000
D    1   1.00
      0.8020000              1.0000000
D    1   1.00
      0.2005000              1.0000000
F    1   1.00
      0.5000000              1.0000000
****
C     0
S    6   1.00
   3047.5249000              0.0018347
    457.3695100              0.0140373
    103.9486900              0.0688426
     29.2101550              0.2321844
      9.2866630              0.4679413
      3.1639270              0.3623120
SP   3   1.00
      7.8682724             -0.1193324              0.0689991
      1.8812885             -0.1608542              0.3164240
      0.5442493              1.1434564              0.7443083
SP   1   1.00
      0.1687144              1.0000000              1.0000000
D    1   1.00
      1.2520000              1.0000000
D    1   1.00
      0.3130000              1.0000000
F    1   1.00
      0.8000000              1.0000000
****
N     0
S    6   1.00
   4173.5110000              0.0018348
    627.4579000              0.0139950
    142.9021000              0.0685870
     40.2343300              0.2322410
     12.8202100              0.4690700
      4.3904370              0.3604550
SP   3   1.00
     11.6263580             -0.1149610              0.0675800
      2.7162800             -0.1691180              0.3239070
      0.7722180              1.1458520              0.7408950
SP   1   1.00
      0.2120313              1.0000000              1.0000000
D    1   1.00
      1.8260000              1.0000000
D    1   1.00
      0.4565000              1.0000000
F    1   1.00
      1.0000000              1.0000000
****
O     0
S    6   1.00
   5484.6717000              0.0018311
    825.2349500              0.0139501
    188.0469600              0.0684451
     52.9645000              0.2327143
     16.8975700              0.4701930
      5.7996353              0.3585209
SP   3   1.00
     15.5396160             -0.1107775              0.0708743
      3.5999336             -0.1480263              0.3397528
      1.0137618              1.1307670              0.7271586
SP   1   1.00
      0.2700058              1.0000000              1.0000000
D    1   1.00
      2.5840000              1.0000000
D    1   1.00
      0.6460000              1.0000000
F    1   1.00
      1.4000000              1.0000000
****
F     0
S    6   1.00
   7001.7130900              0.0018196169
   1051.3660900              0.0139160796
    239.2856900              0.0684053245
     67.3974453              0.233185760
     21.5199573              0.471267439
      7.40310130             0.356618546
SP   3   1.00
     20.8479528             -0.108506975            0.0716287243
      4.80830834            -0.146451658            0.3459121030
      1.34406986             1.128688580            0.7224699570
SP   1   1.00
      0.358151393            1.0000000              1.0000000
D    1   1.00
      3.5000000              1.0000000
D    1   1.00
      0.8750000              1.0000000
F    1   1.00
      1.8500000              1.0000000
****
Al     0
S    6   1.00
  13983.1000000              0.00194267
   2098.7500000              0.0148599
    477.7050000              0.0728494
    134.3600000              0.2468300
     42.8709000              0.4872580
     14.5189000              0.3234960
SP   6   1.00
    239.6680000             -0.00292619             0.00460285
     57.4419000             -0.0374080              0.0331990
     18.2859000             -0.1144870              0.1362820
      6.5991400              0.1156350              0.3304760
      2.4904900              0.6125950              0.4491460
      0.9445400              0.3937990              0.2657040
SP   3   1.00
      1.2779000             -0.2276060             -0.0175130
      0.3975900              0.00144583             0.2445330
      0.1600950              1.0927900              0.8049340
SP   1   1.00
      0.0556577              1.0000000              1.0000000
D    1   1.00
      0.6500000              1.0000000
D    1   1.00
      0.1625000              1.0000000
F    1   1.00
      0.2500000              1.0000000
****
Si     0
S    6   1.00
  16115.9000000              0.00195948
   2425.5800000              0.01492880
    553.8670000              0.07284780
    156.3400000              0.24613000
     50.0683000              0.48591400
     17.0178000              0.32500200
SP   6   1.00
    292.7180000             -0.00278094             0.00443826
     69.8731000             -0.03571460             0.03266790
     22.3363000             -0.11498500             0.13472100
      8.1503900              0.09356340             0.32867800
      3.1345800              0.60301700             0.44964000
      1.2254300              0.41895900             0.26137200
SP   3   1.00
      1.7273800             -0.24463000            -0.01779510
      0.5729220              0.00431572             0.25353900
      0.2221920              1.09818000             0.80066900
SP   1   1.00
      0.0778369              1.00000000             1.00000000
D    1   1.00
      0.9000000              1.0000000
D    1   1.00
      0.2250000              1.0000000
F    1   1.00
      0.3200000              1.0000000
****
P     0
S    6   1.00
  19413.3000000              0.0018516
   2909.4200000              0.0142062
    661.3640000              0.0699995
    185.7590000              0.2400790
     59.1943000              0.4847620
     20.0310000              0.3352000
SP   6   1.00
    339.4780000             -0.00278217             0.00456462
     81.0101000             -0.0360499              0.03369360
     25.8780000             -0.1166310              0.13975500
      9.4522100              0.0968328              0.33936200
      3.6656600              0.6144180              0.45092100
      1.4674600              0.4037980              0.23858600
SP   3   1.00
      2.1562300             -0.2529230             -0.01776530
      0.7489970              0.0328517              0.27405800
      0.2831450              1.0812500              0.78542100
SP   1   1.00
      0.0998317              1.0000000              1.00000000
D    1   1.00
      1.1000000              1.0000000
D    1   1.00
      0.2750000              1.0000000
F    1   1.00
      0.4500000              1.0000000
****
S     0
S    6   1.00
  21917.1000000              0.0018690
   3301.4900000              0.0142300
    754.1460000              0.0696960
    212.7110000              0.2384870
     67.9896000              0.4833070
     23.0515000              0.3380740
SP   6   1.00
    423.7350000             -0.0023767              0.0040610
    100.7100000             -0.0316930              0.0306810
     32.1599000             -0.1133170              0.1304520
     11.8079000              0.0560900              0.3272050
      4.6311000              0.5922550              0.4528510
      1.8702500              0.4550060              0.2560420
SP   3   1.00
      2.6158400             -0.2503740             -0.0145110
      0.9221670              0.0669570              0.3102630
      0.3412870              1.0545100              0.7544830
SP   1   1.00
      0.1171670              1.0000000              1.0000000
D    1   1.00
      1.3000000              1.0000000
D    1   1.00
      0.3250000              1.0000000
F    1   1.00
      0.5500000              1.0000000
****
Cl     0
S    6   1.00
  25180.1000000              0.0018330
   3780.3500000              0.0140340
    860.4740000              0.0690970
    242.1450000              0.2374520
     77.3349000              0.4830340
     26.2470000              0.3398560
SP   6   1.00
    491.7650000             -0.0022974              0.0039894
    116.9840000             -0.0307140              0.0303180
     37.4153000             -0.1125280              0.1298800
     13.7834000              0.0450160              0.3279510
      5.4521500              0.5893530              0.4535270
      2.2258800              0.4652060              0.2521540
SP   3   1.00
      3.1864900             -0.2518300             -0.0142990
      1.1442700              0.0615890              0.3235720
      0.4203770              1.0601800              0.7435070
SP   1   1.00
      0.1426570              1.0000000              1.0000000
D    1   1.00
      1.5000000              1.0000000
D    1   1.00
      0.3750000              1.0000000
F    1   1.00
      0.7000000              1.0000000
****
}

set {
reference uhf
freeze_core true
e_convergence 10
d_convergence 10
dft_spherical_points 1202
dft_radial_points 99
}

e = energy('b3lyp')

print_out('Grab this energy {0}'.format(e))
--------------------------------------------------------------------------

    Molecular point group: c1

    Geometry (in Bohr), charge = 0, multiplicity = 2:

       Center              X                  Y                   Z               Mass
    ------------   -----------------  -----------------  -----------------  -----------------
         C           -0.322225434640    -0.000001924820     0.001458998327    12.000000000000
         C            0.060384999260    -1.400138170120    -2.426465526973    12.000000000000
         C            0.060912503460     2.801500460280    -0.001364068673    12.000000000000
         C            0.061681192360    -1.401357746120     2.425849801127    12.000000000000
         H            2.086009142960    -1.647373397420    -2.851980839873     1.007825032230
         H           -0.766368366840    -0.386162539920    -4.022479940073     1.007825032230
         H           -0.766381855340    -3.291005981020    -2.345266291973     1.007825032230
         H            2.085795958360     3.294132635780     0.001132446827     1.007825032230
         H           -0.766569589640     3.676934504280     1.677780362527     1.007825032230
         H           -0.766869696240     3.677111930480    -1.676341428273     1.007825032230
         H            2.085864684160    -1.646854635020     2.853347163727     1.007825032230
         H           -0.766903379940    -3.290732051420     2.346556119227     1.007825032230
         H           -0.766589825040    -0.386081652320     4.023453438927     1.007825032230

  Charge       = 0
  Multiplicity = 2
  Basis Set: ANONYMOUSAD79E1E6
    Blend: 6-31G_2DFP_
  Basis Set: (ANONYMOUSAD79E1E6 AUX)
    Blend: DEF2-UNIVERSAL-JKFIT

    Orbital Energies [Eh]
    ---------------------

    Alpha Occupied:

       1A    -10.180329     2A    -10.167003     3A    -10.166974
       4A    -10.166929     5A     -0.797831     6A     -0.686304
       7A     -0.686145     8A     -0.530788     9A     -0.440955
      10A     -0.434890    11A     -0.434874    12A     -0.382485
      13A     -0.382410    14A     -0.363747    15A     -0.338315
      16A     -0.337727    17A     -0.169050

    Alpha Virtual:

      18A      0.076108    19A      0.134069    20A      0.134144
      21A      0.142631    22A      0.142760    23A      0.155084
      24A      0.178691    25A      0.178794    26A      0.203679
      27A      0.215024    28A      0.275899    29A      0.276151
      30A      0.399347    31A      0.399565    32A      0.403268
      33A      0.423941    34A      0.423950    35A      0.456829
      36A      0.495330    37A      0.495401    38A      0.511972
      39A      0.514037    40A      0.578920    41A      0.579008
      42A      0.591434    43A      0.591468    44A      0.602340
      45A      0.624823    46A      0.632021    47A      0.636338
      48A      0.636347    49A      0.663600    50A      0.663778
      51A      0.683758    52A      0.683779    53A      0.735077
      54A      0.825302    55A      0.825310    56A      0.854261
      57A      0.915069    58A      0.915280    59A      0.943814
      60A      0.944350    61A      0.960946    62A      0.961072
      63A      1.004178    64A      1.128550    65A      1.128587
      66A      1.141606    67A      1.163794    68A      1.163844
      69A      1.223255    70A      1.274284    71A      1.274643
      72A      1.279585    73A      1.324565    74A      1.324690
      75A      1.355577    76A      1.366147    77A      1.366620
      78A      1.392242    79A      1.403539    80A      1.404003
      81A      1.416699    82A      1.417244    83A      1.428531
      84A      1.492093    85A      1.498763    86A      1.542723
      87A      1.543062    88A      1.573516    89A      1.574154
      90A      1.669884    91A      1.739170    92A      1.739389
      93A      1.768191    94A      1.831606    95A      1.831747
      96A      1.971828    97A      2.018024    98A      2.019512
      99A      2.020347   100A      2.052509   101A      2.053713
     102A      2.738026   103A      2.738118   104A      2.791151
     105A      2.811943   106A      2.889443   107A      2.890783
     108A      2.895188   109A      2.929782   110A      2.930121
     111A      2.959055   112A      2.964142   113A      2.964727
     114A      3.034477   115A      3.070676   116A      3.070933
     117A      3.084000   118A      3.168586   119A      3.168823
     120A      3.180768   121A      3.284695   122A      3.285132
     123A      3.328216   124A      3.328310   125A      3.375327
     126A      3.489634   127A      3.489707   128A      3.514232
     129A      3.525493   130A      3.568837   131A      3.569013
     132A      3.576016   133A      3.666115   134A      3.666536
     135A      3.680768   136A      3.693595   137A      3.693612
     138A      3.777950   139A      3.777976   140A      3.787804
     141A      3.911978   142A      3.912689   143A      4.033353
     144A      4.111262   145A      4.111709   146A      4.147717
     147A      4.148082   148A      4.173181   149A      4.202265
     150A      4.203835   151A      4.203889   152A      4.211342
     153A      4.315499   154A      4.317077   155A      4.360112
     156A      4.423370   157A      4.424492   158A      4.444472
     159A      4.517463   160A      4.517851   161A      4.578978
     162A      4.579540   163A      4.618002   164A      4.709779
     165A      4.774796   166A      4.775107   167A      4.835902
     168A      4.963380   169A      5.002557   170A      5.003116
     171A      5.228398   172A      5.246518   173A      5.246992
     174A      5.356057   175A      5.356102   176A      5.479610

    Beta Occupied:

       1A    -10.167759     2A    -10.167731     3A    -10.167698
       4A    -10.166512     5A     -0.781159     6A     -0.684102
       7A     -0.683948     8A     -0.511756     9A     -0.431261
      10A     -0.431231    11A     -0.421657    12A     -0.376567
      13A     -0.376478    14A     -0.362725    15A     -0.333441
      16A     -0.332854

    Beta Virtual:

      17A     -0.025908    18A      0.077113    19A      0.134962
      20A      0.135061    21A      0.144530    22A      0.144623
      23A      0.163593    24A      0.182368    25A      0.182446
      26A      0.215256    27A      0.219022    28A      0.282250
      29A      0.282474    30A      0.400521    31A      0.400739
      32A      0.419735    33A      0.426746    34A      0.426757
      35A      0.468816    36A      0.497608    37A      0.497673
      38A      0.513712    39A      0.556297    40A      0.584493
      41A      0.584580    42A      0.597576    43A      0.597629
      44A      0.609782    45A      0.628203    46A      0.632185
      47A      0.639617    48A      0.639623    49A      0.667183
      50A      0.667369    51A      0.686373    52A      0.686397
      53A      0.757564    54A      0.830489    55A      0.830491
      56A      0.855617    57A      0.923086    58A      0.923297
      59A      0.946186    60A      0.952824    61A      0.966235
      62A      0.966342    63A      1.009447    64A      1.132590
      65A      1.132608    66A      1.154764    67A      1.168851
      68A      1.168924    69A      1.232326    70A      1.279873
      71A      1.280284    72A      1.285408    73A      1.329584
      74A      1.329729    75A      1.364934    76A      1.371358
      77A      1.371881    78A      1.393316    79A      1.407008
      80A      1.407493    81A      1.421718    82A      1.422218
      83A      1.428805    84A      1.493130    85A      1.509185
      86A      1.547113    87A      1.547476    88A      1.581407
      89A      1.582027    90A      1.674735    91A      1.744935
      92A      1.745151    93A      1.778984    94A      1.835461
      95A      1.835597    96A      1.972696    97A      2.025920
      98A      2.026738    99A      2.039482   100A      2.059187
     101A      2.060434   102A      2.746379   103A      2.746458
     104A      2.812360   105A      2.816291   106A      2.902077
     107A      2.903389   108A      2.924884   109A      2.932244
     110A      2.932652   111A      2.960122   112A      2.968735
     113A      2.969296   114A      3.042403   115A      3.080567
     116A      3.080838   117A      3.085818   118A      3.184295
     119A      3.184575   120A      3.188491   121A      3.289501
     122A      3.289877   123A      3.331984   124A      3.332103
     125A      3.383119   126A      3.492415   127A      3.492518
     128A      3.512605   129A      3.528502   130A      3.575849
     131A      3.582167   132A      3.582254   133A      3.670692
     134A      3.671289   135A      3.693998   136A      3.725207
     137A      3.725577   138A      3.782492   139A      3.782617
     140A      3.816374   141A      3.921727   142A      3.922479
     143A      4.044293   144A      4.118168   145A      4.118617
     146A      4.154880   147A      4.155175   148A      4.187209
     149A      4.209679   150A      4.209776   151A      4.210351
     152A      4.215846   153A      4.322923   154A      4.324568
     155A      4.363496   156A      4.431587   157A      4.432706
     158A      4.447341   159A      4.525255   160A      4.525615
     161A      4.589623   162A      4.590141   163A      4.625119
     164A      4.720230   165A      4.781755   166A      4.782027
     167A      4.838822   168A      4.968172   169A      5.006611
     170A      5.007173   171A      5.234098   172A      5.248314
     173A      5.248773   174A      5.362520   175A      5.362603
     176A      5.481936

    Final Occupation by Irrep:
              A
    DOCC [    16 ]
    SOCC [     1 ]

  @DF-UKS Final Energy:  -157.81307643193520

   => Energetics <=

    Nuclear Repulsion Energy =            125.4062253988780924
    One-Electron Energy =                -458.7715669735382562
    Two-Electron Energy =                 195.8597512781888099
    DFT Exchange-Correlation Energy =     -20.3074861354638152
    Empirical Dispersion Energy =           0.0000000000000000
    VV10 Nonlocal Energy =                  0.0000000000000000
    Total Energy =                       -157.8130764319352011

  UHF NO Occupations:
  HONO-2 :   15  A 1.9995995
  HONO-1 :   16  A 1.9989824
  HONO-0 :   17  A 1.0000000
  LUNO+0 :   18  A 0.0010176
  LUNO+1 :   19  A 0.0004005
  LUNO+2 :   20  A 0.0001977
  LUNO+3 :   21  A 0.0001968

Computation Completed

Properties will be evaluated at   0.000000,   0.000000,   0.000000 [a0]

Properties computed using the SCF density matrix

  Nuclear Dipole Moment: [e a0]
     X:     0.8225      Y:    -0.0000      Z:     0.0031

  Electronic Dipole Moment: [e a0]
     X:    -0.7450      Y:     0.0000      Z:    -0.0030

  Dipole Moment: [e a0]
     X:     0.0775      Y:     0.0000      Z:     0.0001     Total:     0.0775

  Dipole Moment: [D]
     X:     0.1970      Y:     0.0000      Z:     0.0001     Total:     0.1970

*** tstop() called on n080 at Fri Nov  5 12:10:07 2021
Module time:
	user time   =     495.02 seconds =       8.25 minutes
	system time =       4.55 seconds =       0.08 minutes
	total time  =        125 seconds =       2.08 minutes
Total time:
	user time   =     495.02 seconds =       8.25 minutes
	system time =       4.55 seconds =       0.08 minutes
	total time  =        125 seconds =       2.08 minutes
Grab this energy -157.8130764319352
    Psi4 stopped on: Friday, 05 November 2021 12:10PM
    Psi4 wall time for execution: 0:02:05.61

*** Psi4 exiting successfully. Buy a developer a beer!
