                               Psi4 1.4a2.dev629

  ==> Input File <==

--------------------------------------------------------------------------
import os
memory 14 GB

molecule {
 C   -0.3233632003    0.0002542407    0.0000000000
 C    0.0620727319   -1.4011219170   -2.4254741684
 C    0.0588760271    2.8011081873   -0.0000000000
 C    0.0620727319   -1.4011219170    2.4254741684
 H    2.0899911275   -1.6437411871   -2.8472339268
 H   -0.7671361473   -0.3858484246   -4.0270269120
 H   -0.7675347940   -3.2943139026   -2.3479175562
 H    2.0901536186    3.2877343943    0.0000000000
 H   -0.7665300792    3.6804648634    1.6794989036
 H   -0.7665300792    3.6804648634   -1.6794989036
 H    2.0899911275   -1.6437411871    2.8472339268
 H   -0.7675347940   -3.2943139026    2.3479175562
 H   -0.7671361473   -0.3858484246    4.0270269120
units bohr
0 2
}

basis {

assign 6-31g_2dfp_

[ 6-31g_2dfp_ ]

spherical

!----------------------------------------------------------------------
! Basis Set Exchange
! Version v0.8.13
! https://www.basissetexchange.org
!----------------------------------------------------------------------
!   Basis set: 6-31G(2df,p)
! Description: 6-31G(2df,p)
!        Role: orbital
!     Version: 0  (Data from the original Basis Set Exchange)
!----------------------------------------------------------------------

****
H     0
S    3   1.00
     18.7311370              0.03349460
      2.8253937              0.23472695
      0.6401217              0.81375733
S    1   1.00
      0.1612778              1.00000000
P    1   1.00
      1.5000000              1.0000000
P    1   1.00
      0.3750000              1.0000000
****
B     0
S    6   1.00
   2068.8823000              0.0018663
    310.6495700              0.0142515
     70.6830330              0.0695516
     19.8610800              0.2325729
      6.2993048              0.4670787
      2.1270270              0.3634314
SP   3   1.00
      4.7279710             -0.1303938              0.0745976
      1.1903377             -0.1307889              0.3078467
      0.3594117              1.1309444              0.7434568
SP   1   1.00
      0.1267512              1.0000000              1.0000000
D    1   1.00
      0.8020000              1.0000000
D    1   1.00
      0.2005000              1.0000000
F    1   1.00
      0.5000000              1.0000000
****
C     0
S    6   1.00
   3047.5249000              0.0018347
    457.3695100              0.0140373
    103.9486900              0.0688426
     29.2101550              0.2321844
      9.2866630              0.4679413
      3.1639270              0.3623120
SP   3   1.00
      7.8682724             -0.1193324              0.0689991
      1.8812885             -0.1608542              0.3164240
      0.5442493              1.1434564              0.7443083
SP   1   1.00
      0.1687144              1.0000000              1.0000000
D    1   1.00
      1.2520000              1.0000000
D    1   1.00
      0.3130000              1.0000000
F    1   1.00
      0.8000000              1.0000000
****
N     0
S    6   1.00
   4173.5110000              0.0018348
    627.4579000              0.0139950
    142.9021000              0.0685870
     40.2343300              0.2322410
     12.8202100              0.4690700
      4.3904370              0.3604550
SP   3   1.00
     11.6263580             -0.1149610              0.0675800
      2.7162800             -0.1691180              0.3239070
      0.7722180              1.1458520              0.7408950
SP   1   1.00
      0.2120313              1.0000000              1.0000000
D    1   1.00
      1.8260000              1.0000000
D    1   1.00
      0.4565000              1.0000000
F    1   1.00
      1.0000000              1.0000000
****
O     0
S    6   1.00
   5484.6717000              0.0018311
    825.2349500              0.0139501
    188.0469600              0.0684451
     52.9645000              0.2327143
     16.8975700              0.4701930
      5.7996353              0.3585209
SP   3   1.00
     15.5396160             -0.1107775              0.0708743
      3.5999336             -0.1480263              0.3397528
      1.0137618              1.1307670              0.7271586
SP   1   1.00
      0.2700058              1.0000000              1.0000000
D    1   1.00
      2.5840000              1.0000000
D    1   1.00
      0.6460000              1.0000000
F    1   1.00
      1.4000000              1.0000000
****
F     0
S    6   1.00
   7001.7130900              0.0018196169
   1051.3660900              0.0139160796
    239.2856900              0.0684053245
     67.3974453              0.233185760
     21.5199573              0.471267439
      7.40310130             0.356618546
SP   3   1.00
     20.8479528             -0.108506975            0.0716287243
      4.80830834            -0.146451658            0.3459121030
      1.34406986             1.128688580            0.7224699570
SP   1   1.00
      0.358151393            1.0000000              1.0000000
D    1   1.00
      3.5000000              1.0000000
D    1   1.00
      0.8750000              1.0000000
F    1   1.00
      1.8500000              1.0000000
****
Al     0
S    6   1.00
  13983.1000000              0.00194267
   2098.7500000              0.0148599
    477.7050000              0.0728494
    134.3600000              0.2468300
     42.8709000              0.4872580
     14.5189000              0.3234960
SP   6   1.00
    239.6680000             -0.00292619             0.00460285
     57.4419000             -0.0374080              0.0331990
     18.2859000             -0.1144870              0.1362820
      6.5991400              0.1156350              0.3304760
      2.4904900              0.6125950              0.4491460
      0.9445400              0.3937990              0.2657040
SP   3   1.00
      1.2779000             -0.2276060             -0.0175130
      0.3975900              0.00144583             0.2445330
      0.1600950              1.0927900              0.8049340
SP   1   1.00
      0.0556577              1.0000000              1.0000000
D    1   1.00
      0.6500000              1.0000000
D    1   1.00
      0.1625000              1.0000000
F    1   1.00
      0.2500000              1.0000000
****
Si     0
S    6   1.00
  16115.9000000              0.00195948
   2425.5800000              0.01492880
    553.8670000              0.07284780
    156.3400000              0.24613000
     50.0683000              0.48591400
     17.0178000              0.32500200
SP   6   1.00
    292.7180000             -0.00278094             0.00443826
     69.8731000             -0.03571460             0.03266790
     22.3363000             -0.11498500             0.13472100
      8.1503900              0.09356340             0.32867800
      3.1345800              0.60301700             0.44964000
      1.2254300              0.41895900             0.26137200
SP   3   1.00
      1.7273800             -0.24463000            -0.01779510
      0.5729220              0.00431572             0.25353900
      0.2221920              1.09818000             0.80066900
SP   1   1.00
      0.0778369              1.00000000             1.00000000
D    1   1.00
      0.9000000              1.0000000
D    1   1.00
      0.2250000              1.0000000
F    1   1.00
      0.3200000              1.0000000
****
P     0
S    6   1.00
  19413.3000000              0.0018516
   2909.4200000              0.0142062
    661.3640000              0.0699995
    185.7590000              0.2400790
     59.1943000              0.4847620
     20.0310000              0.3352000
SP   6   1.00
    339.4780000             -0.00278217             0.00456462
     81.0101000             -0.0360499              0.03369360
     25.8780000             -0.1166310              0.13975500
      9.4522100              0.0968328              0.33936200
      3.6656600              0.6144180              0.45092100
      1.4674600              0.4037980              0.23858600
SP   3   1.00
      2.1562300             -0.2529230             -0.01776530
      0.7489970              0.0328517              0.27405800
      0.2831450              1.0812500              0.78542100
SP   1   1.00
      0.0998317              1.0000000              1.00000000
D    1   1.00
      1.1000000              1.0000000
D    1   1.00
      0.2750000              1.0000000
F    1   1.00
      0.4500000              1.0000000
****
S     0
S    6   1.00
  21917.1000000              0.0018690
   3301.4900000              0.0142300
    754.1460000              0.0696960
    212.7110000              0.2384870
     67.9896000              0.4833070
     23.0515000              0.3380740
SP   6   1.00
    423.7350000             -0.0023767              0.0040610
    100.7100000             -0.0316930              0.0306810
     32.1599000             -0.1133170              0.1304520
     11.8079000              0.0560900              0.3272050
      4.6311000              0.5922550              0.4528510
      1.8702500              0.4550060              0.2560420
SP   3   1.00
      2.6158400             -0.2503740             -0.0145110
      0.9221670              0.0669570              0.3102630
      0.3412870              1.0545100              0.7544830
SP   1   1.00
      0.1171670              1.0000000              1.0000000
D    1   1.00
      1.3000000              1.0000000
D    1   1.00
      0.3250000              1.0000000
F    1   1.00
      0.5500000              1.0000000
****
Cl     0
S    6   1.00
  25180.1000000              0.0018330
   3780.3500000              0.0140340
    860.4740000              0.0690970
    242.1450000              0.2374520
     77.3349000              0.4830340
     26.2470000              0.3398560
SP   6   1.00
    491.7650000             -0.0022974              0.0039894
    116.9840000             -0.0307140              0.0303180
     37.4153000             -0.1125280              0.1298800
     13.7834000              0.0450160              0.3279510
      5.4521500              0.5893530              0.4535270
      2.2258800              0.4652060              0.2521540
SP   3   1.00
      3.1864900             -0.2518300             -0.0142990
      1.1442700              0.0615890              0.3235720
      0.4203770              1.0601800              0.7435070
SP   1   1.00
      0.1426570              1.0000000              1.0000000
D    1   1.00
      1.5000000              1.0000000
D    1   1.00
      0.3750000              1.0000000
F    1   1.00
      0.7000000              1.0000000
****
}

set {
reference uhf
freeze_core true
e_convergence 10
d_convergence 10
dft_spherical_points 1202
dft_radial_points 99
}

e = energy('b3lyp')

print_out('Grab this energy {0}'.format(e))
--------------------------------------------------------------------------

    Molecular point group: cs

    Geometry (in Bohr), charge = 0, multiplicity = 2:

       Center              X                  Y                   Z               Mass
    ------------   -----------------  -----------------  -----------------  -----------------
         C           -0.323305085976     0.000424435204     0.000000000000    12.000000000000
         C            0.062130846224    -1.400951722496    -2.425474168400    12.000000000000
         C            0.058934141424     2.801278381804     0.000000000000    12.000000000000
         C            0.062130846224    -1.400951722496     2.425474168400    12.000000000000
         H            2.090049241824    -1.643570992596    -2.847233926800     1.007825032230
         H           -0.767078032976    -0.385678230096    -4.027026912000     1.007825032230
         H           -0.767476679676    -3.294143708096    -2.347917556200     1.007825032230
         H            2.090211732924     3.287904588804     0.000000000000     1.007825032230
         H           -0.766471964876     3.680635057904     1.679498903600     1.007825032230
         H           -0.766471964876     3.680635057904    -1.679498903600     1.007825032230
         H            2.090049241824    -1.643570992596     2.847233926800     1.007825032230
         H           -0.767476679676    -3.294143708096     2.347917556200     1.007825032230
         H           -0.767078032976    -0.385678230096     4.027026912000     1.007825032230

  Charge       = 0
  Multiplicity = 2
  Basis Set: ANONYMOUS4C68EAFB
    Blend: 6-31G_2DFP_
  Basis Set: (ANONYMOUS4C68EAFB AUX)
    Blend: DEF2-UNIVERSAL-JKFIT

    Orbital Energies [Eh]
    ---------------------

    Alpha Occupied:

       1Ap   -10.180410     2Ap   -10.167590     1App  -10.167549
       3Ap   -10.167512     4Ap    -0.797806     5Ap    -0.685861
       2App   -0.685794     6Ap    -0.530465     7Ap    -0.441025
       3App   -0.434633     8Ap    -0.434429     4App   -0.382490
       9Ap    -0.382191     5App   -0.363296    10Ap    -0.338078
       6App   -0.337908    11Ap    -0.169023

    Alpha Virtual:

      12Ap     0.075740    13Ap     0.133753     7App    0.133822
      14Ap     0.142155     8App    0.142281    15Ap     0.154581
      16Ap     0.178158     9App    0.178385    17Ap     0.203657
      10App    0.214347    11App    0.275907    18Ap     0.276018
      12App    0.399128    19Ap     0.399435    20Ap     0.403139
      13App    0.423775    21Ap     0.423870    22Ap     0.456459
      14App    0.495138    23Ap     0.495194    15App    0.511891
      24Ap     0.513846    25Ap     0.578391    16App    0.578572
      26Ap     0.590911    17App    0.591151    27Ap     0.601923
      28Ap     0.623789    18App    0.631075    29Ap     0.635583
      19App    0.635791    30Ap     0.662914    20App    0.663246
      21App    0.683159    31Ap     0.683453    32Ap     0.734684
      22App    0.824575    33Ap     0.824606    23App    0.853399
      34Ap     0.914297    24App    0.914332    25App    0.943503
      35Ap     0.943824    36Ap     0.960569    26App    0.960707
      37Ap     1.003353    38Ap     1.127584    27App    1.127797
      39Ap     1.141347    40Ap     1.162907    28App    1.163120
      41Ap     1.222880    42Ap     1.273810    29App    1.274100
      43Ap     1.279807    44Ap     1.323393    30App    1.323895
      45Ap     1.355133    31App    1.365247    46Ap     1.365859
      32App    1.391869    47Ap     1.402902    33App    1.403152
      48Ap     1.415888    34App    1.416460    35App    1.427156
      36App    1.490605    49Ap     1.497723    50Ap     1.542254
      37App    1.542368    38App    1.574117    51Ap     1.574447
      52Ap     1.667663    53Ap     1.737573    39App    1.738395
      54Ap     1.766811    40App    1.828727    55Ap     1.829115
      41App    1.970101    56Ap     2.016974    57Ap     2.017475
      42App    2.018461    58Ap     2.051189    43App    2.051928
      59Ap     2.737470    44App    2.737547    60Ap     2.790714
      45App    2.810915    46App    2.889120    61Ap     2.889659
      62Ap     2.894868    47App    2.929092    63Ap     2.929142
      48App    2.958378    64Ap     2.963618    49App    2.963840
      65Ap     3.033108    50App    3.070206    66Ap     3.070465
      51App    3.083437    67Ap     3.169323    52App    3.169575
      68Ap     3.180290    69Ap     3.285321    53App    3.285386
      70Ap     3.327520    54App    3.327825    71Ap     3.376314
      55App    3.490838    72Ap     3.491472    56App    3.514311
      73Ap     3.525953    74Ap     3.568103    57App    3.568299
      58App    3.576816    75Ap     3.665365    59App    3.665930
      76Ap     3.677821    60App    3.693299    77Ap     3.693314
      78Ap     3.776200    61App    3.776319    79Ap     3.788557
      62App    3.911205    80Ap     3.911356    81Ap     4.032103
      63App    4.108825    82Ap     4.108980    64App    4.144748
      83Ap     4.144874    84Ap     4.170291    85Ap     4.201030
      86Ap     4.201726    65App    4.201837    66App    4.207164
      67App    4.313297    87Ap     4.314148    68App    4.356577
      69App    4.421758    88Ap     4.421999    70App    4.441393
      89Ap     4.513365    71App    4.515469    72App    4.576580
      90Ap     4.577013    91Ap     4.616846    92Ap     4.707427
      93Ap     4.772313    73App    4.773327    74App    4.834558
      94Ap     4.962089    95Ap     5.001400    75App    5.002314
      96Ap     5.222760    97Ap     5.241497    76App    5.241533
      77App    5.350652    98Ap     5.351190    78App    5.476132

    Beta Occupied:

       1Ap   -10.168349     1App  -10.168305     2Ap   -10.168281
       3Ap   -10.166602     4Ap    -0.781104     5Ap    -0.683666
       2App   -0.683599     6Ap    -0.511494     3App   -0.431000
       7Ap    -0.430789     8Ap    -0.421685     4App   -0.376576
       9Ap    -0.376258     5App   -0.362277    10Ap    -0.333212
       6App   -0.333039

    Beta Virtual:

      11Ap    -0.025976    12Ap     0.076752    13Ap     0.134644
       7App    0.134695    14Ap     0.144058     8App    0.144175
      15Ap     0.163103    16Ap     0.181837     9App    0.182068
      10App    0.214578    17Ap     0.219020    11App    0.282248
      18Ap     0.282354    12App    0.400301    19Ap     0.400614
      20Ap     0.419568    13App    0.426581    21Ap     0.426683
      22Ap     0.468385    14App    0.497403    23Ap     0.497452
      15App    0.513632    24Ap     0.556133    25Ap     0.583929
      16App    0.584100    26Ap     0.597065    17App    0.597315
      27Ap     0.609360    28Ap     0.627175    18App    0.631237
      29Ap     0.638891    19App    0.639099    30Ap     0.666487
      20App    0.666789    21App    0.685827    31Ap     0.686126
      32Ap     0.757183    22App    0.829748    33Ap     0.829774
      23App    0.854776    34Ap     0.922285    24App    0.922317
      25App    0.945340    35Ap     0.952730    36Ap     0.965875
      26App    0.966028    37Ap     1.008581    38Ap     1.131588
      27App    1.131875    39Ap     1.154737    40Ap     1.167999
      28App    1.168116    41Ap     1.231869    42Ap     1.279415
      29App    1.279714    43Ap     1.285572    44Ap     1.328345
      30App    1.328869    45Ap     1.364524    31App    1.370490
      46Ap     1.371105    32App    1.392932    47Ap     1.406357
      33App    1.406634    48Ap     1.420955    34App    1.421494
      35App    1.427435    36App    1.491647    49Ap     1.508165
      37App    1.546838    50Ap     1.546862    38App    1.581933
      51Ap     1.582157    52Ap     1.672437    53Ap     1.743337
      39App    1.744142    54Ap     1.777646    40App    1.832612
      55Ap     1.833001    41App    1.970964    56Ap     2.023624
      42App    2.024901    57Ap     2.038622    58Ap     2.057931
      43App    2.058618    59Ap     2.745799    44App    2.745866
      45App    2.811324    60Ap     2.815824    46App    2.901771
      61Ap     2.902294    62Ap     2.924539    47App    2.931624
      63Ap     2.931670    48App    2.959434    64Ap     2.968126
      49App    2.968340    65Ap     3.041124    50App    3.080057
      66Ap     3.080311    51App    3.085258    67Ap     3.185131
      52App    3.185351    68Ap     3.187924    69Ap     3.290183
      53App    3.290230    70Ap     3.331303    54App    3.331636
      71Ap     3.384109    55App    3.493524    72Ap     3.494156
      56App    3.512669    73Ap     3.528983    57App    3.576678
      74Ap     3.581483    58App    3.581555    75Ap     3.669904
      59App    3.670369    76Ap     3.691056    77Ap     3.724936
      60App    3.725229    78Ap     3.780754    61App    3.780847
      79Ap     3.817074    62App    3.921020    80Ap     3.921203
      81Ap     4.042867    63App    4.115614    82Ap     4.115665
      64App    4.151952    83Ap     4.152166    84Ap     4.184496
      85Ap     4.207388    65App    4.207778    86Ap     4.209349
      66App    4.211662    67App    4.320792    87Ap     4.321693
      68App    4.359951    69App    4.430012    88Ap     4.430234
      70App    4.444292    89Ap     4.521171    71App    4.523267
      72App    4.587229    90Ap     4.587633    91Ap     4.624047
      92Ap     4.717776    93Ap     4.779289    73App    4.780264
      74App    4.837469    94Ap     4.966910    95Ap     5.005477
      75App    5.006355    96Ap     5.228500    97Ap     5.243287
      76App    5.243323    77App    5.357162    98Ap     5.357696
      78App    5.478465

    Final Occupation by Irrep:
             Ap   App
    DOCC [    10,    6 ]
    SOCC [     1,    0 ]

  @DF-UKS Final Energy:  -157.81309131108810

   => Energetics <=

    Nuclear Repulsion Energy =            125.3572772991051636
    One-Electron Energy =                -458.6780844514012756
    Two-Electron Energy =                 195.8108384243913633
    DFT Exchange-Correlation Energy =     -20.3031225831833879
    Empirical Dispersion Energy =           0.0000000000000000
    VV10 Nonlocal Energy =                  0.0000000000000000
    Total Energy =                       -157.8130913110881011

  UHF NO Occupations:
  HONO-2 :    9 Ap 1.9995983
  HONO-1 :   10 Ap 1.9989811
  HONO-0 :   11 Ap 1.0000000
  LUNO+0 :   12 Ap 0.0010189
  LUNO+1 :   13 Ap 0.0004017
  LUNO+2 :    7App 0.0001973
  LUNO+3 :   14 Ap 0.0001971

Computation Completed

Properties will be evaluated at   0.000000,   0.000000,   0.000000 [a0]

Properties computed using the SCF density matrix

  Nuclear Dipole Moment: [e a0]
     X:     0.8276      Y:     0.0012      Z:     0.0000

  Electronic Dipole Moment: [e a0]
     X:    -0.7503      Y:    -0.0011      Z:     0.0000

  Dipole Moment: [e a0]
     X:     0.0773      Y:     0.0001      Z:     0.0000     Total:     0.0773

  Dipole Moment: [D]
     X:     0.1964      Y:     0.0003      Z:     0.0000     Total:     0.1964

*** tstop() called on n054 at Fri Nov  5 12:33:54 2021
Module time:
	user time   =     551.58 seconds =       9.19 minutes
	system time =      12.28 seconds =       0.20 minutes
	total time  =        141 seconds =       2.35 minutes
Total time:
	user time   =     551.58 seconds =       9.19 minutes
	system time =      12.28 seconds =       0.20 minutes
	total time  =        141 seconds =       2.35 minutes
Grab this energy -157.8130913110881
    Psi4 stopped on: Friday, 05 November 2021 12:33PM
    Psi4 wall time for execution: 0:02:21.81

*** Psi4 exiting successfully. Buy a developer a beer!
