                               Psi4 1.4a2.dev629

  ==> Input File <==

--------------------------------------------------------------------------
import os
memory 14 GB

molecule {
 C   -0.3233410996   -0.0002278101    0.0004971771
 C    0.0622472339   -1.4007980012   -2.4250210712
 C    0.0611875221    2.8040282413    0.0003839966
 C    0.0598638875   -1.4005499047    2.4253581677
 H    2.0833237021   -1.6444201215   -2.8481326764
 H   -0.7642318927   -0.3859980776   -4.0273548917
 H   -0.7633054817   -3.2941115904   -2.3478450094
 H    2.0868777224    3.2874206227    0.0001825395
 H   -0.7645759776    3.6791310494    1.6763497526
 H   -0.7669732784    3.6800579907   -1.6769540017
 H    2.0904683399   -1.6438389897    2.8474938100
 H   -0.7678070552   -3.2899567851    2.3508762849
 H   -0.7663414995   -0.3907609376    4.0241659219
units bohr
0 2
}

basis {

assign 6-31g_2dfp_

[ 6-31g_2dfp_ ]

spherical

!----------------------------------------------------------------------
! Basis Set Exchange
! Version v0.8.13
! https://www.basissetexchange.org
!----------------------------------------------------------------------
!   Basis set: 6-31G(2df,p)
! Description: 6-31G(2df,p)
!        Role: orbital
!     Version: 0  (Data from the original Basis Set Exchange)
!----------------------------------------------------------------------

****
H     0
S    3   1.00
     18.7311370              0.03349460
      2.8253937              0.23472695
      0.6401217              0.81375733
S    1   1.00
      0.1612778              1.00000000
P    1   1.00
      1.5000000              1.0000000
P    1   1.00
      0.3750000              1.0000000
****
B     0
S    6   1.00
   2068.8823000              0.0018663
    310.6495700              0.0142515
     70.6830330              0.0695516
     19.8610800              0.2325729
      6.2993048              0.4670787
      2.1270270              0.3634314
SP   3   1.00
      4.7279710             -0.1303938              0.0745976
      1.1903377             -0.1307889              0.3078467
      0.3594117              1.1309444              0.7434568
SP   1   1.00
      0.1267512              1.0000000              1.0000000
D    1   1.00
      0.8020000              1.0000000
D    1   1.00
      0.2005000              1.0000000
F    1   1.00
      0.5000000              1.0000000
****
C     0
S    6   1.00
   3047.5249000              0.0018347
    457.3695100              0.0140373
    103.9486900              0.0688426
     29.2101550              0.2321844
      9.2866630              0.4679413
      3.1639270              0.3623120
SP   3   1.00
      7.8682724             -0.1193324              0.0689991
      1.8812885             -0.1608542              0.3164240
      0.5442493              1.1434564              0.7443083
SP   1   1.00
      0.1687144              1.0000000              1.0000000
D    1   1.00
      1.2520000              1.0000000
D    1   1.00
      0.3130000              1.0000000
F    1   1.00
      0.8000000              1.0000000
****
N     0
S    6   1.00
   4173.5110000              0.0018348
    627.4579000              0.0139950
    142.9021000              0.0685870
     40.2343300              0.2322410
     12.8202100              0.4690700
      4.3904370              0.3604550
SP   3   1.00
     11.6263580             -0.1149610              0.0675800
      2.7162800             -0.1691180              0.3239070
      0.7722180              1.1458520              0.7408950
SP   1   1.00
      0.2120313              1.0000000              1.0000000
D    1   1.00
      1.8260000              1.0000000
D    1   1.00
      0.4565000              1.0000000
F    1   1.00
      1.0000000              1.0000000
****
O     0
S    6   1.00
   5484.6717000              0.0018311
    825.2349500              0.0139501
    188.0469600              0.0684451
     52.9645000              0.2327143
     16.8975700              0.4701930
      5.7996353              0.3585209
SP   3   1.00
     15.5396160             -0.1107775              0.0708743
      3.5999336             -0.1480263              0.3397528
      1.0137618              1.1307670              0.7271586
SP   1   1.00
      0.2700058              1.0000000              1.0000000
D    1   1.00
      2.5840000              1.0000000
D    1   1.00
      0.6460000              1.0000000
F    1   1.00
      1.4000000              1.0000000
****
F     0
S    6   1.00
   7001.7130900              0.0018196169
   1051.3660900              0.0139160796
    239.2856900              0.0684053245
     67.3974453              0.233185760
     21.5199573              0.471267439
      7.40310130             0.356618546
SP   3   1.00
     20.8479528             -0.108506975            0.0716287243
      4.80830834            -0.146451658            0.3459121030
      1.34406986             1.128688580            0.7224699570
SP   1   1.00
      0.358151393            1.0000000              1.0000000
D    1   1.00
      3.5000000              1.0000000
D    1   1.00
      0.8750000              1.0000000
F    1   1.00
      1.8500000              1.0000000
****
Al     0
S    6   1.00
  13983.1000000              0.00194267
   2098.7500000              0.0148599
    477.7050000              0.0728494
    134.3600000              0.2468300
     42.8709000              0.4872580
     14.5189000              0.3234960
SP   6   1.00
    239.6680000             -0.00292619             0.00460285
     57.4419000             -0.0374080              0.0331990
     18.2859000             -0.1144870              0.1362820
      6.5991400              0.1156350              0.3304760
      2.4904900              0.6125950              0.4491460
      0.9445400              0.3937990              0.2657040
SP   3   1.00
      1.2779000             -0.2276060             -0.0175130
      0.3975900              0.00144583             0.2445330
      0.1600950              1.0927900              0.8049340
SP   1   1.00
      0.0556577              1.0000000              1.0000000
D    1   1.00
      0.6500000              1.0000000
D    1   1.00
      0.1625000              1.0000000
F    1   1.00
      0.2500000              1.0000000
****
Si     0
S    6   1.00
  16115.9000000              0.00195948
   2425.5800000              0.01492880
    553.8670000              0.07284780
    156.3400000              0.24613000
     50.0683000              0.48591400
     17.0178000              0.32500200
SP   6   1.00
    292.7180000             -0.00278094             0.00443826
     69.8731000             -0.03571460             0.03266790
     22.3363000             -0.11498500             0.13472100
      8.1503900              0.09356340             0.32867800
      3.1345800              0.60301700             0.44964000
      1.2254300              0.41895900             0.26137200
SP   3   1.00
      1.7273800             -0.24463000            -0.01779510
      0.5729220              0.00431572             0.25353900
      0.2221920              1.09818000             0.80066900
SP   1   1.00
      0.0778369              1.00000000             1.00000000
D    1   1.00
      0.9000000              1.0000000
D    1   1.00
      0.2250000              1.0000000
F    1   1.00
      0.3200000              1.0000000
****
P     0
S    6   1.00
  19413.3000000              0.0018516
   2909.4200000              0.0142062
    661.3640000              0.0699995
    185.7590000              0.2400790
     59.1943000              0.4847620
     20.0310000              0.3352000
SP   6   1.00
    339.4780000             -0.00278217             0.00456462
     81.0101000             -0.0360499              0.03369360
     25.8780000             -0.1166310              0.13975500
      9.4522100              0.0968328              0.33936200
      3.6656600              0.6144180              0.45092100
      1.4674600              0.4037980              0.23858600
SP   3   1.00
      2.1562300             -0.2529230             -0.01776530
      0.7489970              0.0328517              0.27405800
      0.2831450              1.0812500              0.78542100
SP   1   1.00
      0.0998317              1.0000000              1.00000000
D    1   1.00
      1.1000000              1.0000000
D    1   1.00
      0.2750000              1.0000000
F    1   1.00
      0.4500000              1.0000000
****
S     0
S    6   1.00
  21917.1000000              0.0018690
   3301.4900000              0.0142300
    754.1460000              0.0696960
    212.7110000              0.2384870
     67.9896000              0.4833070
     23.0515000              0.3380740
SP   6   1.00
    423.7350000             -0.0023767              0.0040610
    100.7100000             -0.0316930              0.0306810
     32.1599000             -0.1133170              0.1304520
     11.8079000              0.0560900              0.3272050
      4.6311000              0.5922550              0.4528510
      1.8702500              0.4550060              0.2560420
SP   3   1.00
      2.6158400             -0.2503740             -0.0145110
      0.9221670              0.0669570              0.3102630
      0.3412870              1.0545100              0.7544830
SP   1   1.00
      0.1171670              1.0000000              1.0000000
D    1   1.00
      1.3000000              1.0000000
D    1   1.00
      0.3250000              1.0000000
F    1   1.00
      0.5500000              1.0000000
****
Cl     0
S    6   1.00
  25180.1000000              0.0018330
   3780.3500000              0.0140340
    860.4740000              0.0690970
    242.1450000              0.2374520
     77.3349000              0.4830340
     26.2470000              0.3398560
SP   6   1.00
    491.7650000             -0.0022974              0.0039894
    116.9840000             -0.0307140              0.0303180
     37.4153000             -0.1125280              0.1298800
     13.7834000              0.0450160              0.3279510
      5.4521500              0.5893530              0.4535270
      2.2258800              0.4652060              0.2521540
SP   3   1.00
      3.1864900             -0.2518300             -0.0142990
      1.1442700              0.0615890              0.3235720
      0.4203770              1.0601800              0.7435070
SP   1   1.00
      0.1426570              1.0000000              1.0000000
D    1   1.00
      1.5000000              1.0000000
D    1   1.00
      0.3750000              1.0000000
F    1   1.00
      0.7000000              1.0000000
****
}

set {
reference uhf
freeze_core true
e_convergence 10
d_convergence 10
dft_spherical_points 1202
dft_radial_points 99
}

e = energy('b3lyp')

print_out('Grab this energy {0}'.format(e))
--------------------------------------------------------------------------

    Molecular point group: c1

    Geometry (in Bohr), charge = 0, multiplicity = 2:

       Center              X                  Y                   Z               Mass
    ------------   -----------------  -----------------  -----------------  -----------------
         C           -0.323340623617    -0.000699754772     0.000262529487    12.000000000000
         C            0.062247709883    -1.401269945872    -2.425255718813    12.000000000000
         C            0.061187998083     2.803556296628     0.000149348987    12.000000000000
         C            0.059864363483    -1.401021849372     2.425123520087    12.000000000000
         H            2.083324178083    -1.644892066172    -2.848367324013     1.007825032230
         H           -0.764231416717    -0.386470022272    -4.027589539313     1.007825032230
         H           -0.763305005717    -3.294583535072    -2.348079657013     1.007825032230
         H            2.086878198383     3.286948678028    -0.000052108113     1.007825032230
         H           -0.764575501617     3.678659104728     1.676115104987     1.007825032230
         H           -0.766972802417     3.679586046028    -1.677188649313     1.007825032230
         H            2.090468815883    -1.644310934372     2.847259162387     1.007825032230
         H           -0.767806579217    -3.290428729772     2.350641637287     1.007825032230
         H           -0.766341023517    -0.391232882272     4.023931274287     1.007825032230

  Charge       = 0
  Multiplicity = 2
  Basis Set: ANONYMOUS7DC1D2B1
    Blend: 6-31G_2DFP_
  Basis Set: (ANONYMOUS7DC1D2B1 AUX)
    Blend: DEF2-UNIVERSAL-JKFIT

    Orbital Energies [Eh]
    ---------------------

    Alpha Occupied:

       1A    -10.180342     2A    -10.167064     3A    -10.167017
       4A    -10.166964     5A     -0.797766     6A     -0.686211
       7A     -0.686165     8A     -0.530778     9A     -0.441126
      10A     -0.434754    11A     -0.434587    12A     -0.382693
      13A     -0.382504    14A     -0.363612    15A     -0.338209
      16A     -0.337788    17A     -0.168961

    Alpha Virtual:

      18A      0.076071    19A      0.133985    20A      0.134322
      21A      0.142539    22A      0.142715    23A      0.154881
      24A      0.178661    25A      0.178897    26A      0.203546
      27A      0.214803    28A      0.275750    29A      0.276223
      30A      0.399191    31A      0.399264    32A      0.403345
      33A      0.424002    34A      0.424193    35A      0.456592
      36A      0.495243    37A      0.495533    38A      0.512161
      39A      0.513982    40A      0.578633    41A      0.578993
      42A      0.591468    43A      0.591794    44A      0.602583
      45A      0.624762    46A      0.631751    47A      0.636078
      48A      0.636439    49A      0.663041    50A      0.663795
      51A      0.683680    52A      0.684029    53A      0.734995
      54A      0.825347    55A      0.825460    56A      0.853921
      57A      0.914811    58A      0.915239    59A      0.944126
      60A      0.944610    61A      0.961162    62A      0.961429
      63A      1.003451    64A      1.128008    65A      1.128204
      66A      1.142219    67A      1.162952    68A      1.163594
      69A      1.223326    70A      1.274145    71A      1.274803
      72A      1.279390    73A      1.324277    74A      1.324437
      75A      1.355959    76A      1.365903    77A      1.366203
      78A      1.392448    79A      1.403559    80A      1.404548
      81A      1.416557    82A      1.417673    83A      1.427924
      84A      1.491487    85A      1.499077    86A      1.542368
      87A      1.543307    88A      1.574193    89A      1.574695
      90A      1.669816    91A      1.739192    92A      1.739610
      93A      1.768351    94A      1.830455    95A      1.832345
      96A      1.971715    97A      2.018140    98A      2.018376
      99A      2.019878   100A      2.051504   101A      2.053814
     102A      2.738059   103A      2.738912   104A      2.790924
     105A      2.811424   106A      2.889869   107A      2.890005
     108A      2.894975   109A      2.929432   110A      2.929561
     111A      2.958997   112A      2.964039   113A      2.964713
     114A      3.034017   115A      3.071141   116A      3.071417
     117A      3.084366   118A      3.168460   119A      3.169080
     120A      3.180620   121A      3.284990   122A      3.285641
     123A      3.326881   124A      3.327434   125A      3.375623
     126A      3.489799   127A      3.490504   128A      3.514015
     129A      3.525327   130A      3.568256   131A      3.568530
     132A      3.575155   133A      3.665382   134A      3.667365
     135A      3.679659   136A      3.693953   137A      3.694318
     138A      3.776613   139A      3.776987   140A      3.789130
     141A      3.911466   142A      3.912991   143A      4.034436
     144A      4.110886   145A      4.111830   146A      4.147438
     147A      4.148752   148A      4.173232   149A      4.201630
     150A      4.203043   151A      4.204090   152A      4.210933
     153A      4.314857   154A      4.317102   155A      4.358984
     156A      4.423480   157A      4.425359   158A      4.443531
     159A      4.515890   160A      4.517807   161A      4.578155
     162A      4.578368   163A      4.617564   164A      4.709452
     165A      4.774028   166A      4.775127   167A      4.836916
     168A      4.962834   169A      5.001921   170A      5.004015
     171A      5.228006   172A      5.244733   173A      5.248876
     174A      5.354319   175A      5.356753   176A      5.479375

    Beta Occupied:

       1A    -10.167823     2A    -10.167773     3A    -10.167727
       4A    -10.166519     5A     -0.781091     6A     -0.684019
       7A     -0.683962     8A     -0.511749     9A     -0.431130
      10A     -0.430957    11A     -0.421819    12A     -0.376803
      13A     -0.376563    14A     -0.362596    15A     -0.333332
      16A     -0.332911

    Beta Virtual:

      17A     -0.025743    18A      0.077080    19A      0.134888
      20A      0.135201    21A      0.144438    22A      0.144557
      23A      0.163338    24A      0.182326    25A      0.182576
      26A      0.215032    27A      0.218928    28A      0.282105
      29A      0.282563    30A      0.400364    31A      0.400431
      32A      0.419791    33A      0.426813    34A      0.427005
      35A      0.468500    36A      0.497495    37A      0.497804
      38A      0.513896    39A      0.556326    40A      0.584197
      41A      0.584530    42A      0.597628    43A      0.597995
      44A      0.610004    45A      0.628137    46A      0.631919
      47A      0.639356    48A      0.639721    49A      0.666635
      50A      0.667330    51A      0.686333    52A      0.686645
      53A      0.757518    54A      0.830510    55A      0.830633
      56A      0.855275    57A      0.922796    58A      0.923197
      59A      0.945963    60A      0.953539    61A      0.966442
      62A      0.966761    63A      1.008691    64A      1.132059
      65A      1.132213    66A      1.155588    67A      1.167994
      68A      1.168705    69A      1.232298    70A      1.279734
      71A      1.280405    72A      1.285146    73A      1.329279
      74A      1.329415    75A      1.365370    76A      1.371172
      77A      1.371421    78A      1.393508    79A      1.407001
      80A      1.408038    81A      1.421592    82A      1.422733
      83A      1.428199    84A      1.492535    85A      1.509520
      86A      1.546787    87A      1.547700    88A      1.582071
      89A      1.582563    90A      1.674663    91A      1.744957
      92A      1.745375    93A      1.779125    94A      1.834309
      95A      1.836202    96A      1.972576    97A      2.024731
      98A      2.026166    99A      2.039659   100A      2.058266
     101A      2.060496   102A      2.746410   103A      2.747233
     104A      2.811836   105A      2.816060   106A      2.902562
     107A      2.902718   108A      2.924648   109A      2.931918
     110A      2.932038   111A      2.960059   112A      2.968569
     113A      2.969277   114A      3.041950   115A      3.081019
     116A      3.081333   117A      3.086210   118A      3.184057
     119A      3.184930   120A      3.188355   121A      3.289778
     122A      3.290450   123A      3.330673   124A      3.331252
     125A      3.383440   126A      3.492523   127A      3.493240
     128A      3.512382   129A      3.528373   130A      3.574988
     131A      3.581557   132A      3.581932   133A      3.670082
     134A      3.672171   135A      3.692956   136A      3.725558
     137A      3.725964   138A      3.781090   139A      3.781566
     140A      3.817671   141A      3.921328   142A      3.922761
     143A      4.045322   144A      4.117678   145A      4.118666
     146A      4.154744   147A      4.155873   148A      4.187281
     149A      4.207888   150A      4.209728   151A      4.210997
     152A      4.215412   153A      4.322278   154A      4.324558
     155A      4.362347   156A      4.431722   157A      4.433514
     158A      4.446447   159A      4.523683   160A      4.525593
     161A      4.588743   162A      4.588981   163A      4.624758
     164A      4.719797   165A      4.780991   166A      4.782070
     167A      4.839834   168A      4.967630   169A      5.005983
     170A      5.008031   171A      5.233720   172A      5.246532
     173A      5.250649   174A      5.360787   175A      5.363245
     176A      5.481696

    Final Occupation by Irrep:
              A
    DOCC [    16 ]
    SOCC [     1 ]

  @DF-UKS Final Energy:  -157.81306089551805

   => Energetics <=

    Nuclear Repulsion Energy =            125.3946192491699065
    One-Electron Energy =                -458.7488761347211152
    Two-Electron Energy =                 195.8483416862613922
    DFT Exchange-Correlation Energy =     -20.3071456962282326
    Empirical Dispersion Energy =           0.0000000000000000
    VV10 Nonlocal Energy =                  0.0000000000000000
    Total Energy =                       -157.8130608955180492

  UHF NO Occupations:
  HONO-2 :   15  A 1.9996008
  HONO-1 :   16  A 1.9989804
  HONO-0 :   17  A 1.0000000
  LUNO+0 :   18  A 0.0010196
  LUNO+1 :   19  A 0.0003992
  LUNO+2 :   20  A 0.0001979
  LUNO+3 :   21  A 0.0001972

Computation Completed

Properties will be evaluated at   0.000000,   0.000000,   0.000000 [a0]

Properties computed using the SCF density matrix

  Nuclear Dipole Moment: [e a0]
     X:     0.8272      Y:    -0.0033      Z:    -0.0017

  Electronic Dipole Moment: [e a0]
     X:    -0.7493      Y:     0.0034      Z:     0.0023

  Dipole Moment: [e a0]
     X:     0.0779      Y:     0.0001      Z:     0.0006     Total:     0.0779

  Dipole Moment: [D]
     X:     0.1980      Y:     0.0002      Z:     0.0016     Total:     0.1980

*** tstop() called on n067 at Fri Nov  5 12:56:47 2021
Module time:
	user time   =     506.84 seconds =       8.45 minutes
	system time =      12.38 seconds =       0.21 minutes
	total time  =        130 seconds =       2.17 minutes
Total time:
	user time   =     506.84 seconds =       8.45 minutes
	system time =      12.38 seconds =       0.21 minutes
	total time  =        130 seconds =       2.17 minutes
Grab this energy -157.81306089551805
    Psi4 stopped on: Friday, 05 November 2021 12:56PM
    Psi4 wall time for execution: 0:02:10.61

*** Psi4 exiting successfully. Buy a developer a beer!
