                               Psi4 1.4a2.dev629

  ==> Input File <==

--------------------------------------------------------------------------
import os
memory 14 GB

molecule {
 C   -0.3233414252    0.0002549783   -0.0000010166
 C    0.0621647182   -1.4021418965   -2.4256461539
 C    0.0589698555    2.8017672909   -0.0007989188
 C    0.0621640845   -1.4007599247    2.4264426564
 H    2.0868365650   -1.6452925827   -2.8467548279
 H   -0.7662796158   -0.3868268438   -4.0211149296
 H   -0.7653329514   -3.2948874962   -2.3524764110
 H    2.0870003725    3.2880973720   -0.0015854519
 H   -0.7656762498    3.6758322487    1.6756964707
 H   -0.7643327852    3.6847027164   -1.6777110261
 H    2.0868343439   -1.6425551963    2.8483366512
 H   -0.7666799392   -3.2887043640    2.3458078904
 H   -0.7649348496   -0.3895106157    4.0298050670
units bohr
0 2
}

basis {

assign 6-31g_2dfp_

[ 6-31g_2dfp_ ]

spherical

!----------------------------------------------------------------------
! Basis Set Exchange
! Version v0.8.13
! https://www.basissetexchange.org
!----------------------------------------------------------------------
!   Basis set: 6-31G(2df,p)
! Description: 6-31G(2df,p)
!        Role: orbital
!     Version: 0  (Data from the original Basis Set Exchange)
!----------------------------------------------------------------------

****
H     0
S    3   1.00
     18.7311370              0.03349460
      2.8253937              0.23472695
      0.6401217              0.81375733
S    1   1.00
      0.1612778              1.00000000
P    1   1.00
      1.5000000              1.0000000
P    1   1.00
      0.3750000              1.0000000
****
B     0
S    6   1.00
   2068.8823000              0.0018663
    310.6495700              0.0142515
     70.6830330              0.0695516
     19.8610800              0.2325729
      6.2993048              0.4670787
      2.1270270              0.3634314
SP   3   1.00
      4.7279710             -0.1303938              0.0745976
      1.1903377             -0.1307889              0.3078467
      0.3594117              1.1309444              0.7434568
SP   1   1.00
      0.1267512              1.0000000              1.0000000
D    1   1.00
      0.8020000              1.0000000
D    1   1.00
      0.2005000              1.0000000
F    1   1.00
      0.5000000              1.0000000
****
C     0
S    6   1.00
   3047.5249000              0.0018347
    457.3695100              0.0140373
    103.9486900              0.0688426
     29.2101550              0.2321844
      9.2866630              0.4679413
      3.1639270              0.3623120
SP   3   1.00
      7.8682724             -0.1193324              0.0689991
      1.8812885             -0.1608542              0.3164240
      0.5442493              1.1434564              0.7443083
SP   1   1.00
      0.1687144              1.0000000              1.0000000
D    1   1.00
      1.2520000              1.0000000
D    1   1.00
      0.3130000              1.0000000
F    1   1.00
      0.8000000              1.0000000
****
N     0
S    6   1.00
   4173.5110000              0.0018348
    627.4579000              0.0139950
    142.9021000              0.0685870
     40.2343300              0.2322410
     12.8202100              0.4690700
      4.3904370              0.3604550
SP   3   1.00
     11.6263580             -0.1149610              0.0675800
      2.7162800             -0.1691180              0.3239070
      0.7722180              1.1458520              0.7408950
SP   1   1.00
      0.2120313              1.0000000              1.0000000
D    1   1.00
      1.8260000              1.0000000
D    1   1.00
      0.4565000              1.0000000
F    1   1.00
      1.0000000              1.0000000
****
O     0
S    6   1.00
   5484.6717000              0.0018311
    825.2349500              0.0139501
    188.0469600              0.0684451
     52.9645000              0.2327143
     16.8975700              0.4701930
      5.7996353              0.3585209
SP   3   1.00
     15.5396160             -0.1107775              0.0708743
      3.5999336             -0.1480263              0.3397528
      1.0137618              1.1307670              0.7271586
SP   1   1.00
      0.2700058              1.0000000              1.0000000
D    1   1.00
      2.5840000              1.0000000
D    1   1.00
      0.6460000              1.0000000
F    1   1.00
      1.4000000              1.0000000
****
F     0
S    6   1.00
   7001.7130900              0.0018196169
   1051.3660900              0.0139160796
    239.2856900              0.0684053245
     67.3974453              0.233185760
     21.5199573              0.471267439
      7.40310130             0.356618546
SP   3   1.00
     20.8479528             -0.108506975            0.0716287243
      4.80830834            -0.146451658            0.3459121030
      1.34406986             1.128688580            0.7224699570
SP   1   1.00
      0.358151393            1.0000000              1.0000000
D    1   1.00
      3.5000000              1.0000000
D    1   1.00
      0.8750000              1.0000000
F    1   1.00
      1.8500000              1.0000000
****
Al     0
S    6   1.00
  13983.1000000              0.00194267
   2098.7500000              0.0148599
    477.7050000              0.0728494
    134.3600000              0.2468300
     42.8709000              0.4872580
     14.5189000              0.3234960
SP   6   1.00
    239.6680000             -0.00292619             0.00460285
     57.4419000             -0.0374080              0.0331990
     18.2859000             -0.1144870              0.1362820
      6.5991400              0.1156350              0.3304760
      2.4904900              0.6125950              0.4491460
      0.9445400              0.3937990              0.2657040
SP   3   1.00
      1.2779000             -0.2276060             -0.0175130
      0.3975900              0.00144583             0.2445330
      0.1600950              1.0927900              0.8049340
SP   1   1.00
      0.0556577              1.0000000              1.0000000
D    1   1.00
      0.6500000              1.0000000
D    1   1.00
      0.1625000              1.0000000
F    1   1.00
      0.2500000              1.0000000
****
Si     0
S    6   1.00
  16115.9000000              0.00195948
   2425.5800000              0.01492880
    553.8670000              0.07284780
    156.3400000              0.24613000
     50.0683000              0.48591400
     17.0178000              0.32500200
SP   6   1.00
    292.7180000             -0.00278094             0.00443826
     69.8731000             -0.03571460             0.03266790
     22.3363000             -0.11498500             0.13472100
      8.1503900              0.09356340             0.32867800
      3.1345800              0.60301700             0.44964000
      1.2254300              0.41895900             0.26137200
SP   3   1.00
      1.7273800             -0.24463000            -0.01779510
      0.5729220              0.00431572             0.25353900
      0.2221920              1.09818000             0.80066900
SP   1   1.00
      0.0778369              1.00000000             1.00000000
D    1   1.00
      0.9000000              1.0000000
D    1   1.00
      0.2250000              1.0000000
F    1   1.00
      0.3200000              1.0000000
****
P     0
S    6   1.00
  19413.3000000              0.0018516
   2909.4200000              0.0142062
    661.3640000              0.0699995
    185.7590000              0.2400790
     59.1943000              0.4847620
     20.0310000              0.3352000
SP   6   1.00
    339.4780000             -0.00278217             0.00456462
     81.0101000             -0.0360499              0.03369360
     25.8780000             -0.1166310              0.13975500
      9.4522100              0.0968328              0.33936200
      3.6656600              0.6144180              0.45092100
      1.4674600              0.4037980              0.23858600
SP   3   1.00
      2.1562300             -0.2529230             -0.01776530
      0.7489970              0.0328517              0.27405800
      0.2831450              1.0812500              0.78542100
SP   1   1.00
      0.0998317              1.0000000              1.00000000
D    1   1.00
      1.1000000              1.0000000
D    1   1.00
      0.2750000              1.0000000
F    1   1.00
      0.4500000              1.0000000
****
S     0
S    6   1.00
  21917.1000000              0.0018690
   3301.4900000              0.0142300
    754.1460000              0.0696960
    212.7110000              0.2384870
     67.9896000              0.4833070
     23.0515000              0.3380740
SP   6   1.00
    423.7350000             -0.0023767              0.0040610
    100.7100000             -0.0316930              0.0306810
     32.1599000             -0.1133170              0.1304520
     11.8079000              0.0560900              0.3272050
      4.6311000              0.5922550              0.4528510
      1.8702500              0.4550060              0.2560420
SP   3   1.00
      2.6158400             -0.2503740             -0.0145110
      0.9221670              0.0669570              0.3102630
      0.3412870              1.0545100              0.7544830
SP   1   1.00
      0.1171670              1.0000000              1.0000000
D    1   1.00
      1.3000000              1.0000000
D    1   1.00
      0.3250000              1.0000000
F    1   1.00
      0.5500000              1.0000000
****
Cl     0
S    6   1.00
  25180.1000000              0.0018330
   3780.3500000              0.0140340
    860.4740000              0.0690970
    242.1450000              0.2374520
     77.3349000              0.4830340
     26.2470000              0.3398560
SP   6   1.00
    491.7650000             -0.0022974              0.0039894
    116.9840000             -0.0307140              0.0303180
     37.4153000             -0.1125280              0.1298800
     13.7834000              0.0450160              0.3279510
      5.4521500              0.5893530              0.4535270
      2.2258800              0.4652060              0.2521540
SP   3   1.00
      3.1864900             -0.2518300             -0.0142990
      1.1442700              0.0615890              0.3235720
      0.4203770              1.0601800              0.7435070
SP   1   1.00
      0.1426570              1.0000000              1.0000000
D    1   1.00
      1.5000000              1.0000000
D    1   1.00
      0.3750000              1.0000000
F    1   1.00
      0.7000000              1.0000000
****
}

set {
reference uhf
freeze_core true
e_convergence 10
d_convergence 10
dft_spherical_points 1202
dft_radial_points 99
}

e = energy('b3lyp')

print_out('Grab this energy {0}'.format(e))
--------------------------------------------------------------------------

    Molecular point group: c1

    Geometry (in Bohr), charge = 0, multiplicity = 2:

       Center              X                  Y                   Z               Mass
    ------------   -----------------  -----------------  -----------------  -----------------
         C           -0.323340889339     0.000424815712    -0.000000355397    12.000000000000
         C            0.062165254061    -1.401972059088    -2.425645492697    12.000000000000
         C            0.058970391361     2.801937128312    -0.000798257597    12.000000000000
         C            0.062164620361    -1.400590087288     2.426443317603    12.000000000000
         H            2.086837100861    -1.645122745288    -2.846754166697     1.007825032230
         H           -0.766279079939    -0.386657006388    -4.021114268397     1.007825032230
         H           -0.765332415539    -3.294717658788    -2.352475749797     1.007825032230
         H            2.087000908361     3.288267209412    -0.001584790697     1.007825032230
         H           -0.765675713939     3.676002086112     1.675697131903     1.007825032230
         H           -0.764332249339     3.684872553812    -1.677710364897     1.007825032230
         H            2.086834879761    -1.642385358888     2.848337312403     1.007825032230
         H           -0.766679403339    -3.288534526588     2.345808551603     1.007825032230
         H           -0.764934313739    -0.389340778288     4.029805728203     1.007825032230

  Charge       = 0
  Multiplicity = 2
  Basis Set: ANONYMOUSB7EF6133
    Blend: 6-31G_2DFP_
  Basis Set: (ANONYMOUSB7EF6133 AUX)
    Blend: DEF2-UNIVERSAL-JKFIT

    Orbital Energies [Eh]
    ---------------------

    Alpha Occupied:

       1A    -10.180342     2A    -10.167054     3A    -10.167014
       4A    -10.166977     5A     -0.797766     6A     -0.686220
       7A     -0.686154     8A     -0.530776     9A     -0.441126
      10A     -0.434774    11A     -0.434570    12A     -0.382748
      13A     -0.382448    14A     -0.363611    15A     -0.338083
      16A     -0.337913    17A     -0.168961

    Alpha Virtual:

      18A      0.076073    19A      0.134120    20A      0.134188
      21A      0.142565    22A      0.142691    23A      0.154879
      24A      0.178665    25A      0.178893    26A      0.203529
      27A      0.214819    28A      0.275929    29A      0.276040
      30A      0.399074    31A      0.399380    32A      0.403347
      33A      0.424050    34A      0.424146    35A      0.456593
      36A      0.495362    37A      0.495418    38A      0.512160
      39A      0.513980    40A      0.578727    41A      0.578907
      42A      0.591513    43A      0.591754    44A      0.602571
      45A      0.624686    46A      0.631852    47A      0.636142
      48A      0.636353    49A      0.663244    50A      0.663581
      51A      0.683705    52A      0.684001    53A      0.734993
      54A      0.825392    55A      0.825422    56A      0.853916
      57A      0.915008    58A      0.915043    59A      0.944020
      60A      0.944704    61A      0.961222    62A      0.961361
      63A      1.003467    64A      1.127996    65A      1.128217
      66A      1.142215    67A      1.163167    68A      1.163373
      69A      1.223324    70A      1.274352    71A      1.274641
      72A      1.279353    73A      1.324103    74A      1.324607
      75A      1.355969    76A      1.365741    77A      1.366357
      78A      1.392462    79A      1.403907    80A      1.404154
      81A      1.416846    82A      1.417420    83A      1.427916
      84A      1.491493    85A      1.499084    86A      1.542786
      87A      1.542870    88A      1.574296    89A      1.574600
      90A      1.669834    91A      1.739007    92A      1.739835
      93A      1.768326    94A      1.831198    95A      1.831592
      96A      1.971730    97A      2.018109    98A      2.018628
      99A      2.019664   100A      2.052267   101A      2.053012
     102A      2.738445   103A      2.738523   104A      2.790922
     105A      2.811429   106A      2.889688   107A      2.890224
     108A      2.894940   109A      2.929473   110A      2.929524
     111A      2.958998   112A      2.964263   113A      2.964487
     114A      3.034013   115A      3.071152   116A      3.071412
     117A      3.084352   118A      3.168655   119A      3.168909
     120A      3.180585   121A      3.285268   122A      3.285338
     123A      3.327019   124A      3.327335   125A      3.375616
     126A      3.489833   127A      3.490473   128A      3.513931
     129A      3.525416   130A      3.568286   131A      3.568484
     132A      3.575146   133A      3.666094   134A      3.666692
     135A      3.679648   136A      3.694081   137A      3.694132
     138A      3.776762   139A      3.776881   140A      3.789115
     141A      3.912160   142A      3.912317   143A      4.034461
     144A      4.111284   145A      4.111459   146A      4.148072
     147A      4.148181   148A      4.173228   149A      4.202416
     150A      4.203116   151A      4.203241   152A      4.210859
     153A      4.315527   154A      4.316380   155A      4.358970
     156A      4.424334   157A      4.424575   158A      4.443428
     159A      4.515790   160A      4.517903   161A      4.578058
     162A      4.578490   163A      4.617544   164A      4.709424
     165A      4.774081   166A      4.775098   167A      4.836924
     168A      4.962888   169A      5.002496   170A      5.003397
     171A      5.228049   172A      5.246796   173A      5.246837
     174A      5.355245   175A      5.355769   176A      5.479349

    Beta Occupied:

       1A    -10.167811     2A    -10.167766     3A    -10.167747
       4A    -10.166520     5A     -0.781091     6A     -0.684023
       7A     -0.683956     8A     -0.511747     9A     -0.431150
      10A     -0.430938    11A     -0.421822    12A     -0.376842
      13A     -0.376524    14A     -0.362594    15A     -0.333208
      16A     -0.333035

    Beta Virtual:

      17A     -0.025743    18A      0.077082    19A      0.135018
      20A      0.135069    21A      0.144441    22A      0.144558
      23A      0.163338    24A      0.182335    25A      0.182566
      26A      0.214983    27A      0.218977    28A      0.282279
      29A      0.282386    30A      0.400242    31A      0.400554
      32A      0.419790    33A      0.426858    34A      0.426960
      35A      0.468500    36A      0.497626    37A      0.497675
      38A      0.513896    39A      0.556325    40A      0.584282
      41A      0.584452    42A      0.597688    43A      0.597939
      44A      0.609994    45A      0.628006    46A      0.632064
      47A      0.639428    48A      0.639639    49A      0.666823
      50A      0.667129    51A      0.686337    52A      0.686638
      53A      0.757516    54A      0.830563    55A      0.830588
      56A      0.855269    57A      0.922981    58A      0.923013
      59A      0.945938    60A      0.953552    61A      0.966521
      62A      0.966674    63A      1.008706    64A      1.131985
      65A      1.132280    66A      1.155595    67A      1.168290
      68A      1.168401    69A      1.232296    70A      1.279944
      71A      1.280242    72A      1.285105    73A      1.329082
      74A      1.329607    75A      1.365383    76A      1.370983
      77A      1.371601    78A      1.393522    79A      1.407364
      80A      1.407637    81A      1.421909    82A      1.422450
      83A      1.428185    84A      1.492543    85A      1.509526
      86A      1.547209    87A      1.547263    88A      1.582219
      89A      1.582419    90A      1.674681    91A      1.744776
      92A      1.745589    93A      1.779105    94A      1.835053
      95A      1.835448    96A      1.972591    97A      2.024808
      98A      2.026087    99A      2.039685   100A      2.059007
     101A      2.059699   102A      2.746786   103A      2.746853
     104A      2.811831   105A      2.816067   106A      2.902385
     107A      2.902905   108A      2.924646   109A      2.931954
     110A      2.932000   111A      2.960064   112A      2.968813
     113A      2.969028   114A      3.041948   115A      3.081058
     116A      3.081315   117A      3.086178   118A      3.184423
     119A      3.184641   120A      3.188270   121A      3.290074
     122A      3.290126   123A      3.330811   124A      3.331154
     125A      3.383433   126A      3.492564   127A      3.493203
     128A      3.512319   129A      3.528438   130A      3.575005
     131A      3.581685   132A      3.581759   133A      3.670896
     134A      3.671379   135A      3.692942   136A      3.725606
     137A      3.725881   138A      3.781301   139A      3.781396
     140A      3.817661   141A      3.921962   142A      3.922148
     143A      4.045348   144A      4.118151   145A      4.118223
     146A      4.155235   147A      4.155432   148A      4.187289
     149A      4.208778   150A      4.209181   151A      4.210653
     152A      4.215338   153A      4.322941   154A      4.323845
     155A      4.362337   156A      4.432559   157A      4.432782
     158A      4.446310   159A      4.523584   160A      4.525689
     161A      4.588675   162A      4.589078   163A      4.624735
     164A      4.719767   165A      4.781054   166A      4.782033
     167A      4.839844   168A      4.967682   169A      5.006553
     170A      5.007418   171A      5.233764   172A      5.248581
     173A      5.248621   174A      5.361726   175A      5.362248
     176A      5.481671

    Final Occupation by Irrep:
              A
    DOCC [    16 ]
    SOCC [     1 ]

  @DF-UKS Final Energy:  -157.81306601866311

   => Energetics <=

    Nuclear Repulsion Energy =            125.3946103782625414
    One-Electron Energy =                -458.7488758555485333
    Two-Electron Energy =                 195.8483421553180222
    DFT Exchange-Correlation Energy =     -20.3071426966951343
    Empirical Dispersion Energy =           0.0000000000000000
    VV10 Nonlocal Energy =                  0.0000000000000000
    Total Energy =                       -157.8130660186631076

  UHF NO Occupations:
  HONO-2 :   15  A 1.9996009
  HONO-1 :   16  A 1.9989805
  HONO-0 :   17  A 1.0000000
  LUNO+0 :   18  A 0.0010195
  LUNO+1 :   19  A 0.0003991
  LUNO+2 :   20  A 0.0001977
  LUNO+3 :   21  A 0.0001974

Computation Completed

Properties will be evaluated at   0.000000,   0.000000,   0.000000 [a0]

Properties computed using the SCF density matrix

  Nuclear Dipole Moment: [e a0]
     X:     0.8272      Y:     0.0012      Z:     0.0000

  Electronic Dipole Moment: [e a0]
     X:    -0.7493      Y:    -0.0011      Z:    -0.0000

  Dipole Moment: [e a0]
     X:     0.0779      Y:     0.0001      Z:    -0.0000     Total:     0.0779

  Dipole Moment: [D]
     X:     0.1980      Y:     0.0003      Z:    -0.0000     Total:     0.1980

*** tstop() called on n051 at Fri Nov  5 12:36:22 2021
Module time:
	user time   =     545.01 seconds =       9.08 minutes
	system time =      11.97 seconds =       0.20 minutes
	total time  =        140 seconds =       2.33 minutes
Total time:
	user time   =     545.01 seconds =       9.08 minutes
	system time =      11.97 seconds =       0.20 minutes
	total time  =        140 seconds =       2.33 minutes
Grab this energy -157.8130660186631
    Psi4 stopped on: Friday, 05 November 2021 12:36PM
    Psi4 wall time for execution: 0:02:20.12

*** Psi4 exiting successfully. Buy a developer a beer!
