                               Psi4 1.4a2.dev629

  ==> Input File <==

--------------------------------------------------------------------------
import os
memory 14 GB

molecule {
 C   -0.3230509931   -0.0000021210    0.0000000000
 C    0.0608178620   -1.3973351767   -2.4202447606
 C    0.0606984661    2.7946756911   -0.0000000000
 C    0.0608178620   -1.3973351767    2.4202447606
 H    2.0865929061   -1.6410504318   -2.8421631192
 H   -0.7651205202   -0.3858861273   -4.0204584666
 H   -0.7652837406   -3.2888170228   -2.3444539768
 H    2.0864542941    3.2820080756   -0.0000000000
 H   -0.7653613293    3.6747357789    1.6760109744
 H   -0.7653613293    3.6747357789   -1.6760109744
 H    2.0865929061   -1.6410504318    2.8421631192
 H   -0.7652837406   -3.2888170228    2.3444539768
 H   -0.7651205202   -0.3858861273    4.0204584666
units bohr
0 2
}

basis {

assign 6-31g_2dfp_

[ 6-31g_2dfp_ ]

spherical

!----------------------------------------------------------------------
! Basis Set Exchange
! Version v0.8.13
! https://www.basissetexchange.org
!----------------------------------------------------------------------
!   Basis set: 6-31G(2df,p)
! Description: 6-31G(2df,p)
!        Role: orbital
!     Version: 0  (Data from the original Basis Set Exchange)
!----------------------------------------------------------------------

****
H     0
S    3   1.00
     18.7311370              0.03349460
      2.8253937              0.23472695
      0.6401217              0.81375733
S    1   1.00
      0.1612778              1.00000000
P    1   1.00
      1.5000000              1.0000000
P    1   1.00
      0.3750000              1.0000000
****
B     0
S    6   1.00
   2068.8823000              0.0018663
    310.6495700              0.0142515
     70.6830330              0.0695516
     19.8610800              0.2325729
      6.2993048              0.4670787
      2.1270270              0.3634314
SP   3   1.00
      4.7279710             -0.1303938              0.0745976
      1.1903377             -0.1307889              0.3078467
      0.3594117              1.1309444              0.7434568
SP   1   1.00
      0.1267512              1.0000000              1.0000000
D    1   1.00
      0.8020000              1.0000000
D    1   1.00
      0.2005000              1.0000000
F    1   1.00
      0.5000000              1.0000000
****
C     0
S    6   1.00
   3047.5249000              0.0018347
    457.3695100              0.0140373
    103.9486900              0.0688426
     29.2101550              0.2321844
      9.2866630              0.4679413
      3.1639270              0.3623120
SP   3   1.00
      7.8682724             -0.1193324              0.0689991
      1.8812885             -0.1608542              0.3164240
      0.5442493              1.1434564              0.7443083
SP   1   1.00
      0.1687144              1.0000000              1.0000000
D    1   1.00
      1.2520000              1.0000000
D    1   1.00
      0.3130000              1.0000000
F    1   1.00
      0.8000000              1.0000000
****
N     0
S    6   1.00
   4173.5110000              0.0018348
    627.4579000              0.0139950
    142.9021000              0.0685870
     40.2343300              0.2322410
     12.8202100              0.4690700
      4.3904370              0.3604550
SP   3   1.00
     11.6263580             -0.1149610              0.0675800
      2.7162800             -0.1691180              0.3239070
      0.7722180              1.1458520              0.7408950
SP   1   1.00
      0.2120313              1.0000000              1.0000000
D    1   1.00
      1.8260000              1.0000000
D    1   1.00
      0.4565000              1.0000000
F    1   1.00
      1.0000000              1.0000000
****
O     0
S    6   1.00
   5484.6717000              0.0018311
    825.2349500              0.0139501
    188.0469600              0.0684451
     52.9645000              0.2327143
     16.8975700              0.4701930
      5.7996353              0.3585209
SP   3   1.00
     15.5396160             -0.1107775              0.0708743
      3.5999336             -0.1480263              0.3397528
      1.0137618              1.1307670              0.7271586
SP   1   1.00
      0.2700058              1.0000000              1.0000000
D    1   1.00
      2.5840000              1.0000000
D    1   1.00
      0.6460000              1.0000000
F    1   1.00
      1.4000000              1.0000000
****
F     0
S    6   1.00
   7001.7130900              0.0018196169
   1051.3660900              0.0139160796
    239.2856900              0.0684053245
     67.3974453              0.233185760
     21.5199573              0.471267439
      7.40310130             0.356618546
SP   3   1.00
     20.8479528             -0.108506975            0.0716287243
      4.80830834            -0.146451658            0.3459121030
      1.34406986             1.128688580            0.7224699570
SP   1   1.00
      0.358151393            1.0000000              1.0000000
D    1   1.00
      3.5000000              1.0000000
D    1   1.00
      0.8750000              1.0000000
F    1   1.00
      1.8500000              1.0000000
****
Al     0
S    6   1.00
  13983.1000000              0.00194267
   2098.7500000              0.0148599
    477.7050000              0.0728494
    134.3600000              0.2468300
     42.8709000              0.4872580
     14.5189000              0.3234960
SP   6   1.00
    239.6680000             -0.00292619             0.00460285
     57.4419000             -0.0374080              0.0331990
     18.2859000             -0.1144870              0.1362820
      6.5991400              0.1156350              0.3304760
      2.4904900              0.6125950              0.4491460
      0.9445400              0.3937990              0.2657040
SP   3   1.00
      1.2779000             -0.2276060             -0.0175130
      0.3975900              0.00144583             0.2445330
      0.1600950              1.0927900              0.8049340
SP   1   1.00
      0.0556577              1.0000000              1.0000000
D    1   1.00
      0.6500000              1.0000000
D    1   1.00
      0.1625000              1.0000000
F    1   1.00
      0.2500000              1.0000000
****
Si     0
S    6   1.00
  16115.9000000              0.00195948
   2425.5800000              0.01492880
    553.8670000              0.07284780
    156.3400000              0.24613000
     50.0683000              0.48591400
     17.0178000              0.32500200
SP   6   1.00
    292.7180000             -0.00278094             0.00443826
     69.8731000             -0.03571460             0.03266790
     22.3363000             -0.11498500             0.13472100
      8.1503900              0.09356340             0.32867800
      3.1345800              0.60301700             0.44964000
      1.2254300              0.41895900             0.26137200
SP   3   1.00
      1.7273800             -0.24463000            -0.01779510
      0.5729220              0.00431572             0.25353900
      0.2221920              1.09818000             0.80066900
SP   1   1.00
      0.0778369              1.00000000             1.00000000
D    1   1.00
      0.9000000              1.0000000
D    1   1.00
      0.2250000              1.0000000
F    1   1.00
      0.3200000              1.0000000
****
P     0
S    6   1.00
  19413.3000000              0.0018516
   2909.4200000              0.0142062
    661.3640000              0.0699995
    185.7590000              0.2400790
     59.1943000              0.4847620
     20.0310000              0.3352000
SP   6   1.00
    339.4780000             -0.00278217             0.00456462
     81.0101000             -0.0360499              0.03369360
     25.8780000             -0.1166310              0.13975500
      9.4522100              0.0968328              0.33936200
      3.6656600              0.6144180              0.45092100
      1.4674600              0.4037980              0.23858600
SP   3   1.00
      2.1562300             -0.2529230             -0.01776530
      0.7489970              0.0328517              0.27405800
      0.2831450              1.0812500              0.78542100
SP   1   1.00
      0.0998317              1.0000000              1.00000000
D    1   1.00
      1.1000000              1.0000000
D    1   1.00
      0.2750000              1.0000000
F    1   1.00
      0.4500000              1.0000000
****
S     0
S    6   1.00
  21917.1000000              0.0018690
   3301.4900000              0.0142300
    754.1460000              0.0696960
    212.7110000              0.2384870
     67.9896000              0.4833070
     23.0515000              0.3380740
SP   6   1.00
    423.7350000             -0.0023767              0.0040610
    100.7100000             -0.0316930              0.0306810
     32.1599000             -0.1133170              0.1304520
     11.8079000              0.0560900              0.3272050
      4.6311000              0.5922550              0.4528510
      1.8702500              0.4550060              0.2560420
SP   3   1.00
      2.6158400             -0.2503740             -0.0145110
      0.9221670              0.0669570              0.3102630
      0.3412870              1.0545100              0.7544830
SP   1   1.00
      0.1171670              1.0000000              1.0000000
D    1   1.00
      1.3000000              1.0000000
D    1   1.00
      0.3250000              1.0000000
F    1   1.00
      0.5500000              1.0000000
****
Cl     0
S    6   1.00
  25180.1000000              0.0018330
   3780.3500000              0.0140340
    860.4740000              0.0690970
    242.1450000              0.2374520
     77.3349000              0.4830340
     26.2470000              0.3398560
SP   6   1.00
    491.7650000             -0.0022974              0.0039894
    116.9840000             -0.0307140              0.0303180
     37.4153000             -0.1125280              0.1298800
     13.7834000              0.0450160              0.3279510
      5.4521500              0.5893530              0.4535270
      2.2258800              0.4652060              0.2521540
SP   3   1.00
      3.1864900             -0.2518300             -0.0142990
      1.1442700              0.0615890              0.3235720
      0.4203770              1.0601800              0.7435070
SP   1   1.00
      0.1426570              1.0000000              1.0000000
D    1   1.00
      1.5000000              1.0000000
D    1   1.00
      0.3750000              1.0000000
F    1   1.00
      0.7000000              1.0000000
****
}

set {
reference uhf
freeze_core true
e_convergence 10
d_convergence 10
dft_spherical_points 1202
dft_radial_points 99
}

e = energy('b3lyp')

print_out('Grab this energy {0}'.format(e))
--------------------------------------------------------------------------

    Molecular point group: cs

    Geometry (in Bohr), charge = 0, multiplicity = 2:

       Center              X                  Y                   Z               Mass
    ------------   -----------------  -----------------  -----------------  -----------------
         C           -0.322920633045    -0.000002311196     0.000000000000    12.000000000000
         C            0.060948222055    -1.397335366896    -2.420244760600    12.000000000000
         C            0.060828826155     2.794675500904     0.000000000000    12.000000000000
         C            0.060948222055    -1.397335366896     2.420244760600    12.000000000000
         H            2.086723266155    -1.641050621996    -2.842163119200     1.007825032230
         H           -0.764990160145    -0.385886317496    -4.020458466600     1.007825032230
         H           -0.765153380545    -3.288817212996    -2.344453976800     1.007825032230
         H            2.086584654155     3.282007885404     0.000000000000     1.007825032230
         H           -0.765230969245     3.674735588704     1.676010974400     1.007825032230
         H           -0.765230969245     3.674735588704    -1.676010974400     1.007825032230
         H            2.086723266155    -1.641050621996     2.842163119200     1.007825032230
         H           -0.765153380545    -3.288817212996     2.344453976800     1.007825032230
         H           -0.764990160145    -0.385886317496     4.020458466600     1.007825032230

  Charge       = 0
  Multiplicity = 2
  Basis Set: ANONYMOUS7FABBA60
    Blend: 6-31G_2DFP_
  Basis Set: (ANONYMOUS7FABBA60 AUX)
    Blend: DEF2-UNIVERSAL-JKFIT

    Orbital Energies [Eh]
    ---------------------

    Alpha Occupied:

       1Ap   -10.179515     2Ap   -10.166721     1App  -10.166721
       3Ap   -10.166675     4Ap    -0.799075     5Ap    -0.686498
       2App   -0.686498     6Ap    -0.530940     7Ap    -0.441732
       3App   -0.435222     8Ap    -0.435221     9Ap    -0.382536
       4App   -0.382535     5App   -0.363291     6App   -0.338345
      10Ap    -0.338345    11Ap    -0.168657

    Alpha Virtual:

      12Ap     0.076036    13Ap     0.134136     7App    0.134137
      14Ap     0.142698     8App    0.142699    15Ap     0.155049
      16Ap     0.178788     9App    0.178788    17Ap     0.204927
      10App    0.215024    11App    0.276743    18Ap     0.276745
      19Ap     0.399195    12App    0.399199    20Ap     0.403044
      13App    0.423772    21Ap     0.423772    22Ap     0.457361
      23Ap     0.495608    14App    0.495609    15App    0.512442
      24Ap     0.514322    25Ap     0.579442    16App    0.579451
      17App    0.592079    26Ap     0.592081    27Ap     0.602994
      28Ap     0.625048    18App    0.631900    19App    0.637130
      29Ap     0.637134    30Ap     0.664002    20App    0.664002
      31Ap     0.684294    21App    0.684295    32Ap     0.734656
      22App    0.825272    33Ap     0.825275    23App    0.855051
      24App    0.915710    34Ap     0.915716    35Ap     0.944340
      25App    0.945513    26App    0.962181    36Ap     0.962198
      37Ap     1.004417    38Ap     1.129074    27App    1.129087
      39Ap     1.142986    40Ap     1.163417    28App    1.163429
      41Ap     1.224648    42Ap     1.275520    29App    1.275524
      43Ap     1.280035    30App    1.324890    44Ap     1.324892
      45Ap     1.356505    31App    1.368029    46Ap     1.368034
      32App    1.393465    47Ap     1.403035    33App    1.403037
      34App    1.417469    48Ap     1.417476    35App    1.429074
      36App    1.493241    49Ap     1.499080    37App    1.543724
      50Ap     1.543726    51Ap     1.575695    38App    1.575698
      52Ap     1.668986    53Ap     1.740536    39App    1.740547
      54Ap     1.769812    40App    1.832165    55Ap     1.832166
      41App    1.973715    56Ap     2.020395    57Ap     2.020919
      42App    2.020923    58Ap     2.057583    43App    2.057584
      44App    2.739254    59Ap     2.739255    60Ap     2.792295
      45App    2.814242    61Ap     2.891183    46App    2.891189
      62Ap     2.896860    63Ap     2.929517    47App    2.929526
      48App    2.959184    64Ap     2.964032    49App    2.964046
      65Ap     3.034141    50App    3.072193    66Ap     3.072207
      51App    3.086345    67Ap     3.169727    52App    3.169735
      68Ap     3.183097    69Ap     3.285477    53App    3.285477
      70Ap     3.327835    54App    3.327840    71Ap     3.374112
      55App    3.492006    72Ap     3.492026    56App    3.514937
      73Ap     3.527978    57App    3.568586    74Ap     3.568607
      58App    3.577139    75Ap     3.665538    59App    3.665546
      76Ap     3.681084    60App    3.695499    77Ap     3.695516
      78Ap     3.781337    61App    3.781363    79Ap     3.789508
      80Ap     3.915403    62App    3.915410    81Ap     4.036852
      82Ap     4.113948    63App    4.113951    83Ap     4.148872
      64App    4.148881    84Ap     4.175148    85Ap     4.204956
      65App    4.206101    86Ap     4.206104    66App    4.212782
      87Ap     4.317351    67App    4.317371    68App    4.360862
      88Ap     4.425364    69App    4.425367    70App    4.443907
      71App    4.520196    89Ap     4.520197    72App    4.582554
      90Ap     4.582566    91Ap     4.625271    92Ap     4.715539
      93Ap     4.781818    73App    4.781826    74App    4.842143
      94Ap     4.964632    75App    5.003697    95Ap     5.003711
      96Ap     5.228534    76App    5.247948    97Ap     5.247948
      98Ap     5.358291    77App    5.358304    78App    5.486362

    Beta Occupied:

       1Ap   -10.167478     1App  -10.167478     2Ap   -10.167448
       3Ap   -10.165730     4Ap    -0.782363     5Ap    -0.684275
       2App   -0.684275     6Ap    -0.512058     3App   -0.431555
       7Ap    -0.431554     8Ap    -0.422291     9Ap    -0.376569
       4App   -0.376567     5App   -0.362259     6App   -0.333488
      10Ap    -0.333487

    Beta Virtual:

      11Ap    -0.025882    12Ap     0.077060    13Ap     0.135028
       7App    0.135029    14Ap     0.144599     8App    0.144599
      15Ap     0.163595    16Ap     0.182500     9App    0.182501
      10App    0.215263    17Ap     0.220079    11App    0.283002
      18Ap     0.283004    19Ap     0.400403    12App    0.400407
      20Ap     0.419402    13App    0.426575    21Ap     0.426575
      22Ap     0.469701    23Ap     0.497890    14App    0.497891
      15App    0.514201    24Ap     0.556555    25Ap     0.585000
      16App    0.585008    17App    0.598187    26Ap     0.598188
      27Ap     0.610457    28Ap     0.628521    18App    0.632069
      19App    0.640507    29Ap     0.640511    30Ap     0.667524
      20App    0.667525    31Ap     0.687021    21App    0.687022
      32Ap     0.756924    22App    0.830474    33Ap     0.830476
      23App    0.856454    24App    0.923692    34Ap     0.923698
      25App    0.947359    35Ap     0.953190    26App    0.967521
      36Ap     0.967537    37Ap     1.009572    38Ap     1.133096
      27App    1.133107    39Ap     1.156417    40Ap     1.168481
      28App    1.168493    41Ap     1.233702    42Ap     1.281187
      29App    1.281191    43Ap     1.285698    30App    1.329901
      44Ap     1.329902    45Ap     1.365962    31App    1.373197
      46Ap     1.373201    32App    1.394539    47Ap     1.406514
      33App    1.406517    34App    1.422570    48Ap     1.422576
      35App    1.429364    36App    1.494301    49Ap     1.509610
      50Ap     1.548098    37App    1.548099    38App    1.583618
      51Ap     1.583618    52Ap     1.673833    53Ap     1.746299
      39App    1.746310    54Ap     1.780657    40App    1.836063
      55Ap     1.836064    41App    1.974585    56Ap     2.027391
      42App    2.027395    57Ap     2.041843    58Ap     2.064287
      43App    2.064288    44App    2.747461    59Ap     2.747463
      45App    2.814658    60Ap     2.817377    61Ap     2.903596
      46App    2.903601    62Ap     2.926670    63Ap     2.932204
      47App    2.932214    48App    2.960255    64Ap     2.968668
      49App    2.968682    65Ap     3.042206    50App    3.082235
      66Ap     3.082247    51App    3.088187    67Ap     3.185277
      52App    3.185282    68Ap     3.190692    69Ap     3.290500
      53App    3.290500    70Ap     3.331560    54App    3.331566
      71Ap     3.381948    55App    3.494742    72Ap     3.494762
      56App    3.513289    73Ap     3.530938    57App    3.577026
      58App    3.581850    74Ap     3.581872    75Ap     3.670029
      59App    3.670039    76Ap     3.694357    60App    3.727046
      77Ap     3.727062    78Ap     3.785961    61App    3.785988
      79Ap     3.817866    80Ap     3.925187    62App    3.925195
      81Ap     4.047596    82Ap     4.120578    63App    4.120580
      83Ap     4.156223    64App    4.156233    84Ap     4.189378
      65App    4.212035    85Ap     4.212038    86Ap     4.213023
      66App    4.217346    87Ap     4.324729    67App    4.324749
      68App    4.364224    88Ap     4.433754    69App    4.433757
      70App    4.446802    71App    4.528178    89Ap     4.528179
      72App    4.593192    90Ap     4.593204    91Ap     4.632464
      92Ap     4.725970    93Ap     4.788772    73App    4.788779
      74App    4.845055    94Ap     4.969472    75App    5.007799
      95Ap     5.007812    96Ap     5.234305    76App    5.249753
      97Ap     5.249753    98Ap     5.364855    77App    5.364868
      78App    5.488713

    Final Occupation by Irrep:
             Ap   App
    DOCC [    10,    6 ]
    SOCC [     1,    0 ]

  @DF-UKS Final Energy:  -157.81305856998054

   => Energetics <=

    Nuclear Repulsion Energy =            125.6042310140472296
    One-Electron Energy =                -459.1615106470287628
    Two-Electron Energy =                 196.0550606889772212
    DFT Exchange-Correlation Energy =     -20.3108396259762358
    Empirical Dispersion Energy =           0.0000000000000000
    VV10 Nonlocal Energy =                  0.0000000000000000
    Total Energy =                       -157.8130585699805408

  UHF NO Occupations:
  HONO-2 :    9 Ap 1.9995976
  HONO-1 :   10 Ap 1.9989896
  HONO-0 :   11 Ap 1.0000000
  LUNO+0 :   12 Ap 0.0010104
  LUNO+1 :   13 Ap 0.0004024
  LUNO+2 :    7App 0.0001946
  LUNO+3 :   14 Ap 0.0001946

Computation Completed

Properties will be evaluated at   0.000000,   0.000000,   0.000000 [a0]

Properties computed using the SCF density matrix

  Nuclear Dipole Moment: [e a0]
     X:     0.8281      Y:    -0.0000      Z:     0.0000

  Electronic Dipole Moment: [e a0]
     X:    -0.7512      Y:     0.0000      Z:     0.0000

  Dipole Moment: [e a0]
     X:     0.0769      Y:     0.0000      Z:     0.0000     Total:     0.0769

  Dipole Moment: [D]
     X:     0.1955      Y:     0.0000      Z:     0.0000     Total:     0.1955

*** tstop() called on n049 at Fri Nov  5 13:29:08 2021
Module time:
	user time   =     545.59 seconds =       9.09 minutes
	system time =      12.32 seconds =       0.21 minutes
	total time  =        140 seconds =       2.33 minutes
Total time:
	user time   =     545.59 seconds =       9.09 minutes
	system time =      12.32 seconds =       0.21 minutes
	total time  =        140 seconds =       2.33 minutes
Grab this energy -157.81305856998054
    Psi4 stopped on: Friday, 05 November 2021 01:29PM
    Psi4 wall time for execution: 0:02:20.30

*** Psi4 exiting successfully. Buy a developer a beer!
