                               Psi4 1.4a2.dev629

  ==> Input File <==

--------------------------------------------------------------------------
import os
memory 14 GB

molecule {
 C   -0.3233370759   -0.0077710795   -0.0000000000
 C    0.0606682583   -1.4023492799   -2.4248342753
 C    0.0619650327    2.8029600735   -0.0000000000
 C    0.0606682583   -1.4023492799    2.4248342753
 H    2.0857649205   -1.6408883906   -2.8494072179
 H   -0.7691351883   -0.3881006267   -4.0213662691
 H   -0.7631986115   -3.2941829835   -2.3476151247
 H    2.0891318167    3.2878889889    0.0000000000
 H   -0.7642832042    3.6839701324    1.6758685453
 H   -0.7642832042    3.6839701324   -1.6758685453
 H    2.0857649205   -1.6408883906    2.8494072179
 H   -0.7631986115   -3.2941829835    2.3476151247
 H   -0.7691351883   -0.3881006267    4.0213662691
units bohr
0 2
}

basis {

assign 6-31g_2dfp_

[ 6-31g_2dfp_ ]

spherical

!----------------------------------------------------------------------
! Basis Set Exchange
! Version v0.8.13
! https://www.basissetexchange.org
!----------------------------------------------------------------------
!   Basis set: 6-31G(2df,p)
! Description: 6-31G(2df,p)
!        Role: orbital
!     Version: 0  (Data from the original Basis Set Exchange)
!----------------------------------------------------------------------

****
H     0
S    3   1.00
     18.7311370              0.03349460
      2.8253937              0.23472695
      0.6401217              0.81375733
S    1   1.00
      0.1612778              1.00000000
P    1   1.00
      1.5000000              1.0000000
P    1   1.00
      0.3750000              1.0000000
****
B     0
S    6   1.00
   2068.8823000              0.0018663
    310.6495700              0.0142515
     70.6830330              0.0695516
     19.8610800              0.2325729
      6.2993048              0.4670787
      2.1270270              0.3634314
SP   3   1.00
      4.7279710             -0.1303938              0.0745976
      1.1903377             -0.1307889              0.3078467
      0.3594117              1.1309444              0.7434568
SP   1   1.00
      0.1267512              1.0000000              1.0000000
D    1   1.00
      0.8020000              1.0000000
D    1   1.00
      0.2005000              1.0000000
F    1   1.00
      0.5000000              1.0000000
****
C     0
S    6   1.00
   3047.5249000              0.0018347
    457.3695100              0.0140373
    103.9486900              0.0688426
     29.2101550              0.2321844
      9.2866630              0.4679413
      3.1639270              0.3623120
SP   3   1.00
      7.8682724             -0.1193324              0.0689991
      1.8812885             -0.1608542              0.3164240
      0.5442493              1.1434564              0.7443083
SP   1   1.00
      0.1687144              1.0000000              1.0000000
D    1   1.00
      1.2520000              1.0000000
D    1   1.00
      0.3130000              1.0000000
F    1   1.00
      0.8000000              1.0000000
****
N     0
S    6   1.00
   4173.5110000              0.0018348
    627.4579000              0.0139950
    142.9021000              0.0685870
     40.2343300              0.2322410
     12.8202100              0.4690700
      4.3904370              0.3604550
SP   3   1.00
     11.6263580             -0.1149610              0.0675800
      2.7162800             -0.1691180              0.3239070
      0.7722180              1.1458520              0.7408950
SP   1   1.00
      0.2120313              1.0000000              1.0000000
D    1   1.00
      1.8260000              1.0000000
D    1   1.00
      0.4565000              1.0000000
F    1   1.00
      1.0000000              1.0000000
****
O     0
S    6   1.00
   5484.6717000              0.0018311
    825.2349500              0.0139501
    188.0469600              0.0684451
     52.9645000              0.2327143
     16.8975700              0.4701930
      5.7996353              0.3585209
SP   3   1.00
     15.5396160             -0.1107775              0.0708743
      3.5999336             -0.1480263              0.3397528
      1.0137618              1.1307670              0.7271586
SP   1   1.00
      0.2700058              1.0000000              1.0000000
D    1   1.00
      2.5840000              1.0000000
D    1   1.00
      0.6460000              1.0000000
F    1   1.00
      1.4000000              1.0000000
****
F     0
S    6   1.00
   7001.7130900              0.0018196169
   1051.3660900              0.0139160796
    239.2856900              0.0684053245
     67.3974453              0.233185760
     21.5199573              0.471267439
      7.40310130             0.356618546
SP   3   1.00
     20.8479528             -0.108506975            0.0716287243
      4.80830834            -0.146451658            0.3459121030
      1.34406986             1.128688580            0.7224699570
SP   1   1.00
      0.358151393            1.0000000              1.0000000
D    1   1.00
      3.5000000              1.0000000
D    1   1.00
      0.8750000              1.0000000
F    1   1.00
      1.8500000              1.0000000
****
Al     0
S    6   1.00
  13983.1000000              0.00194267
   2098.7500000              0.0148599
    477.7050000              0.0728494
    134.3600000              0.2468300
     42.8709000              0.4872580
     14.5189000              0.3234960
SP   6   1.00
    239.6680000             -0.00292619             0.00460285
     57.4419000             -0.0374080              0.0331990
     18.2859000             -0.1144870              0.1362820
      6.5991400              0.1156350              0.3304760
      2.4904900              0.6125950              0.4491460
      0.9445400              0.3937990              0.2657040
SP   3   1.00
      1.2779000             -0.2276060             -0.0175130
      0.3975900              0.00144583             0.2445330
      0.1600950              1.0927900              0.8049340
SP   1   1.00
      0.0556577              1.0000000              1.0000000
D    1   1.00
      0.6500000              1.0000000
D    1   1.00
      0.1625000              1.0000000
F    1   1.00
      0.2500000              1.0000000
****
Si     0
S    6   1.00
  16115.9000000              0.00195948
   2425.5800000              0.01492880
    553.8670000              0.07284780
    156.3400000              0.24613000
     50.0683000              0.48591400
     17.0178000              0.32500200
SP   6   1.00
    292.7180000             -0.00278094             0.00443826
     69.8731000             -0.03571460             0.03266790
     22.3363000             -0.11498500             0.13472100
      8.1503900              0.09356340             0.32867800
      3.1345800              0.60301700             0.44964000
      1.2254300              0.41895900             0.26137200
SP   3   1.00
      1.7273800             -0.24463000            -0.01779510
      0.5729220              0.00431572             0.25353900
      0.2221920              1.09818000             0.80066900
SP   1   1.00
      0.0778369              1.00000000             1.00000000
D    1   1.00
      0.9000000              1.0000000
D    1   1.00
      0.2250000              1.0000000
F    1   1.00
      0.3200000              1.0000000
****
P     0
S    6   1.00
  19413.3000000              0.0018516
   2909.4200000              0.0142062
    661.3640000              0.0699995
    185.7590000              0.2400790
     59.1943000              0.4847620
     20.0310000              0.3352000
SP   6   1.00
    339.4780000             -0.00278217             0.00456462
     81.0101000             -0.0360499              0.03369360
     25.8780000             -0.1166310              0.13975500
      9.4522100              0.0968328              0.33936200
      3.6656600              0.6144180              0.45092100
      1.4674600              0.4037980              0.23858600
SP   3   1.00
      2.1562300             -0.2529230             -0.01776530
      0.7489970              0.0328517              0.27405800
      0.2831450              1.0812500              0.78542100
SP   1   1.00
      0.0998317              1.0000000              1.00000000
D    1   1.00
      1.1000000              1.0000000
D    1   1.00
      0.2750000              1.0000000
F    1   1.00
      0.4500000              1.0000000
****
S     0
S    6   1.00
  21917.1000000              0.0018690
   3301.4900000              0.0142300
    754.1460000              0.0696960
    212.7110000              0.2384870
     67.9896000              0.4833070
     23.0515000              0.3380740
SP   6   1.00
    423.7350000             -0.0023767              0.0040610
    100.7100000             -0.0316930              0.0306810
     32.1599000             -0.1133170              0.1304520
     11.8079000              0.0560900              0.3272050
      4.6311000              0.5922550              0.4528510
      1.8702500              0.4550060              0.2560420
SP   3   1.00
      2.6158400             -0.2503740             -0.0145110
      0.9221670              0.0669570              0.3102630
      0.3412870              1.0545100              0.7544830
SP   1   1.00
      0.1171670              1.0000000              1.0000000
D    1   1.00
      1.3000000              1.0000000
D    1   1.00
      0.3250000              1.0000000
F    1   1.00
      0.5500000              1.0000000
****
Cl     0
S    6   1.00
  25180.1000000              0.0018330
   3780.3500000              0.0140340
    860.4740000              0.0690970
    242.1450000              0.2374520
     77.3349000              0.4830340
     26.2470000              0.3398560
SP   6   1.00
    491.7650000             -0.0022974              0.0039894
    116.9840000             -0.0307140              0.0303180
     37.4153000             -0.1125280              0.1298800
     13.7834000              0.0450160              0.3279510
      5.4521500              0.5893530              0.4535270
      2.2258800              0.4652060              0.2521540
SP   3   1.00
      3.1864900             -0.2518300             -0.0142990
      1.1442700              0.0615890              0.3235720
      0.4203770              1.0601800              0.7435070
SP   1   1.00
      0.1426570              1.0000000              1.0000000
D    1   1.00
      1.5000000              1.0000000
D    1   1.00
      0.3750000              1.0000000
F    1   1.00
      0.7000000              1.0000000
****
}

set {
reference uhf
freeze_core true
e_convergence 10
d_convergence 10
dft_spherical_points 1202
dft_radial_points 99
}

e = energy('b3lyp')

print_out('Grab this energy {0}'.format(e))
--------------------------------------------------------------------------

    Molecular point group: cs

    Geometry (in Bohr), charge = 0, multiplicity = 2:

       Center              X                  Y                   Z               Mass
    ------------   -----------------  -----------------  -----------------  -----------------
         C           -0.323337934586    -0.005939039270     0.000000000000    12.000000000000
         C            0.060667399614    -1.400517239670    -2.424834275300    12.000000000000
         C            0.061964174014     2.804792113730     0.000000000000    12.000000000000
         C            0.060667399614    -1.400517239670     2.424834275300    12.000000000000
         H            2.085764061814    -1.639056350370    -2.849407217900     1.007825032230
         H           -0.769136046986    -0.386268586470    -4.021366269100     1.007825032230
         H           -0.763199470186    -3.292350943270    -2.347615124700     1.007825032230
         H            2.089130958014     3.289721029130     0.000000000000     1.007825032230
         H           -0.764284062886     3.685802172630     1.675868545300     1.007825032230
         H           -0.764284062886     3.685802172630    -1.675868545300     1.007825032230
         H            2.085764061814    -1.639056350370     2.849407217900     1.007825032230
         H           -0.763199470186    -3.292350943270     2.347615124700     1.007825032230
         H           -0.769136046986    -0.386268586470     4.021366269100     1.007825032230

  Charge       = 0
  Multiplicity = 2
  Basis Set: ANONYMOUSEFDC73EE
    Blend: 6-31G_2DFP_
  Basis Set: (ANONYMOUSEFDC73EE AUX)
    Blend: DEF2-UNIVERSAL-JKFIT

    Orbital Energies [Eh]
    ---------------------

    Alpha Occupied:

       1Ap   -10.180340     2Ap   -10.167265     1App  -10.166905
       3Ap   -10.166873     4Ap    -0.797775     2App   -0.686519
       5Ap    -0.685853     6Ap    -0.530775     7Ap    -0.441132
       8Ap    -0.434953     3App   -0.434389     4App   -0.382760
       9Ap    -0.382438     5App   -0.363610     6App   -0.338666
      10Ap    -0.337328    11Ap    -0.168959

    Alpha Virtual:

      12Ap     0.076072    13Ap     0.134106     7App    0.134205
      14Ap     0.142461     8App    0.142791    15Ap     0.154879
      16Ap     0.178773     9App    0.178782    17Ap     0.203539
      10App    0.214801    18Ap     0.275362    11App    0.276608
      19Ap     0.399081    12App    0.399360    20Ap     0.403360
      21Ap     0.424066    13App    0.424132    22Ap     0.456593
      14App    0.495388    23Ap     0.495390    15App    0.512160
      24Ap     0.513975    25Ap     0.578422    16App    0.579188
      26Ap     0.591428    17App    0.591879    27Ap     0.602583
      28Ap     0.624759    18App    0.631766    29Ap     0.636020
      19App    0.636500    30Ap     0.663276    20App    0.663551
      21App    0.683782    31Ap     0.683920    32Ap     0.734995
      33Ap     0.825268    22App    0.825543    23App    0.853917
      34Ap     0.915002    24App    0.915045    25App    0.944125
      35Ap     0.944619    36Ap     0.961085    26App    0.961503
      37Ap     1.003457    38Ap     1.127809    27App    1.128313
      39Ap     1.142275    40Ap     1.163029    28App    1.163554
      41Ap     1.223322    29App    1.274209    42Ap     1.274781
      43Ap     1.279343    44Ap     1.324148    30App    1.324572
      45Ap     1.355989    46Ap     1.365502    31App    1.366597
      32App    1.392455    47Ap     1.403666    33App    1.404392
      34App    1.417053    48Ap     1.417167    35App    1.427945
      36App    1.491485    49Ap     1.499087    50Ap     1.542694
      37App    1.542982    38App    1.574207    51Ap     1.574692
      52Ap     1.669826    53Ap     1.738955    39App    1.739885
      54Ap     1.768304    55Ap     1.830725    40App    1.832064
      41App    1.971724    56Ap     2.018197    42App    2.018497
      57Ap     2.019670    58Ap     2.051186    43App    2.054167
      59Ap     2.738187    44App    2.738774    60Ap     2.790933
      45App    2.811413    61Ap     2.888913    46App    2.890931
      62Ap     2.894991    63Ap     2.929280    47App    2.929714
      48App    2.958993    49App    2.963969    64Ap     2.964784
      65Ap     3.033987    66Ap     3.070509    50App    3.072080
      51App    3.084350    67Ap     3.168634    52App    3.168779
      68Ap     3.180775    69Ap     3.284970    53App    3.285650
      70Ap     3.327084    54App    3.327225    71Ap     3.375592
      72Ap     3.489419    55App    3.490893    56App    3.514015
      73Ap     3.525330    74Ap     3.567783    57App    3.568982
      58App    3.575124    59App    3.665866    75Ap     3.666856
      76Ap     3.679687    77Ap     3.693752    60App    3.694460
      61App    3.776209    78Ap     3.777235    79Ap     3.789326
      80Ap     3.911288    62App    3.913182    81Ap     4.034401
      82Ap     4.110006    63App    4.112711    83Ap     4.146598
      64App    4.149636    84Ap     4.173285    85Ap     4.201468
      86Ap     4.203426    65App    4.203845    66App    4.210954
      87Ap     4.314898    67App    4.317070    68App    4.358970
      69App    4.423968    88Ap     4.424883    70App    4.443471
      89Ap     4.515943    71App    4.517750    90Ap     4.577215
      72App    4.578821    91Ap     4.617981    92Ap     4.709487
      73App    4.774532    93Ap     4.774814    74App    4.836911
      94Ap     4.962768    95Ap     5.002695    75App    5.003321
      96Ap     5.228025    76App    5.246722    97Ap     5.246905
      98Ap     5.354008    77App    5.357024    78App    5.479363

    Beta Occupied:

       1Ap   -10.168018     1App  -10.167660     2Ap   -10.167645
       3Ap   -10.166517     4Ap    -0.781100     2App   -0.684298
       5Ap    -0.683679     6Ap    -0.511747     7Ap    -0.431335
       3App   -0.430755     8Ap    -0.421821     4App   -0.376792
       9Ap    -0.376576     5App   -0.362594     6App   -0.333800
      10Ap    -0.332441

    Beta Virtual:

      11Ap    -0.025742    12Ap     0.077081    13Ap     0.134975
       7App    0.135115    14Ap     0.144353     8App    0.144641
      15Ap     0.163339    16Ap     0.182425     9App    0.182473
      10App    0.215030    17Ap     0.218922    18Ap     0.281755
      11App    0.282910    19Ap     0.400269    12App    0.400521
      20Ap     0.419794    21Ap     0.426853    13App    0.426967
      22Ap     0.468501    23Ap     0.497641    14App    0.497658
      15App    0.513895    24Ap     0.556313    25Ap     0.583945
      16App    0.584775    26Ap     0.597616    17App    0.598043
      27Ap     0.610005    28Ap     0.628132    18App    0.631925
      29Ap     0.639277    19App    0.639819    30Ap     0.666846
      20App    0.667110    21App    0.686428    31Ap     0.686546
      32Ap     0.757517    33Ap     0.830468    22App    0.830680
      23App    0.855270    24App    0.922993    34Ap     0.922996
      25App    0.945962    35Ap     0.953548    36Ap     0.966354
      26App    0.966847    37Ap     1.008696    38Ap     1.131949
      27App    1.132264    39Ap     1.155617    40Ap     1.168047
      28App    1.168683    41Ap     1.232293    29App    1.279865
      42Ap     1.280316    43Ap     1.285102    44Ap     1.329162
      30App    1.329538    45Ap     1.365404    46Ap     1.370835
      31App    1.371755    32App    1.393512    47Ap     1.407051
      33App    1.407929    34App    1.422097    48Ap     1.422217
      35App    1.428227    36App    1.492534    49Ap     1.509530
      50Ap     1.547126    37App    1.547366    38App    1.582147
      51Ap     1.582497    52Ap     1.674673    53Ap     1.744698
      39App    1.745665    54Ap     1.779083    55Ap     1.834561
      40App    1.835940    41App    1.972583    42App    2.024952
      56Ap     2.025894    57Ap     2.039670    58Ap     2.057970
      43App    2.060841    59Ap     2.746468    44App    2.747166
      45App    2.811827    60Ap     2.816066    61Ap     2.901787
      46App    2.903471    62Ap     2.924627    63Ap     2.931740
      47App    2.932253    48App    2.960055    49App    2.968530
      64Ap     2.969310    65Ap     3.041922    66Ap     3.080536
      50App    3.081871    51App    3.086166    67Ap     3.183931
      52App    3.184695    68Ap     3.188746    69Ap     3.289806
      53App    3.290411    70Ap     3.330898    54App    3.331019
      71Ap     3.383414    72Ap     3.492119    55App    3.493648
      56App    3.512384    73Ap     3.528377    57App    3.574985
      74Ap     3.581113    58App    3.582335    59App    3.670820
      75Ap     3.671415    76Ap     3.692952    77Ap     3.725670
      60App    3.725809    61App    3.780769    78Ap     3.781829
      79Ap     3.817755    80Ap     3.921165    62App    3.922954
      81Ap     4.045288    82Ap     4.116874    63App    4.119477
      83Ap     4.153900    64App    4.156756    84Ap     4.187338
      85Ap     4.207824    65App    4.209747    86Ap     4.210984
      66App    4.215454    87Ap     4.322244    67App    4.324603
      68App    4.362332    69App    4.432171    88Ap     4.433085
      70App    4.446384    89Ap     4.523696    71App    4.525575
      90Ap     4.587761    72App    4.589431    91Ap     4.625218
      92Ap     4.719835    73App    4.781562    93Ap     4.781693
      74App    4.839829    94Ap     4.967557    95Ap     5.006706
      75App    5.007393    96Ap     5.233739    76App    5.248489
      97Ap     5.248707    98Ap     5.360444    77App    5.363552
      78App    5.481685

    Final Occupation by Irrep:
             Ap   App
    DOCC [    10,    6 ]
    SOCC [     1,    0 ]

  @DF-UKS Final Energy:  -157.81305517715259

   => Energetics <=

    Nuclear Repulsion Energy =            125.3948309698664048
    One-Electron Energy =                -458.7492806681254933
    Two-Electron Energy =                 195.8485465310849918
    DFT Exchange-Correlation Energy =     -20.3071520099784948
    Empirical Dispersion Energy =           0.0000000000000000
    VV10 Nonlocal Energy =                  0.0000000000000000
    Total Energy =                       -157.8130551771525916

  UHF NO Occupations:
  HONO-2 :    9 Ap 1.9996008
  HONO-1 :   10 Ap 1.9989804
  HONO-0 :   11 Ap 1.0000000
  LUNO+0 :   12 Ap 0.0010196
  LUNO+1 :   13 Ap 0.0003992
  LUNO+2 :   14 Ap 0.0001992
  LUNO+3 :    7App 0.0001959

Computation Completed

Properties will be evaluated at   0.000000,   0.000000,   0.000000 [a0]

Properties computed using the SCF density matrix

  Nuclear Dipole Moment: [e a0]
     X:     0.8272      Y:     0.0129      Z:    -0.0000

  Electronic Dipole Moment: [e a0]
     X:    -0.7493      Y:    -0.0141      Z:     0.0000

  Dipole Moment: [e a0]
     X:     0.0779      Y:    -0.0012      Z:    -0.0000     Total:     0.0779

  Dipole Moment: [D]
     X:     0.1980      Y:    -0.0030      Z:    -0.0000     Total:     0.1981

*** tstop() called on n031 at Fri Nov  5 13:50:15 2021
Module time:
	user time   =     633.11 seconds =      10.55 minutes
	system time =      11.99 seconds =       0.20 minutes
	total time  =        162 seconds =       2.70 minutes
Total time:
	user time   =     633.11 seconds =      10.55 minutes
	system time =      11.99 seconds =       0.20 minutes
	total time  =        162 seconds =       2.70 minutes
Grab this energy -157.8130551771526
    Psi4 stopped on: Friday, 05 November 2021 01:50PM
    Psi4 wall time for execution: 0:02:42.24

*** Psi4 exiting successfully. Buy a developer a beer!
