                               Psi4 1.4a2.dev629

  ==> Input File <==

--------------------------------------------------------------------------
import os
memory 14 GB

molecule {
 C   -0.3233391511   -0.0010233185    0.0000011328
 C    0.0615109696   -1.3993876877   -2.4270146897
 C    0.0602727449    2.8021534475    0.0000471717
 C    0.0615166991   -1.3994682408    2.4269641080
 H    2.0868942766   -1.6406115815   -2.8495063640
 H   -0.7696479142   -0.3903792849   -4.0246334660
 H   -0.7615293631   -3.2937647140   -2.3476641589
 H    2.0868759337    3.2880071398    0.0046511377
 H   -0.7694364917    3.6804030341    1.6746014276
 H   -0.7614258039    3.6799469746   -1.6785783434
 H    2.0868865198   -1.6486787698    2.8448522248
 H   -0.7695600816   -3.2905308896    2.3500480588
 H   -0.7616262150   -0.3866904226    4.0262317606
units bohr
0 2
}

basis {

assign 6-31g_2dfp_

[ 6-31g_2dfp_ ]

spherical

!----------------------------------------------------------------------
! Basis Set Exchange
! Version v0.8.13
! https://www.basissetexchange.org
!----------------------------------------------------------------------
!   Basis set: 6-31G(2df,p)
! Description: 6-31G(2df,p)
!        Role: orbital
!     Version: 0  (Data from the original Basis Set Exchange)
!----------------------------------------------------------------------

****
H     0
S    3   1.00
     18.7311370              0.03349460
      2.8253937              0.23472695
      0.6401217              0.81375733
S    1   1.00
      0.1612778              1.00000000
P    1   1.00
      1.5000000              1.0000000
P    1   1.00
      0.3750000              1.0000000
****
B     0
S    6   1.00
   2068.8823000              0.0018663
    310.6495700              0.0142515
     70.6830330              0.0695516
     19.8610800              0.2325729
      6.2993048              0.4670787
      2.1270270              0.3634314
SP   3   1.00
      4.7279710             -0.1303938              0.0745976
      1.1903377             -0.1307889              0.3078467
      0.3594117              1.1309444              0.7434568
SP   1   1.00
      0.1267512              1.0000000              1.0000000
D    1   1.00
      0.8020000              1.0000000
D    1   1.00
      0.2005000              1.0000000
F    1   1.00
      0.5000000              1.0000000
****
C     0
S    6   1.00
   3047.5249000              0.0018347
    457.3695100              0.0140373
    103.9486900              0.0688426
     29.2101550              0.2321844
      9.2866630              0.4679413
      3.1639270              0.3623120
SP   3   1.00
      7.8682724             -0.1193324              0.0689991
      1.8812885             -0.1608542              0.3164240
      0.5442493              1.1434564              0.7443083
SP   1   1.00
      0.1687144              1.0000000              1.0000000
D    1   1.00
      1.2520000              1.0000000
D    1   1.00
      0.3130000              1.0000000
F    1   1.00
      0.8000000              1.0000000
****
N     0
S    6   1.00
   4173.5110000              0.0018348
    627.4579000              0.0139950
    142.9021000              0.0685870
     40.2343300              0.2322410
     12.8202100              0.4690700
      4.3904370              0.3604550
SP   3   1.00
     11.6263580             -0.1149610              0.0675800
      2.7162800             -0.1691180              0.3239070
      0.7722180              1.1458520              0.7408950
SP   1   1.00
      0.2120313              1.0000000              1.0000000
D    1   1.00
      1.8260000              1.0000000
D    1   1.00
      0.4565000              1.0000000
F    1   1.00
      1.0000000              1.0000000
****
O     0
S    6   1.00
   5484.6717000              0.0018311
    825.2349500              0.0139501
    188.0469600              0.0684451
     52.9645000              0.2327143
     16.8975700              0.4701930
      5.7996353              0.3585209
SP   3   1.00
     15.5396160             -0.1107775              0.0708743
      3.5999336             -0.1480263              0.3397528
      1.0137618              1.1307670              0.7271586
SP   1   1.00
      0.2700058              1.0000000              1.0000000
D    1   1.00
      2.5840000              1.0000000
D    1   1.00
      0.6460000              1.0000000
F    1   1.00
      1.4000000              1.0000000
****
F     0
S    6   1.00
   7001.7130900              0.0018196169
   1051.3660900              0.0139160796
    239.2856900              0.0684053245
     67.3974453              0.233185760
     21.5199573              0.471267439
      7.40310130             0.356618546
SP   3   1.00
     20.8479528             -0.108506975            0.0716287243
      4.80830834            -0.146451658            0.3459121030
      1.34406986             1.128688580            0.7224699570
SP   1   1.00
      0.358151393            1.0000000              1.0000000
D    1   1.00
      3.5000000              1.0000000
D    1   1.00
      0.8750000              1.0000000
F    1   1.00
      1.8500000              1.0000000
****
Al     0
S    6   1.00
  13983.1000000              0.00194267
   2098.7500000              0.0148599
    477.7050000              0.0728494
    134.3600000              0.2468300
     42.8709000              0.4872580
     14.5189000              0.3234960
SP   6   1.00
    239.6680000             -0.00292619             0.00460285
     57.4419000             -0.0374080              0.0331990
     18.2859000             -0.1144870              0.1362820
      6.5991400              0.1156350              0.3304760
      2.4904900              0.6125950              0.4491460
      0.9445400              0.3937990              0.2657040
SP   3   1.00
      1.2779000             -0.2276060             -0.0175130
      0.3975900              0.00144583             0.2445330
      0.1600950              1.0927900              0.8049340
SP   1   1.00
      0.0556577              1.0000000              1.0000000
D    1   1.00
      0.6500000              1.0000000
D    1   1.00
      0.1625000              1.0000000
F    1   1.00
      0.2500000              1.0000000
****
Si     0
S    6   1.00
  16115.9000000              0.00195948
   2425.5800000              0.01492880
    553.8670000              0.07284780
    156.3400000              0.24613000
     50.0683000              0.48591400
     17.0178000              0.32500200
SP   6   1.00
    292.7180000             -0.00278094             0.00443826
     69.8731000             -0.03571460             0.03266790
     22.3363000             -0.11498500             0.13472100
      8.1503900              0.09356340             0.32867800
      3.1345800              0.60301700             0.44964000
      1.2254300              0.41895900             0.26137200
SP   3   1.00
      1.7273800             -0.24463000            -0.01779510
      0.5729220              0.00431572             0.25353900
      0.2221920              1.09818000             0.80066900
SP   1   1.00
      0.0778369              1.00000000             1.00000000
D    1   1.00
      0.9000000              1.0000000
D    1   1.00
      0.2250000              1.0000000
F    1   1.00
      0.3200000              1.0000000
****
P     0
S    6   1.00
  19413.3000000              0.0018516
   2909.4200000              0.0142062
    661.3640000              0.0699995
    185.7590000              0.2400790
     59.1943000              0.4847620
     20.0310000              0.3352000
SP   6   1.00
    339.4780000             -0.00278217             0.00456462
     81.0101000             -0.0360499              0.03369360
     25.8780000             -0.1166310              0.13975500
      9.4522100              0.0968328              0.33936200
      3.6656600              0.6144180              0.45092100
      1.4674600              0.4037980              0.23858600
SP   3   1.00
      2.1562300             -0.2529230             -0.01776530
      0.7489970              0.0328517              0.27405800
      0.2831450              1.0812500              0.78542100
SP   1   1.00
      0.0998317              1.0000000              1.00000000
D    1   1.00
      1.1000000              1.0000000
D    1   1.00
      0.2750000              1.0000000
F    1   1.00
      0.4500000              1.0000000
****
S     0
S    6   1.00
  21917.1000000              0.0018690
   3301.4900000              0.0142300
    754.1460000              0.0696960
    212.7110000              0.2384870
     67.9896000              0.4833070
     23.0515000              0.3380740
SP   6   1.00
    423.7350000             -0.0023767              0.0040610
    100.7100000             -0.0316930              0.0306810
     32.1599000             -0.1133170              0.1304520
     11.8079000              0.0560900              0.3272050
      4.6311000              0.5922550              0.4528510
      1.8702500              0.4550060              0.2560420
SP   3   1.00
      2.6158400             -0.2503740             -0.0145110
      0.9221670              0.0669570              0.3102630
      0.3412870              1.0545100              0.7544830
SP   1   1.00
      0.1171670              1.0000000              1.0000000
D    1   1.00
      1.3000000              1.0000000
D    1   1.00
      0.3250000              1.0000000
F    1   1.00
      0.5500000              1.0000000
****
Cl     0
S    6   1.00
  25180.1000000              0.0018330
   3780.3500000              0.0140340
    860.4740000              0.0690970
    242.1450000              0.2374520
     77.3349000              0.4830340
     26.2470000              0.3398560
SP   6   1.00
    491.7650000             -0.0022974              0.0039894
    116.9840000             -0.0307140              0.0303180
     37.4153000             -0.1125280              0.1298800
     13.7834000              0.0450160              0.3279510
      5.4521500              0.5893530              0.4535270
      2.2258800              0.4652060              0.2521540
SP   3   1.00
      3.1864900             -0.2518300             -0.0142990
      1.1442700              0.0615890              0.3235720
      0.4203770              1.0601800              0.7435070
SP   1   1.00
      0.1426570              1.0000000              1.0000000
D    1   1.00
      1.5000000              1.0000000
D    1   1.00
      0.3750000              1.0000000
F    1   1.00
      0.7000000              1.0000000
****
}

set {
reference uhf
freeze_core true
e_convergence 10
d_convergence 10
dft_spherical_points 1202
dft_radial_points 99
}

e = energy('b3lyp')

print_out('Grab this energy {0}'.format(e))
--------------------------------------------------------------------------

    Molecular point group: c1

    Geometry (in Bohr), charge = 0, multiplicity = 2:

       Center              X                  Y                   Z               Mass
    ------------   -----------------  -----------------  -----------------  -----------------
         C           -0.323339391344    -0.001460916538     0.000001571405    12.000000000000
         C            0.061510729356    -1.399825285738    -2.427014251095    12.000000000000
         C            0.060272504656     2.801715849462     0.000047610305    12.000000000000
         C            0.061516458856    -1.399905838838     2.426964546605    12.000000000000
         H            2.086894036356    -1.641049179538    -2.849505925395     1.007825032230
         H           -0.769648154444    -0.390816882938    -4.024633027395     1.007825032230
         H           -0.761529603344    -3.294202312038    -2.347663720295     1.007825032230
         H            2.086875693456     3.287569541762     0.004651576305     1.007825032230
         H           -0.769436731944     3.679965436062     1.674601866205     1.007825032230
         H           -0.761426044144     3.679509376562    -1.678577904795     1.007825032230
         H            2.086886279556    -1.649116367838     2.844852663405     1.007825032230
         H           -0.769560321844    -3.290968487638     2.350048497405     1.007825032230
         H           -0.761626455244    -0.387128020638     4.026232199205     1.007825032230

  Charge       = 0
  Multiplicity = 2
  Basis Set: ANONYMOUSD2B14A8A
    Blend: 6-31G_2DFP_
  Basis Set: (ANONYMOUSD2B14A8A AUX)
    Blend: DEF2-UNIVERSAL-JKFIT

    Orbital Energies [Eh]
    ---------------------

    Alpha Occupied:

       1A    -10.180342     2A    -10.167045     3A    -10.167026
       4A    -10.166973     5A     -0.797766     6A     -0.686266
       7A     -0.686107     8A     -0.530776     9A     -0.441125
      10A     -0.434678    11A     -0.434663    12A     -0.382638
      13A     -0.382561    14A     -0.363609    15A     -0.338293
      16A     -0.337706    17A     -0.168961

    Alpha Virtual:

      18A      0.076072    19A      0.134118    20A      0.134195
      21A      0.142565    22A      0.142693    23A      0.154879
      24A      0.178726    25A      0.178828    26A      0.203546
      27A      0.214802    28A      0.275861    29A      0.276111
      30A      0.399118    31A      0.399340    32A      0.403343
      33A      0.424093    34A      0.424103    35A      0.456593
      36A      0.495355    37A      0.495424    38A      0.512147
      39A      0.513993    40A      0.578771    41A      0.578864
      42A      0.591615    43A      0.591652    44A      0.602569
      45A      0.624759    46A      0.631772    47A      0.636249
      48A      0.636252    49A      0.663322    50A      0.663501
      51A      0.683842    52A      0.683863    53A      0.734994
      54A      0.825403    55A      0.825413    56A      0.853914
      57A      0.914916    58A      0.915132    59A      0.944012
      60A      0.944718    61A      0.961242    62A      0.961352
      63A      1.003464    64A      1.128101    65A      1.128123
      66A      1.142214    67A      1.163253    68A      1.163290
      69A      1.223324    70A      1.274303    71A      1.274668
      72A      1.279353    73A      1.324305    74A      1.324414
      75A      1.355977    76A      1.365810    77A      1.366293
      78A      1.392453    79A      1.403811    80A      1.404306
      81A      1.416852    82A      1.417376    83A      1.427914
      84A      1.491466    85A      1.499104    86A      1.542658
      87A      1.542998    88A      1.574132    89A      1.574761
      90A      1.669816    91A      1.739295    92A      1.739533
      93A      1.768335    94A      1.831325    95A      1.831470
      96A      1.971720    97A      2.018214    98A      2.018627
      99A      2.019551   100A      2.052033   101A      2.053241
     102A      2.738440   103A      2.738533   104A      2.790916
     105A      2.811428   106A      2.889282   107A      2.890626
     108A      2.894941   109A      2.929327   110A      2.929667
     111A      2.958991   112A      2.964097   113A      2.964660
     114A      3.034009   115A      3.071158   116A      3.071410
     117A      3.084350   118A      3.168666   119A      3.168875
     120A      3.180605   121A      3.285095   122A      3.285532
     123A      3.327119   124A      3.327200   125A      3.375623
     126A      3.490133   127A      3.490189   128A      3.514000
     129A      3.525335   130A      3.568278   131A      3.568501
     132A      3.575153   133A      3.666143   134A      3.666603
     135A      3.679686   136A      3.694116   137A      3.694130
     138A      3.776795   139A      3.776812   140A      3.789117
     141A      3.911862   142A      3.912576   143A      4.034463
     144A      4.111156   145A      4.111595   146A      4.147936
     147A      4.148319   148A      4.173248   149A      4.202589
     150A      4.203092   151A      4.203112   152A      4.210846
     153A      4.315165   154A      4.316760   155A      4.358968
     156A      4.423866   157A      4.425009   158A      4.443456
     159A      4.516655   160A      4.517020   161A      4.577990
     162A      4.578560   163A      4.617528   164A      4.709450
     165A      4.774437   166A      4.774739   167A      4.836909
     168A      4.962862   169A      5.002659   170A      5.003236
     171A      5.228034   172A      5.246585   173A      5.247048
     174A      5.355472   175A      5.355530   176A      5.479350

    Beta Occupied:

       1A    -10.167799     2A    -10.167785     3A    -10.167740
       4A    -10.166519     5A     -0.781091     6A     -0.684066
       7A     -0.683912     8A     -0.511747     9A     -0.431058
      10A     -0.431027    11A     -0.421821    12A     -0.376731
      13A     -0.376639    14A     -0.362593    15A     -0.333415
      16A     -0.332829

    Beta Virtual:

      17A     -0.025742    18A      0.077081    19A      0.134996
      20A      0.135097    21A      0.144453    22A      0.144545
      23A      0.163338    24A      0.182410    25A      0.182487
      26A      0.215031    27A      0.218930    28A      0.282223
      29A      0.282445    30A      0.400287    31A      0.400509
      32A      0.419789    33A      0.426903    34A      0.426917
      35A      0.468501    36A      0.497618    37A      0.497682
      38A      0.513895    39A      0.556326    40A      0.584321
      41A      0.584413    42A      0.597785    43A      0.597842
      44A      0.609992    45A      0.628135    46A      0.631930
      47A      0.639531    48A      0.639538    49A      0.666882
      50A      0.667069    51A      0.686475    52A      0.686500
      53A      0.757518    54A      0.830575    55A      0.830578
      56A      0.855268    57A      0.922887    58A      0.923104
      59A      0.945944    60A      0.953551    61A      0.966557
      62A      0.966648    63A      1.008704    64A      1.132139
      65A      1.132141    66A      1.155586    67A      1.168315
      68A      1.168381    69A      1.232296    70A      1.279872
      71A      1.280292    72A      1.285109    73A      1.329283
      74A      1.329414    75A      1.365388    76A      1.371028
      77A      1.371561    78A      1.393518    79A      1.407267
      80A      1.407778    81A      1.421924    82A      1.422402
      83A      1.428185    84A      1.492529    85A      1.509534
      86A      1.547052    87A      1.547419    88A      1.582010
      89A      1.582626    90A      1.674664    91A      1.745059
      92A      1.745292    93A      1.779113    94A      1.835182
      95A      1.835324    96A      1.972581    97A      2.025045
      98A      2.025846    99A      2.039679   100A      2.058725
     101A      2.059978   102A      2.746782   103A      2.746862
     104A      2.811793   105A      2.816099   106A      2.901983
     107A      2.903300   108A      2.924648   109A      2.931777
     110A      2.932181   111A      2.960055   112A      2.968651
     113A      2.969193   114A      3.041943   115A      3.081059
     116A      3.081329   117A      3.086166   118A      3.184398
     119A      3.184617   120A      3.188315   121A      3.289924
     122A      3.290300   123A      3.330911   124A      3.331018
     125A      3.383441   126A      3.492848   127A      3.492934
     128A      3.512369   129A      3.528376   130A      3.575002
     131A      3.581676   132A      3.581796   133A      3.670803
     134A      3.671448   135A      3.692971   136A      3.725572
     137A      3.725937   138A      3.781263   139A      3.781397
     140A      3.817662   141A      3.921658   142A      3.922414
     143A      4.045350   144A      4.117969   145A      4.118412
     146A      4.155180   147A      4.155491   148A      4.187310
     149A      4.208959   150A      4.209043   151A      4.210636
     152A      4.215319   153A      4.322573   154A      4.324234
     155A      4.362330   156A      4.432072   157A      4.433224
     158A      4.446348   159A      4.524460   160A      4.524796
     161A      4.588614   162A      4.589140   163A      4.624721
     164A      4.719795   165A      4.781409   166A      4.781673
     167A      4.839825   168A      4.967656   169A      5.006697
     170A      5.007276   171A      5.233749   172A      5.248379
     173A      5.248824   174A      5.361933   175A      5.362030
     176A      5.481671

    Final Occupation by Irrep:
              A
    DOCC [    16 ]
    SOCC [     1 ]

  @DF-UKS Final Energy:  -157.81307170790970

   => Energetics <=

    Nuclear Repulsion Energy =            125.3945909280881637
    One-Electron Energy =                -458.7488547847614200
    Two-Electron Energy =                 195.8483339423278267
    DFT Exchange-Correlation Energy =     -20.3071417935642806
    Empirical Dispersion Energy =           0.0000000000000000
    VV10 Nonlocal Energy =                  0.0000000000000000
    Total Energy =                       -157.8130717079096996

  UHF NO Occupations:
  HONO-2 :   15  A 1.9996009
  HONO-1 :   16  A 1.9989805
  HONO-0 :   17  A 1.0000000
  LUNO+0 :   18  A 0.0010195
  LUNO+1 :   19  A 0.0003991
  LUNO+2 :   20  A 0.0001980
  LUNO+3 :   21  A 0.0001971

Computation Completed

Properties will be evaluated at   0.000000,   0.000000,   0.000000 [a0]

Properties computed using the SCF density matrix

  Nuclear Dipole Moment: [e a0]
     X:     0.8272      Y:    -0.0031      Z:     0.0000

  Electronic Dipole Moment: [e a0]
     X:    -0.7493      Y:     0.0030      Z:    -0.0000

  Dipole Moment: [e a0]
     X:     0.0779      Y:    -0.0000      Z:     0.0000     Total:     0.0779

  Dipole Moment: [D]
     X:     0.1980      Y:    -0.0001      Z:     0.0000     Total:     0.1980

*** tstop() called on n070 at Fri Nov  5 11:57:00 2021
Module time:
	user time   =     673.45 seconds =      11.22 minutes
	system time =      16.20 seconds =       0.27 minutes
	total time  =        174 seconds =       2.90 minutes
Total time:
	user time   =     673.45 seconds =      11.22 minutes
	system time =      16.20 seconds =       0.27 minutes
	total time  =        174 seconds =       2.90 minutes
Grab this energy -157.8130717079097
    Psi4 stopped on: Friday, 05 November 2021 11:57AM
    Psi4 wall time for execution: 0:02:54.04

*** Psi4 exiting successfully. Buy a developer a beer!
