                               Psi4 1.4a2.dev629

  ==> Input File <==

--------------------------------------------------------------------------
import os
memory 14 GB

molecule {
 C   -0.3233415078    0.0019961668    0.0000019119
 C    0.0612147488   -1.3995316064   -2.4276447053
 C    0.0608650447    2.8009136707    0.0007989590
 C    0.0612168453   -1.4009142632    2.4268494699
 H    2.0868174045   -1.6408082473   -2.8519945456
 H   -0.7661716098   -0.3922286778   -4.0337890695
 H   -0.7652970265   -3.2873275522   -2.3408150122
 H    2.0870198847    3.2835167036    0.0015835779
 H   -0.7644622488    3.6849104599    1.6767386971
 H   -0.7658128767    3.6760456082   -1.6747203388
 H    2.0868231478   -1.6435463949    2.8504103081
 H   -0.7639602193   -3.2935274691    2.3474746267
 H   -0.7675194634   -0.3895227119    4.0251061209
units bohr
0 2
}

basis {

assign 6-31g_2dfp_

[ 6-31g_2dfp_ ]

spherical

!----------------------------------------------------------------------
! Basis Set Exchange
! Version v0.8.13
! https://www.basissetexchange.org
!----------------------------------------------------------------------
!   Basis set: 6-31G(2df,p)
! Description: 6-31G(2df,p)
!        Role: orbital
!     Version: 0  (Data from the original Basis Set Exchange)
!----------------------------------------------------------------------

****
H     0
S    3   1.00
     18.7311370              0.03349460
      2.8253937              0.23472695
      0.6401217              0.81375733
S    1   1.00
      0.1612778              1.00000000
P    1   1.00
      1.5000000              1.0000000
P    1   1.00
      0.3750000              1.0000000
****
B     0
S    6   1.00
   2068.8823000              0.0018663
    310.6495700              0.0142515
     70.6830330              0.0695516
     19.8610800              0.2325729
      6.2993048              0.4670787
      2.1270270              0.3634314
SP   3   1.00
      4.7279710             -0.1303938              0.0745976
      1.1903377             -0.1307889              0.3078467
      0.3594117              1.1309444              0.7434568
SP   1   1.00
      0.1267512              1.0000000              1.0000000
D    1   1.00
      0.8020000              1.0000000
D    1   1.00
      0.2005000              1.0000000
F    1   1.00
      0.5000000              1.0000000
****
C     0
S    6   1.00
   3047.5249000              0.0018347
    457.3695100              0.0140373
    103.9486900              0.0688426
     29.2101550              0.2321844
      9.2866630              0.4679413
      3.1639270              0.3623120
SP   3   1.00
      7.8682724             -0.1193324              0.0689991
      1.8812885             -0.1608542              0.3164240
      0.5442493              1.1434564              0.7443083
SP   1   1.00
      0.1687144              1.0000000              1.0000000
D    1   1.00
      1.2520000              1.0000000
D    1   1.00
      0.3130000              1.0000000
F    1   1.00
      0.8000000              1.0000000
****
N     0
S    6   1.00
   4173.5110000              0.0018348
    627.4579000              0.0139950
    142.9021000              0.0685870
     40.2343300              0.2322410
     12.8202100              0.4690700
      4.3904370              0.3604550
SP   3   1.00
     11.6263580             -0.1149610              0.0675800
      2.7162800             -0.1691180              0.3239070
      0.7722180              1.1458520              0.7408950
SP   1   1.00
      0.2120313              1.0000000              1.0000000
D    1   1.00
      1.8260000              1.0000000
D    1   1.00
      0.4565000              1.0000000
F    1   1.00
      1.0000000              1.0000000
****
O     0
S    6   1.00
   5484.6717000              0.0018311
    825.2349500              0.0139501
    188.0469600              0.0684451
     52.9645000              0.2327143
     16.8975700              0.4701930
      5.7996353              0.3585209
SP   3   1.00
     15.5396160             -0.1107775              0.0708743
      3.5999336             -0.1480263              0.3397528
      1.0137618              1.1307670              0.7271586
SP   1   1.00
      0.2700058              1.0000000              1.0000000
D    1   1.00
      2.5840000              1.0000000
D    1   1.00
      0.6460000              1.0000000
F    1   1.00
      1.4000000              1.0000000
****
F     0
S    6   1.00
   7001.7130900              0.0018196169
   1051.3660900              0.0139160796
    239.2856900              0.0684053245
     67.3974453              0.233185760
     21.5199573              0.471267439
      7.40310130             0.356618546
SP   3   1.00
     20.8479528             -0.108506975            0.0716287243
      4.80830834            -0.146451658            0.3459121030
      1.34406986             1.128688580            0.7224699570
SP   1   1.00
      0.358151393            1.0000000              1.0000000
D    1   1.00
      3.5000000              1.0000000
D    1   1.00
      0.8750000              1.0000000
F    1   1.00
      1.8500000              1.0000000
****
Al     0
S    6   1.00
  13983.1000000              0.00194267
   2098.7500000              0.0148599
    477.7050000              0.0728494
    134.3600000              0.2468300
     42.8709000              0.4872580
     14.5189000              0.3234960
SP   6   1.00
    239.6680000             -0.00292619             0.00460285
     57.4419000             -0.0374080              0.0331990
     18.2859000             -0.1144870              0.1362820
      6.5991400              0.1156350              0.3304760
      2.4904900              0.6125950              0.4491460
      0.9445400              0.3937990              0.2657040
SP   3   1.00
      1.2779000             -0.2276060             -0.0175130
      0.3975900              0.00144583             0.2445330
      0.1600950              1.0927900              0.8049340
SP   1   1.00
      0.0556577              1.0000000              1.0000000
D    1   1.00
      0.6500000              1.0000000
D    1   1.00
      0.1625000              1.0000000
F    1   1.00
      0.2500000              1.0000000
****
Si     0
S    6   1.00
  16115.9000000              0.00195948
   2425.5800000              0.01492880
    553.8670000              0.07284780
    156.3400000              0.24613000
     50.0683000              0.48591400
     17.0178000              0.32500200
SP   6   1.00
    292.7180000             -0.00278094             0.00443826
     69.8731000             -0.03571460             0.03266790
     22.3363000             -0.11498500             0.13472100
      8.1503900              0.09356340             0.32867800
      3.1345800              0.60301700             0.44964000
      1.2254300              0.41895900             0.26137200
SP   3   1.00
      1.7273800             -0.24463000            -0.01779510
      0.5729220              0.00431572             0.25353900
      0.2221920              1.09818000             0.80066900
SP   1   1.00
      0.0778369              1.00000000             1.00000000
D    1   1.00
      0.9000000              1.0000000
D    1   1.00
      0.2250000              1.0000000
F    1   1.00
      0.3200000              1.0000000
****
P     0
S    6   1.00
  19413.3000000              0.0018516
   2909.4200000              0.0142062
    661.3640000              0.0699995
    185.7590000              0.2400790
     59.1943000              0.4847620
     20.0310000              0.3352000
SP   6   1.00
    339.4780000             -0.00278217             0.00456462
     81.0101000             -0.0360499              0.03369360
     25.8780000             -0.1166310              0.13975500
      9.4522100              0.0968328              0.33936200
      3.6656600              0.6144180              0.45092100
      1.4674600              0.4037980              0.23858600
SP   3   1.00
      2.1562300             -0.2529230             -0.01776530
      0.7489970              0.0328517              0.27405800
      0.2831450              1.0812500              0.78542100
SP   1   1.00
      0.0998317              1.0000000              1.00000000
D    1   1.00
      1.1000000              1.0000000
D    1   1.00
      0.2750000              1.0000000
F    1   1.00
      0.4500000              1.0000000
****
S     0
S    6   1.00
  21917.1000000              0.0018690
   3301.4900000              0.0142300
    754.1460000              0.0696960
    212.7110000              0.2384870
     67.9896000              0.4833070
     23.0515000              0.3380740
SP   6   1.00
    423.7350000             -0.0023767              0.0040610
    100.7100000             -0.0316930              0.0306810
     32.1599000             -0.1133170              0.1304520
     11.8079000              0.0560900              0.3272050
      4.6311000              0.5922550              0.4528510
      1.8702500              0.4550060              0.2560420
SP   3   1.00
      2.6158400             -0.2503740             -0.0145110
      0.9221670              0.0669570              0.3102630
      0.3412870              1.0545100              0.7544830
SP   1   1.00
      0.1171670              1.0000000              1.0000000
D    1   1.00
      1.3000000              1.0000000
D    1   1.00
      0.3250000              1.0000000
F    1   1.00
      0.5500000              1.0000000
****
Cl     0
S    6   1.00
  25180.1000000              0.0018330
   3780.3500000              0.0140340
    860.4740000              0.0690970
    242.1450000              0.2374520
     77.3349000              0.4830340
     26.2470000              0.3398560
SP   6   1.00
    491.7650000             -0.0022974              0.0039894
    116.9840000             -0.0307140              0.0303180
     37.4153000             -0.1125280              0.1298800
     13.7834000              0.0450160              0.3279510
      5.4521500              0.5893530              0.4535270
      2.2258800              0.4652060              0.2521540
SP   3   1.00
      3.1864900             -0.2518300             -0.0142990
      1.1442700              0.0615890              0.3235720
      0.4203770              1.0601800              0.7435070
SP   1   1.00
      0.1426570              1.0000000              1.0000000
D    1   1.00
      1.5000000              1.0000000
D    1   1.00
      0.3750000              1.0000000
F    1   1.00
      0.7000000              1.0000000
****
}

set {
reference uhf
freeze_core true
e_convergence 10
d_convergence 10
dft_spherical_points 1202
dft_radial_points 99
}

e = energy('b3lyp')

print_out('Grab this energy {0}'.format(e))
--------------------------------------------------------------------------

    Molecular point group: c1

    Geometry (in Bohr), charge = 0, multiplicity = 2:

       Center              X                  Y                   Z               Mass
    ------------   -----------------  -----------------  -----------------  -----------------
         C           -0.323340567080     0.001522018197     0.000000826460    12.000000000000
         C            0.061215689520    -1.400005755003    -2.427645790740    12.000000000000
         C            0.060865985420     2.800439522097     0.000797873560    12.000000000000
         C            0.061217786020    -1.401388411803     2.426848384460    12.000000000000
         H            2.086818345220    -1.641282395903    -2.851995631040     1.007825032230
         H           -0.766170669080    -0.392702826403    -4.033790154940     1.007825032230
         H           -0.765296085780    -3.287801700803    -2.340816097640     1.007825032230
         H            2.087020825420     3.283042554997     0.001582492460     1.007825032230
         H           -0.764461308080     3.684436311297     1.676737611660     1.007825032230
         H           -0.765811935980     3.675571459597    -1.674721424240     1.007825032230
         H            2.086824088520    -1.644020543503     2.850409222660     1.007825032230
         H           -0.763959278580    -3.294001617703     2.347473541260     1.007825032230
         H           -0.767518522680    -0.389996860503     4.025105035460     1.007825032230

  Charge       = 0
  Multiplicity = 2
  Basis Set: ANONYMOUS7704F556
    Blend: 6-31G_2DFP_
  Basis Set: (ANONYMOUS7704F556 AUX)
    Blend: DEF2-UNIVERSAL-JKFIT

    Orbital Energies [Eh]
    ---------------------

    Alpha Occupied:

       1A    -10.180342     2A    -10.167121     3A    -10.167092
       4A    -10.166831     5A     -0.797767     6A     -0.686309
       7A     -0.686065     8A     -0.530775     9A     -0.441130
      10A     -0.434738    11A     -0.434603    12A     -0.382633
      13A     -0.382563    14A     -0.363611    15A     -0.338064
      16A     -0.337931    17A     -0.168961

    Alpha Virtual:

      18A      0.076073    19A      0.134123    20A      0.134185
      21A      0.142564    22A      0.142689    23A      0.154880
      24A      0.178740    25A      0.178818    26A      0.203530
      27A      0.214821    28A      0.275716    29A      0.276254
      30A      0.399196    31A      0.399255    32A      0.403351
      33A      0.424045    34A      0.424153    35A      0.456593
      36A      0.495331    37A      0.495449    38A      0.512159
      39A      0.513980    40A      0.578532    41A      0.579100
      42A      0.591340    43A      0.591925    44A      0.602575
      45A      0.624684    46A      0.631853    47A      0.636209
      48A      0.636294    49A      0.663378    50A      0.663444
      51A      0.683826    52A      0.683881    53A      0.734993
      54A      0.825192    55A      0.825621    56A      0.853916
      57A      0.914885    58A      0.915154    59A      0.944017
      60A      0.944702    61A      0.960614    62A      0.961978
      63A      1.003477    64A      1.127876    65A      1.128321
      66A      1.142217    67A      1.163163    68A      1.163392
      69A      1.223326    70A      1.274341    71A      1.274651
      72A      1.279345    73A      1.324354    74A      1.324357
      75A      1.355979    76A      1.365879    77A      1.366213
      78A      1.392464    79A      1.403722    80A      1.404339
      81A      1.416736    82A      1.417530    83A      1.427915
      84A      1.491494    85A      1.499082    86A      1.542555
      87A      1.543106    88A      1.574436    89A      1.574453
      90A      1.669838    91A      1.739056    92A      1.739794
      93A      1.768314    94A      1.830903    95A      1.831895
      96A      1.971729    97A      2.018030    98A      2.019100
      99A      2.019273   100A      2.051837   101A      2.053444
     102A      2.738202   103A      2.738764   104A      2.790926
     105A      2.811418   106A      2.889705   107A      2.890170
     108A      2.894989   109A      2.929481   110A      2.929516
     111A      2.958996   112A      2.964216   113A      2.964535
     114A      3.034014   115A      3.071160   116A      3.071408
     117A      3.084345   118A      3.168587   119A      3.168984
     120A      3.180584   121A      3.285258   122A      3.285347
     123A      3.326850   124A      3.327497   125A      3.375617
     126A      3.489963   127A      3.490315   128A      3.513938
     129A      3.525397   130A      3.567980   131A      3.568724
     132A      3.575240   133A      3.666181   134A      3.666552
     135A      3.679629   136A      3.693691   137A      3.694568
     138A      3.775575   139A      3.778069   140A      3.789151
     141A      3.911982   142A      3.912513   143A      4.034456
     144A      4.110095   145A      4.112623   146A      4.147252
     147A      4.148963   148A      4.173271   149A      4.202621
     150A      4.203009   151A      4.203145   152A      4.210871
     153A      4.315137   154A      4.316739   155A      4.359011
     156A      4.424204   157A      4.424712   158A      4.443456
     159A      4.516421   160A      4.517246   161A      4.577929
     162A      4.578584   163A      4.617538   164A      4.709432
     165A      4.773555   166A      4.775627   167A      4.836966
     168A      4.962885   169A      5.002590   170A      5.003322
     171A      5.228036   172A      5.246359   173A      5.247278
     174A      5.354787   175A      5.356217   176A      5.479356

    Beta Occupied:

       1A    -10.167874     2A    -10.167857     3A    -10.167593
       4A    -10.166520     5A     -0.781092     6A     -0.684104
       7A     -0.683875     8A     -0.511747     9A     -0.431108
      10A     -0.430983    11A     -0.421820    12A     -0.376714
      13A     -0.376653    14A     -0.362594    15A     -0.333183
      16A     -0.333058

    Beta Virtual:

      17A     -0.025743    18A      0.077082    19A      0.135021
      20A      0.135066    21A      0.144434    22A      0.144562
      23A      0.163339    24A      0.182429    25A      0.182471
      26A      0.214985    27A      0.218978    28A      0.282073
      29A      0.282592    30A      0.400365    31A      0.400431
      32A      0.419789    33A      0.426857    34A      0.426965
      35A      0.468500    36A      0.497595    37A      0.497707
      38A      0.513895    39A      0.556324    40A      0.584080
      41A      0.584651    42A      0.597534    43A      0.598091
      44A      0.609996    45A      0.628005    46A      0.632065
      47A      0.639476    48A      0.639600    49A      0.666940
      50A      0.667009    51A      0.686440    52A      0.686537
      53A      0.757515    54A      0.830338    55A      0.830811
      56A      0.855269    57A      0.922889    58A      0.923091
      59A      0.945936    60A      0.953546    61A      0.965980
      62A      0.967230    63A      1.008717    64A      1.131829
      65A      1.132422    66A      1.155596    67A      1.168313
      68A      1.168391    69A      1.232298    70A      1.279938
      71A      1.280245    72A      1.285098    73A      1.329330
      74A      1.329360    75A      1.365394    76A      1.371150
      77A      1.371426    78A      1.393526    79A      1.407163
      80A      1.407835    81A      1.421787    82A      1.422573
      83A      1.428185    84A      1.492544    85A      1.509525
      86A      1.546960    87A      1.547517    88A      1.582311
      89A      1.582322    90A      1.674685    91A      1.744809
      92A      1.745564    93A      1.779094    94A      1.834761
      95A      1.835749    96A      1.972590    97A      2.025374
      98A      2.025516    99A      2.039692   100A      2.058523
     101A      2.060186   102A      2.746555   103A      2.747083
     104A      2.811822   105A      2.816068   106A      2.902450
     107A      2.902837   108A      2.924658   109A      2.931975
     110A      2.931982   111A      2.960062   112A      2.968779
     113A      2.969063   114A      3.041948   115A      3.081078
     116A      3.081310   117A      3.086162   118A      3.184307
     119A      3.184773   120A      3.188258   121A      3.290030
     122A      3.290169   123A      3.330673   124A      3.331286
     125A      3.383434   126A      3.492708   127A      3.493029
     128A      3.512330   129A      3.528426   130A      3.574911
     131A      3.581460   132A      3.582093   133A      3.671082
     134A      3.671180   135A      3.692921   136A      3.725632
     137A      3.725866   138A      3.780148   139A      3.782551
     140A      3.817697   141A      3.921817   142A      3.922311
     143A      4.045343   144A      4.117022   145A      4.119329
     146A      4.154434   147A      4.156202   148A      4.187321
     149A      4.208928   150A      4.209077   151A      4.210606
     152A      4.215354   153A      4.322548   154A      4.324202
     155A      4.362380   156A      4.432468   157A      4.432878
     158A      4.446341   159A      4.524221   160A      4.525025
     161A      4.588533   162A      4.589180   163A      4.624732
     164A      4.719774   165A      4.780552   166A      4.782536
     167A      4.839888   168A      4.967678   169A      5.006620
     170A      5.007371   171A      5.233751   172A      5.248136
     173A      5.249071   174A      5.361246   175A      5.362719
     176A      5.481677

    Final Occupation by Irrep:
              A
    DOCC [    16 ]
    SOCC [     1 ]

  @DF-UKS Final Energy:  -157.81306337536282

   => Energetics <=

    Nuclear Repulsion Energy =            125.3946332970017750
    One-Electron Energy =                -458.7489143008017436
    Two-Electron Energy =                 195.8483610222471327
    DFT Exchange-Correlation Energy =     -20.3071433938099410
    Empirical Dispersion Energy =           0.0000000000000000
    VV10 Nonlocal Energy =                  0.0000000000000000
    Total Energy =                       -157.8130633753628160

  UHF NO Occupations:
  HONO-2 :   15  A 1.9996009
  HONO-1 :   16  A 1.9989804
  HONO-0 :   17  A 1.0000000
  LUNO+0 :   18  A 0.0010196
  LUNO+1 :   19  A 0.0003991
  LUNO+2 :   20  A 0.0001979
  LUNO+3 :   21  A 0.0001972

Computation Completed

Properties will be evaluated at   0.000000,   0.000000,   0.000000 [a0]

Properties computed using the SCF density matrix

  Nuclear Dipole Moment: [e a0]
     X:     0.8272      Y:    -0.0034      Z:    -0.0000

  Electronic Dipole Moment: [e a0]
     X:    -0.7493      Y:     0.0034      Z:     0.0000

  Dipole Moment: [e a0]
     X:     0.0779      Y:     0.0000      Z:     0.0000     Total:     0.0779

  Dipole Moment: [D]
     X:     0.1980      Y:     0.0001      Z:     0.0000     Total:     0.1980

*** tstop() called on n089 at Fri Nov  5 15:26:11 2021
Module time:
	user time   =     506.47 seconds =       8.44 minutes
	system time =       4.58 seconds =       0.08 minutes
	total time  =        129 seconds =       2.15 minutes
Total time:
	user time   =     506.47 seconds =       8.44 minutes
	system time =       4.58 seconds =       0.08 minutes
	total time  =        129 seconds =       2.15 minutes
Grab this energy -157.81306337536282
    Psi4 stopped on: Friday, 05 November 2021 03:26PM
    Psi4 wall time for execution: 0:02:08.48

*** Psi4 exiting successfully. Buy a developer a beer!
