                               Psi4 1.4a2.dev629

  ==> Input File <==

--------------------------------------------------------------------------
import os
memory 14 GB

molecule {
 C   -0.3233413382   -0.0004957133   -0.0000002900
 C    0.0611877423   -1.4018132037   -2.4263358561
 C    0.0609224655    2.8009023362   -0.0007981755
 C    0.0611873044   -1.4004308379    2.4271331659
 H    2.0848460285   -1.6455709092   -2.8468792640
 H   -0.7649103126   -0.3884723883   -4.0204164260
 H   -0.7638876998   -3.2927463580   -2.3528782271
 H    2.0909797235    3.2876065409   -0.0015846983
 H   -0.7684955406    3.6763322614    1.6795302466
 H   -0.7671452350    3.6852173372   -1.6815465853
 H    2.0848452127   -1.6428319046    2.8484597939
 H   -0.7652292754   -3.2865663361    2.3462169703
 H   -0.7635669521   -0.3911551381    4.0290993455
units bohr
0 2
}

basis {

assign 6-31g_2dfp_

[ 6-31g_2dfp_ ]

spherical

!----------------------------------------------------------------------
! Basis Set Exchange
! Version v0.8.13
! https://www.basissetexchange.org
!----------------------------------------------------------------------
!   Basis set: 6-31G(2df,p)
! Description: 6-31G(2df,p)
!        Role: orbital
!     Version: 0  (Data from the original Basis Set Exchange)
!----------------------------------------------------------------------

****
H     0
S    3   1.00
     18.7311370              0.03349460
      2.8253937              0.23472695
      0.6401217              0.81375733
S    1   1.00
      0.1612778              1.00000000
P    1   1.00
      1.5000000              1.0000000
P    1   1.00
      0.3750000              1.0000000
****
B     0
S    6   1.00
   2068.8823000              0.0018663
    310.6495700              0.0142515
     70.6830330              0.0695516
     19.8610800              0.2325729
      6.2993048              0.4670787
      2.1270270              0.3634314
SP   3   1.00
      4.7279710             -0.1303938              0.0745976
      1.1903377             -0.1307889              0.3078467
      0.3594117              1.1309444              0.7434568
SP   1   1.00
      0.1267512              1.0000000              1.0000000
D    1   1.00
      0.8020000              1.0000000
D    1   1.00
      0.2005000              1.0000000
F    1   1.00
      0.5000000              1.0000000
****
C     0
S    6   1.00
   3047.5249000              0.0018347
    457.3695100              0.0140373
    103.9486900              0.0688426
     29.2101550              0.2321844
      9.2866630              0.4679413
      3.1639270              0.3623120
SP   3   1.00
      7.8682724             -0.1193324              0.0689991
      1.8812885             -0.1608542              0.3164240
      0.5442493              1.1434564              0.7443083
SP   1   1.00
      0.1687144              1.0000000              1.0000000
D    1   1.00
      1.2520000              1.0000000
D    1   1.00
      0.3130000              1.0000000
F    1   1.00
      0.8000000              1.0000000
****
N     0
S    6   1.00
   4173.5110000              0.0018348
    627.4579000              0.0139950
    142.9021000              0.0685870
     40.2343300              0.2322410
     12.8202100              0.4690700
      4.3904370              0.3604550
SP   3   1.00
     11.6263580             -0.1149610              0.0675800
      2.7162800             -0.1691180              0.3239070
      0.7722180              1.1458520              0.7408950
SP   1   1.00
      0.2120313              1.0000000              1.0000000
D    1   1.00
      1.8260000              1.0000000
D    1   1.00
      0.4565000              1.0000000
F    1   1.00
      1.0000000              1.0000000
****
O     0
S    6   1.00
   5484.6717000              0.0018311
    825.2349500              0.0139501
    188.0469600              0.0684451
     52.9645000              0.2327143
     16.8975700              0.4701930
      5.7996353              0.3585209
SP   3   1.00
     15.5396160             -0.1107775              0.0708743
      3.5999336             -0.1480263              0.3397528
      1.0137618              1.1307670              0.7271586
SP   1   1.00
      0.2700058              1.0000000              1.0000000
D    1   1.00
      2.5840000              1.0000000
D    1   1.00
      0.6460000              1.0000000
F    1   1.00
      1.4000000              1.0000000
****
F     0
S    6   1.00
   7001.7130900              0.0018196169
   1051.3660900              0.0139160796
    239.2856900              0.0684053245
     67.3974453              0.233185760
     21.5199573              0.471267439
      7.40310130             0.356618546
SP   3   1.00
     20.8479528             -0.108506975            0.0716287243
      4.80830834            -0.146451658            0.3459121030
      1.34406986             1.128688580            0.7224699570
SP   1   1.00
      0.358151393            1.0000000              1.0000000
D    1   1.00
      3.5000000              1.0000000
D    1   1.00
      0.8750000              1.0000000
F    1   1.00
      1.8500000              1.0000000
****
Al     0
S    6   1.00
  13983.1000000              0.00194267
   2098.7500000              0.0148599
    477.7050000              0.0728494
    134.3600000              0.2468300
     42.8709000              0.4872580
     14.5189000              0.3234960
SP   6   1.00
    239.6680000             -0.00292619             0.00460285
     57.4419000             -0.0374080              0.0331990
     18.2859000             -0.1144870              0.1362820
      6.5991400              0.1156350              0.3304760
      2.4904900              0.6125950              0.4491460
      0.9445400              0.3937990              0.2657040
SP   3   1.00
      1.2779000             -0.2276060             -0.0175130
      0.3975900              0.00144583             0.2445330
      0.1600950              1.0927900              0.8049340
SP   1   1.00
      0.0556577              1.0000000              1.0000000
D    1   1.00
      0.6500000              1.0000000
D    1   1.00
      0.1625000              1.0000000
F    1   1.00
      0.2500000              1.0000000
****
Si     0
S    6   1.00
  16115.9000000              0.00195948
   2425.5800000              0.01492880
    553.8670000              0.07284780
    156.3400000              0.24613000
     50.0683000              0.48591400
     17.0178000              0.32500200
SP   6   1.00
    292.7180000             -0.00278094             0.00443826
     69.8731000             -0.03571460             0.03266790
     22.3363000             -0.11498500             0.13472100
      8.1503900              0.09356340             0.32867800
      3.1345800              0.60301700             0.44964000
      1.2254300              0.41895900             0.26137200
SP   3   1.00
      1.7273800             -0.24463000            -0.01779510
      0.5729220              0.00431572             0.25353900
      0.2221920              1.09818000             0.80066900
SP   1   1.00
      0.0778369              1.00000000             1.00000000
D    1   1.00
      0.9000000              1.0000000
D    1   1.00
      0.2250000              1.0000000
F    1   1.00
      0.3200000              1.0000000
****
P     0
S    6   1.00
  19413.3000000              0.0018516
   2909.4200000              0.0142062
    661.3640000              0.0699995
    185.7590000              0.2400790
     59.1943000              0.4847620
     20.0310000              0.3352000
SP   6   1.00
    339.4780000             -0.00278217             0.00456462
     81.0101000             -0.0360499              0.03369360
     25.8780000             -0.1166310              0.13975500
      9.4522100              0.0968328              0.33936200
      3.6656600              0.6144180              0.45092100
      1.4674600              0.4037980              0.23858600
SP   3   1.00
      2.1562300             -0.2529230             -0.01776530
      0.7489970              0.0328517              0.27405800
      0.2831450              1.0812500              0.78542100
SP   1   1.00
      0.0998317              1.0000000              1.00000000
D    1   1.00
      1.1000000              1.0000000
D    1   1.00
      0.2750000              1.0000000
F    1   1.00
      0.4500000              1.0000000
****
S     0
S    6   1.00
  21917.1000000              0.0018690
   3301.4900000              0.0142300
    754.1460000              0.0696960
    212.7110000              0.2384870
     67.9896000              0.4833070
     23.0515000              0.3380740
SP   6   1.00
    423.7350000             -0.0023767              0.0040610
    100.7100000             -0.0316930              0.0306810
     32.1599000             -0.1133170              0.1304520
     11.8079000              0.0560900              0.3272050
      4.6311000              0.5922550              0.4528510
      1.8702500              0.4550060              0.2560420
SP   3   1.00
      2.6158400             -0.2503740             -0.0145110
      0.9221670              0.0669570              0.3102630
      0.3412870              1.0545100              0.7544830
SP   1   1.00
      0.1171670              1.0000000              1.0000000
D    1   1.00
      1.3000000              1.0000000
D    1   1.00
      0.3250000              1.0000000
F    1   1.00
      0.5500000              1.0000000
****
Cl     0
S    6   1.00
  25180.1000000              0.0018330
   3780.3500000              0.0140340
    860.4740000              0.0690970
    242.1450000              0.2374520
     77.3349000              0.4830340
     26.2470000              0.3398560
SP   6   1.00
    491.7650000             -0.0022974              0.0039894
    116.9840000             -0.0307140              0.0303180
     37.4153000             -0.1125280              0.1298800
     13.7834000              0.0450160              0.3279510
      5.4521500              0.5893530              0.4535270
      2.2258800              0.4652060              0.2521540
SP   3   1.00
      3.1864900             -0.2518300             -0.0142990
      1.1442700              0.0615890              0.3235720
      0.4203770              1.0601800              0.7435070
SP   1   1.00
      0.1426570              1.0000000              1.0000000
D    1   1.00
      1.5000000              1.0000000
D    1   1.00
      0.3750000              1.0000000
F    1   1.00
      0.7000000              1.0000000
****
}

set {
reference uhf
freeze_core true
e_convergence 10
d_convergence 10
dft_spherical_points 1202
dft_radial_points 99
}

e = energy('b3lyp')

print_out('Grab this energy {0}'.format(e))
--------------------------------------------------------------------------

    Molecular point group: c1

    Geometry (in Bohr), charge = 0, multiplicity = 2:

       Center              X                  Y                   Z               Mass
    ------------   -----------------  -----------------  -----------------  -----------------
         C           -0.323340598364    -0.000141383864    -0.000000067402    12.000000000000
         C            0.061188482136    -1.401458874264    -2.426335633502    12.000000000000
         C            0.060923205336     2.801256665636    -0.000797952902    12.000000000000
         C            0.061188044236    -1.400076508464     2.427133388498    12.000000000000
         H            2.084846768336    -1.645216579764    -2.846879041402     1.007825032230
         H           -0.764909572764    -0.388118058864    -4.020416203402     1.007825032230
         H           -0.763886959964    -3.292392028564    -2.352878004502     1.007825032230
         H            2.090980463336     3.287960870336    -0.001584475702     1.007825032230
         H           -0.768494800764     3.676686590836     1.679530469198     1.007825032230
         H           -0.767144495164     3.685571666636    -1.681546362702     1.007825032230
         H            2.084845952536    -1.642477575164     2.848460016498     1.007825032230
         H           -0.765228535564    -3.286212006664     2.346217192898     1.007825032230
         H           -0.763566212264    -0.390800808664     4.029099568098     1.007825032230

  Charge       = 0
  Multiplicity = 2
  Basis Set: ANONYMOUS79905909
    Blend: 6-31G_2DFP_
  Basis Set: (ANONYMOUS79905909 AUX)
    Blend: DEF2-UNIVERSAL-JKFIT

    Orbital Energies [Eh]
    ---------------------

    Alpha Occupied:

       1A    -10.180343     2A    -10.167685     3A    -10.166695
       4A    -10.166664     5A     -0.797767     6A     -0.686509
       7A     -0.685867     8A     -0.530775     9A     -0.441126
      10A     -0.434759    11A     -0.434587    12A     -0.382820
      13A     -0.382375    14A     -0.363611    15A     -0.338030
      16A     -0.337965    17A     -0.168961

    Alpha Virtual:

      18A      0.076071    19A      0.134138    20A      0.134154
      21A      0.142531    22A      0.142738    23A      0.154875
      24A      0.178460    25A      0.179102    26A      0.203529
      27A      0.214822    28A      0.275939    29A      0.276031
      30A      0.399146    31A      0.399311    32A      0.403343
      33A      0.424002    34A      0.424193    35A      0.456592
      36A      0.495320    37A      0.495460    38A      0.512161
      39A      0.513979    40A      0.578685    41A      0.578944
      42A      0.591316    43A      0.591934    44A      0.602590
      45A      0.624691    46A      0.631764    47A      0.635954
      48A      0.636632    49A      0.663232    50A      0.663595
      51A      0.683550    52A      0.684171    53A      0.734993
      54A      0.824999    55A      0.825806    56A      0.853917
      57A      0.915012    58A      0.915040    59A      0.944023
      60A      0.944702    61A      0.961041    62A      0.961552
      63A      1.003469    64A      1.127769    65A      1.128442
      66A      1.142217    67A      1.163187    68A      1.163350
      69A      1.223324    70A      1.274314    71A      1.274678
      72A      1.279348    73A      1.323991    74A      1.324711
      75A      1.355964    76A      1.365791    77A      1.366305
      78A      1.392465    79A      1.403634    80A      1.404412
      81A      1.416818    82A      1.417436    83A      1.427920
      84A      1.491492    85A      1.499089    86A      1.542777
      87A      1.542890    88A      1.574168    89A      1.574731
      90A      1.669806    91A      1.739344    92A      1.739472
      93A      1.768329    94A      1.829858    95A      1.833005
      96A      1.971700    97A      2.018078    98A      2.018955
      99A      2.019352   100A      2.052600   101A      2.052733
     102A      2.738038   103A      2.738933   104A      2.790921
     105A      2.811431   106A      2.889633   107A      2.890233
     108A      2.894976   109A      2.929393   110A      2.929599
     111A      2.959008   112A      2.963849   113A      2.964919
     114A      3.034025   115A      3.071078   116A      3.071485
     117A      3.084375   118A      3.168660   119A      3.168904
     120A      3.180593   121A      3.285239   122A      3.285373
     123A      3.327133   124A      3.327224   125A      3.375608
     126A      3.489312   127A      3.490992   128A      3.513931
     129A      3.525432   130A      3.568356   131A      3.568371
     132A      3.575197   133A      3.665568   134A      3.667126
     135A      3.679643   136A      3.693699   137A      3.694559
     138A      3.776233   139A      3.777431   140A      3.789118
     141A      3.911781   142A      3.912683   143A      4.034444
     144A      4.110564   145A      4.112047   146A      4.146021
     147A      4.150141   148A      4.173301   149A      4.200546
     150A      4.203572   151A      4.204591   152A      4.211169
     153A      4.315270   154A      4.316639   155A      4.358931
     156A      4.424131   157A      4.424689   158A      4.443557
     159A      4.516583   160A      4.517070   161A      4.577855
     162A      4.578724   163A      4.617545   164A      4.709462
     165A      4.774484   166A      4.774703   167A      4.836887
     168A      4.962892   169A      5.002421   170A      5.003528
     171A      5.227836   172A      5.243076   173A      5.250531
     174A      5.352669   175A      5.358535   176A      5.479433

    Beta Occupied:

       1A    -10.168447     2A    -10.167445     3A    -10.167433
       4A    -10.166518     5A     -0.781093     6A     -0.684311
       7A     -0.683670     8A     -0.511746     9A     -0.431141
      10A     -0.430947    11A     -0.421824    12A     -0.376915
      13A     -0.376451    14A     -0.362594    15A     -0.333146
      16A     -0.333096

    Beta Virtual:

      17A     -0.025743    18A      0.077080    19A      0.134977
      20A      0.135096    21A      0.144449    22A      0.144561
      23A      0.163334    24A      0.182140    25A      0.182764
      26A      0.214986    27A      0.218977    28A      0.282284
      29A      0.282381    30A      0.400313    31A      0.400483
      32A      0.419790    33A      0.426810    34A      0.427008
      35A      0.468499    36A      0.497581    37A      0.497721
      38A      0.513897    39A      0.556324    40A      0.584227
      41A      0.584500    42A      0.597522    43A      0.598091
      44A      0.610008    45A      0.628011    46A      0.632020
      47A      0.639220    48A      0.639896    49A      0.666782
      50A      0.667172    51A      0.686220    52A      0.686772
      53A      0.757516    54A      0.830141    55A      0.831001
      56A      0.855271    57A      0.922985    58A      0.923009
      59A      0.945942    60A      0.953549    61A      0.966375
      62A      0.966830    63A      1.008708    64A      1.131782
      65A      1.132484    66A      1.155593    67A      1.168248
      68A      1.168440    69A      1.232297    70A      1.279908
      71A      1.280276    72A      1.285100    73A      1.328934
      74A      1.329748    75A      1.365370    76A      1.371054
      77A      1.371535    78A      1.393526    79A      1.407086
      80A      1.407900    81A      1.421820    82A      1.422528
      83A      1.428189    84A      1.492542    85A      1.509530
      86A      1.547139    87A      1.547342    88A      1.582047
      89A      1.582596    90A      1.674651    91A      1.745121
      92A      1.745222    93A      1.779106    94A      1.833743
      95A      1.836831    96A      1.972566    97A      2.025419
      98A      2.025459    99A      2.039676   100A      2.059253
     101A      2.059513   102A      2.746359   103A      2.747283
     104A      2.811834   105A      2.816066   106A      2.902432
     107A      2.902835   108A      2.924651   109A      2.931924
     110A      2.932030   111A      2.960076   112A      2.968356
     113A      2.969502   114A      3.041959   115A      3.080932
     116A      3.081413   117A      3.086231   118A      3.184375
     119A      3.184672   120A      3.188293   121A      3.290010
     122A      3.290196   123A      3.330958   124A      3.331010
     125A      3.383425   126A      3.492074   127A      3.493691
     128A      3.512319   129A      3.528454   130A      3.574958
     131A      3.581722   132A      3.581776   133A      3.670273
     134A      3.671927   135A      3.692964   136A      3.725296
     137A      3.726193   138A      3.780792   139A      3.781928
     140A      3.817664   141A      3.921611   142A      3.922487
     143A      4.045325   144A      4.117599   145A      4.118620
     146A      4.153458   147A      4.157155   148A      4.187352
     149A      4.207191   150A      4.209557   151A      4.211792
     152A      4.215662   153A      4.322832   154A      4.323952
     155A      4.362298   156A      4.432355   157A      4.432850
     158A      4.446486   159A      4.524435   160A      4.524800
     161A      4.588501   162A      4.589279   163A      4.624735
     164A      4.719804   165A      4.781405   166A      4.781688
     167A      4.839807   168A      4.967687   169A      5.006477
     170A      5.007550   171A      5.233548   172A      5.244863
     173A      5.252322   174A      5.359160   175A      5.365000
     176A      5.481753

    Final Occupation by Irrep:
              A
    DOCC [    16 ]
    SOCC [     1 ]

  @DF-UKS Final Energy:  -157.81305236084901

   => Energetics <=

    Nuclear Repulsion Energy =            125.3946615920100811
    One-Electron Energy =                -458.7489401972442238
    Two-Electron Energy =                 195.8483738061970314
    DFT Exchange-Correlation Energy =     -20.3071475618119202
    Empirical Dispersion Energy =           0.0000000000000000
    VV10 Nonlocal Energy =                  0.0000000000000000
    Total Energy =                       -157.8130523608490137

  UHF NO Occupations:
  HONO-2 :   15  A 1.9996009
  HONO-1 :   16  A 1.9989804
  HONO-0 :   17  A 1.0000000
  LUNO+0 :   18  A 0.0010196
  LUNO+1 :   19  A 0.0003991
  LUNO+2 :   20  A 0.0001976
  LUNO+3 :   21  A 0.0001975

Computation Completed

Properties will be evaluated at   0.000000,   0.000000,   0.000000 [a0]

Properties computed using the SCF density matrix

  Nuclear Dipole Moment: [e a0]
     X:     0.8272      Y:     0.0025      Z:     0.0000

  Electronic Dipole Moment: [e a0]
     X:    -0.7493      Y:    -0.0049      Z:     0.0000

  Dipole Moment: [e a0]
     X:     0.0779      Y:    -0.0025      Z:     0.0000     Total:     0.0780

  Dipole Moment: [D]
     X:     0.1980      Y:    -0.0062      Z:     0.0000     Total:     0.1981

*** tstop() called on n082 at Fri Nov  5 15:10:23 2021
Module time:
	user time   =     496.80 seconds =       8.28 minutes
	system time =       4.38 seconds =       0.07 minutes
	total time  =        126 seconds =       2.10 minutes
Total time:
	user time   =     496.80 seconds =       8.28 minutes
	system time =       4.38 seconds =       0.07 minutes
	total time  =        126 seconds =       2.10 minutes
Grab this energy -157.813052360849
    Psi4 stopped on: Friday, 05 November 2021 03:10PM
    Psi4 wall time for execution: 0:02:06.03

*** Psi4 exiting successfully. Buy a developer a beer!
