                               Psi4 1.4a2.dev629

  ==> Input File <==

--------------------------------------------------------------------------
import os
memory 14 GB

molecule {
 C   -0.3233402821   -0.0000014214    0.0002230690
 C    0.0612842582   -1.4021090804   -2.4279376677
 C    0.0610211585    2.8017601643    0.0004347237
 C    0.0609950973   -1.3996454824    2.4248239830
 H    2.0869995600   -1.6477559622   -2.8446488989
 H   -0.7614714545   -0.3859402923   -4.0258687353
 H   -0.7697212177   -3.2901710703   -2.3496503428
 H    2.0867929135    3.2881041018   -0.0048375195
 H   -0.7616986043    3.6800369111    1.6783950651
 H   -0.7695909105    3.6804721209   -1.6745969261
 H    2.0868622145   -1.6404429547    2.8502367688
 H   -0.7614098118   -3.2938176499    2.3483354011
 H   -0.7693307979   -0.3905136980    4.0250910795
units bohr
0 2
}

basis {

assign 6-31g_2dfp_

[ 6-31g_2dfp_ ]

spherical

!----------------------------------------------------------------------
! Basis Set Exchange
! Version v0.8.13
! https://www.basissetexchange.org
!----------------------------------------------------------------------
!   Basis set: 6-31G(2df,p)
! Description: 6-31G(2df,p)
!        Role: orbital
!     Version: 0  (Data from the original Basis Set Exchange)
!----------------------------------------------------------------------

****
H     0
S    3   1.00
     18.7311370              0.03349460
      2.8253937              0.23472695
      0.6401217              0.81375733
S    1   1.00
      0.1612778              1.00000000
P    1   1.00
      1.5000000              1.0000000
P    1   1.00
      0.3750000              1.0000000
****
B     0
S    6   1.00
   2068.8823000              0.0018663
    310.6495700              0.0142515
     70.6830330              0.0695516
     19.8610800              0.2325729
      6.2993048              0.4670787
      2.1270270              0.3634314
SP   3   1.00
      4.7279710             -0.1303938              0.0745976
      1.1903377             -0.1307889              0.3078467
      0.3594117              1.1309444              0.7434568
SP   1   1.00
      0.1267512              1.0000000              1.0000000
D    1   1.00
      0.8020000              1.0000000
D    1   1.00
      0.2005000              1.0000000
F    1   1.00
      0.5000000              1.0000000
****
C     0
S    6   1.00
   3047.5249000              0.0018347
    457.3695100              0.0140373
    103.9486900              0.0688426
     29.2101550              0.2321844
      9.2866630              0.4679413
      3.1639270              0.3623120
SP   3   1.00
      7.8682724             -0.1193324              0.0689991
      1.8812885             -0.1608542              0.3164240
      0.5442493              1.1434564              0.7443083
SP   1   1.00
      0.1687144              1.0000000              1.0000000
D    1   1.00
      1.2520000              1.0000000
D    1   1.00
      0.3130000              1.0000000
F    1   1.00
      0.8000000              1.0000000
****
N     0
S    6   1.00
   4173.5110000              0.0018348
    627.4579000              0.0139950
    142.9021000              0.0685870
     40.2343300              0.2322410
     12.8202100              0.4690700
      4.3904370              0.3604550
SP   3   1.00
     11.6263580             -0.1149610              0.0675800
      2.7162800             -0.1691180              0.3239070
      0.7722180              1.1458520              0.7408950
SP   1   1.00
      0.2120313              1.0000000              1.0000000
D    1   1.00
      1.8260000              1.0000000
D    1   1.00
      0.4565000              1.0000000
F    1   1.00
      1.0000000              1.0000000
****
O     0
S    6   1.00
   5484.6717000              0.0018311
    825.2349500              0.0139501
    188.0469600              0.0684451
     52.9645000              0.2327143
     16.8975700              0.4701930
      5.7996353              0.3585209
SP   3   1.00
     15.5396160             -0.1107775              0.0708743
      3.5999336             -0.1480263              0.3397528
      1.0137618              1.1307670              0.7271586
SP   1   1.00
      0.2700058              1.0000000              1.0000000
D    1   1.00
      2.5840000              1.0000000
D    1   1.00
      0.6460000              1.0000000
F    1   1.00
      1.4000000              1.0000000
****
F     0
S    6   1.00
   7001.7130900              0.0018196169
   1051.3660900              0.0139160796
    239.2856900              0.0684053245
     67.3974453              0.233185760
     21.5199573              0.471267439
      7.40310130             0.356618546
SP   3   1.00
     20.8479528             -0.108506975            0.0716287243
      4.80830834            -0.146451658            0.3459121030
      1.34406986             1.128688580            0.7224699570
SP   1   1.00
      0.358151393            1.0000000              1.0000000
D    1   1.00
      3.5000000              1.0000000
D    1   1.00
      0.8750000              1.0000000
F    1   1.00
      1.8500000              1.0000000
****
Al     0
S    6   1.00
  13983.1000000              0.00194267
   2098.7500000              0.0148599
    477.7050000              0.0728494
    134.3600000              0.2468300
     42.8709000              0.4872580
     14.5189000              0.3234960
SP   6   1.00
    239.6680000             -0.00292619             0.00460285
     57.4419000             -0.0374080              0.0331990
     18.2859000             -0.1144870              0.1362820
      6.5991400              0.1156350              0.3304760
      2.4904900              0.6125950              0.4491460
      0.9445400              0.3937990              0.2657040
SP   3   1.00
      1.2779000             -0.2276060             -0.0175130
      0.3975900              0.00144583             0.2445330
      0.1600950              1.0927900              0.8049340
SP   1   1.00
      0.0556577              1.0000000              1.0000000
D    1   1.00
      0.6500000              1.0000000
D    1   1.00
      0.1625000              1.0000000
F    1   1.00
      0.2500000              1.0000000
****
Si     0
S    6   1.00
  16115.9000000              0.00195948
   2425.5800000              0.01492880
    553.8670000              0.07284780
    156.3400000              0.24613000
     50.0683000              0.48591400
     17.0178000              0.32500200
SP   6   1.00
    292.7180000             -0.00278094             0.00443826
     69.8731000             -0.03571460             0.03266790
     22.3363000             -0.11498500             0.13472100
      8.1503900              0.09356340             0.32867800
      3.1345800              0.60301700             0.44964000
      1.2254300              0.41895900             0.26137200
SP   3   1.00
      1.7273800             -0.24463000            -0.01779510
      0.5729220              0.00431572             0.25353900
      0.2221920              1.09818000             0.80066900
SP   1   1.00
      0.0778369              1.00000000             1.00000000
D    1   1.00
      0.9000000              1.0000000
D    1   1.00
      0.2250000              1.0000000
F    1   1.00
      0.3200000              1.0000000
****
P     0
S    6   1.00
  19413.3000000              0.0018516
   2909.4200000              0.0142062
    661.3640000              0.0699995
    185.7590000              0.2400790
     59.1943000              0.4847620
     20.0310000              0.3352000
SP   6   1.00
    339.4780000             -0.00278217             0.00456462
     81.0101000             -0.0360499              0.03369360
     25.8780000             -0.1166310              0.13975500
      9.4522100              0.0968328              0.33936200
      3.6656600              0.6144180              0.45092100
      1.4674600              0.4037980              0.23858600
SP   3   1.00
      2.1562300             -0.2529230             -0.01776530
      0.7489970              0.0328517              0.27405800
      0.2831450              1.0812500              0.78542100
SP   1   1.00
      0.0998317              1.0000000              1.00000000
D    1   1.00
      1.1000000              1.0000000
D    1   1.00
      0.2750000              1.0000000
F    1   1.00
      0.4500000              1.0000000
****
S     0
S    6   1.00
  21917.1000000              0.0018690
   3301.4900000              0.0142300
    754.1460000              0.0696960
    212.7110000              0.2384870
     67.9896000              0.4833070
     23.0515000              0.3380740
SP   6   1.00
    423.7350000             -0.0023767              0.0040610
    100.7100000             -0.0316930              0.0306810
     32.1599000             -0.1133170              0.1304520
     11.8079000              0.0560900              0.3272050
      4.6311000              0.5922550              0.4528510
      1.8702500              0.4550060              0.2560420
SP   3   1.00
      2.6158400             -0.2503740             -0.0145110
      0.9221670              0.0669570              0.3102630
      0.3412870              1.0545100              0.7544830
SP   1   1.00
      0.1171670              1.0000000              1.0000000
D    1   1.00
      1.3000000              1.0000000
D    1   1.00
      0.3250000              1.0000000
F    1   1.00
      0.5500000              1.0000000
****
Cl     0
S    6   1.00
  25180.1000000              0.0018330
   3780.3500000              0.0140340
    860.4740000              0.0690970
    242.1450000              0.2374520
     77.3349000              0.4830340
     26.2470000              0.3398560
SP   6   1.00
    491.7650000             -0.0022974              0.0039894
    116.9840000             -0.0307140              0.0303180
     37.4153000             -0.1125280              0.1298800
     13.7834000              0.0450160              0.3279510
      5.4521500              0.5893530              0.4535270
      2.2258800              0.4652060              0.2521540
SP   3   1.00
      3.1864900             -0.2518300             -0.0142990
      1.1442700              0.0615890              0.3235720
      0.4203770              1.0601800              0.7435070
SP   1   1.00
      0.1426570              1.0000000              1.0000000
D    1   1.00
      1.5000000              1.0000000
D    1   1.00
      0.3750000              1.0000000
F    1   1.00
      0.7000000              1.0000000
****
}

set {
reference uhf
freeze_core true
e_convergence 10
d_convergence 10
dft_spherical_points 1202
dft_radial_points 99
}

e = energy('b3lyp')

print_out('Grab this energy {0}'.format(e))
--------------------------------------------------------------------------

    Molecular point group: c1

    Geometry (in Bohr), charge = 0, multiplicity = 2:

       Center              X                  Y                   Z               Mass
    ------------   -----------------  -----------------  -----------------  -----------------
         C           -0.323340323845    -0.000001797157     0.000696091490    12.000000000000
         C            0.061284216455    -1.402109456157    -2.427464645210    12.000000000000
         C            0.061021116755     2.801759788543     0.000907746190    12.000000000000
         C            0.060995055555    -1.399645858157     2.425297005490    12.000000000000
         H            2.086999518255    -1.647756337957    -2.844175876410     1.007825032230
         H           -0.761471496245    -0.385940668057    -4.025395712810     1.007825032230
         H           -0.769721259445    -3.290171446057    -2.349177320310     1.007825032230
         H            2.086792871755     3.288103726043    -0.004364497010     1.007825032230
         H           -0.761698646045     3.680036535343     1.678868087590     1.007825032230
         H           -0.769590952245     3.680471745143    -1.674123903610     1.007825032230
         H            2.086862172755    -1.640443330457     2.850709791290     1.007825032230
         H           -0.761409853545    -3.293818025657     2.348808423590     1.007825032230
         H           -0.769330839645    -0.390514073757     4.025564101990     1.007825032230

  Charge       = 0
  Multiplicity = 2
  Basis Set: ANONYMOUS94FB0C67
    Blend: 6-31G_2DFP_
  Basis Set: (ANONYMOUS94FB0C67 AUX)
    Blend: DEF2-UNIVERSAL-JKFIT

    Orbital Energies [Eh]
    ---------------------

    Alpha Occupied:

       1A    -10.180342     2A    -10.167058     3A    -10.167019
       4A    -10.166968     5A     -0.797766     6A     -0.686210
       7A     -0.686163     8A     -0.530776     9A     -0.441123
      10A     -0.434753    11A     -0.434589    12A     -0.382689
      13A     -0.382509    14A     -0.363612    15A     -0.338206
      16A     -0.337791    17A     -0.168961

    Alpha Virtual:

      18A      0.076073    19A      0.134138    20A      0.134173
      21A      0.142565    22A      0.142693    23A      0.154880
      24A      0.178695    25A      0.178859    26A      0.203545
      27A      0.214802    28A      0.275761    29A      0.276211
      30A      0.399218    31A      0.399238    32A      0.403346
      33A      0.424053    34A      0.424142    35A      0.456593
      36A      0.495367    37A      0.495411    38A      0.512147
      39A      0.513994    40A      0.578778    41A      0.578852
      42A      0.591574    43A      0.591696    44A      0.602571
      45A      0.624761    46A      0.631774    47A      0.636082
      48A      0.636413    49A      0.663350    50A      0.663473
      51A      0.683831    52A      0.683872    53A      0.734994
      54A      0.825354    55A      0.825463    56A      0.853914
      57A      0.915009    58A      0.915039    59A      0.944012
      60A      0.944718    61A      0.961263    62A      0.961331
      63A      1.003463    64A      1.128033    65A      1.128183
      66A      1.142230    67A      1.162982    68A      1.163556
      69A      1.223324    70A      1.274177    71A      1.274781
      72A      1.279370    73A      1.324294    74A      1.324424
      75A      1.355976    76A      1.365902    77A      1.366206
      78A      1.392465    79A      1.403872    80A      1.404225
      81A      1.416957    82A      1.417265    83A      1.427919
      84A      1.491464    85A      1.499103    86A      1.542756
      87A      1.542898    88A      1.574249    89A      1.574636
      90A      1.669822    91A      1.739284    92A      1.739558
      93A      1.768315    94A      1.830892    95A      1.831903
      96A      1.971726    97A      2.018208    98A      2.018579
      99A      2.019601   100A      2.051961   101A      2.053322
     102A      2.738365   103A      2.738607   104A      2.790916
     105A      2.811427   106A      2.889875   107A      2.890028
     108A      2.894950   109A      2.929434   110A      2.929557
     111A      2.958992   112A      2.964296   113A      2.964455
     114A      3.034008   115A      3.071147   116A      3.071418
     117A      3.084351   118A      3.168582   119A      3.168960
     120A      3.180605   121A      3.285304   122A      3.285325
     123A      3.326972   124A      3.327346   125A      3.375617
     126A      3.489829   127A      3.490489   128A      3.513999
     129A      3.525337   130A      3.568311   131A      3.568478
     132A      3.575149   133A      3.665692   134A      3.667057
     135A      3.679667   136A      3.694005   137A      3.694247
     138A      3.776616   139A      3.776982   140A      3.789121
     141A      3.911475   142A      3.912973   143A      4.034456
     144A      4.111217   145A      4.111530   146A      4.147827
     147A      4.148423   148A      4.173247   149A      4.202332
     150A      4.202898   151A      4.203573   152A      4.210860
     153A      4.315231   154A      4.316675   155A      4.358978
     156A      4.423480   157A      4.425344   158A      4.443525
     159A      4.516185   160A      4.517494   161A      4.578249
     162A      4.578293   163A      4.617538   164A      4.709443
     165A      4.774255   166A      4.774887   167A      4.836919
     168A      4.962829   169A      5.002259   170A      5.003684
     171A      5.228041   172A      5.246610   173A      5.247008
     174A      5.355436   175A      5.355564   176A      5.479345

    Beta Occupied:

       1A    -10.167816     2A    -10.167776     3A    -10.167732
       4A    -10.166519     5A     -0.781091     6A     -0.684018
       7A     -0.683960     8A     -0.511747     9A     -0.431125
      10A     -0.430958    11A     -0.421821    12A     -0.376794
      13A     -0.376574    14A     -0.362596    15A     -0.333330
      16A     -0.332913

    Beta Virtual:

      17A     -0.025742    18A      0.077082    19A      0.135042
      20A      0.135048    21A      0.144452    22A      0.144547
      23A      0.163339    24A      0.182379    25A      0.182519
      26A      0.215030    27A      0.218928    28A      0.282118
      29A      0.282550    30A      0.400390    31A      0.400405
      32A      0.419792    33A      0.426864    34A      0.426954
      35A      0.468501    36A      0.497622    37A      0.497679
      38A      0.513895    39A      0.556326    40A      0.584323
      41A      0.584408    42A      0.597754    43A      0.597875
      44A      0.609995    45A      0.628135    46A      0.631932
      47A      0.639372    48A      0.639694    49A      0.666909
      50A      0.667042    51A      0.686478    52A      0.686495
      53A      0.757517    54A      0.830517    55A      0.830636
      56A      0.855268    57A      0.922978    58A      0.923013
      59A      0.945944    60A      0.953551    61A      0.966573
      62A      0.966633    63A      1.008703    64A      1.132068
      65A      1.132208    66A      1.155601    67A      1.168038
      68A      1.168649    69A      1.232297    70A      1.279771
      71A      1.280382    72A      1.285123    73A      1.329297
      74A      1.329399    75A      1.365386    76A      1.371173
      77A      1.371421    78A      1.393530    79A      1.407388
      80A      1.407640    81A      1.422022    82A      1.422294
      83A      1.428194    84A      1.492526    85A      1.509532
      86A      1.547155    87A      1.547313    88A      1.582116
      89A      1.582514    90A      1.674669    91A      1.745042
      92A      1.745323    93A      1.779096    94A      1.834757
      95A      1.835749    96A      1.972586    97A      2.024905
      98A      2.025993    99A      2.039663   100A      2.058678
     101A      2.060040   102A      2.746723   103A      2.746921
     104A      2.811792   105A      2.816099   106A      2.902588
     107A      2.902697   108A      2.924650   109A      2.931931
     110A      2.932023   111A      2.960055   112A      2.968825
     113A      2.969013   114A      3.041943   115A      3.081062
     116A      3.081321   117A      3.086172   118A      3.184295
     119A      3.184702   120A      3.188332   121A      3.290096
     122A      3.290130   123A      3.330785   124A      3.331143
     125A      3.383436   126A      3.492537   127A      3.493241
     128A      3.512369   129A      3.528377   130A      3.575006
     131A      3.581634   132A      3.581837   133A      3.670411
     134A      3.671836   135A      3.692960   136A      3.725627
     137A      3.725889   138A      3.781098   139A      3.781549
     140A      3.817667   141A      3.921342   142A      3.922739
     143A      4.045343   144A      4.117930   145A      4.118446
     146A      4.155133   147A      4.155536   148A      4.187306
     149A      4.208561   150A      4.209350   151A      4.210732
     152A      4.215336   153A      4.322643   154A      4.324143
     155A      4.362341   156A      4.431714   157A      4.433513
     158A      4.446437   159A      4.523980   160A      4.525278
     161A      4.588835   162A      4.588911   163A      4.624731
     164A      4.719788   165A      4.781227   166A      4.781820
     167A      4.839837   168A      4.967624   169A      5.006313
     170A      5.007708   171A      5.233757   172A      5.248402
     173A      5.248785   174A      5.361896   175A      5.362066
     176A      5.481667

    Final Occupation by Irrep:
              A
    DOCC [    16 ]
    SOCC [     1 ]

  @DF-UKS Final Energy:  -157.81307188077966

   => Energetics <=

    Nuclear Repulsion Energy =            125.3945800099004941
    One-Electron Energy =                -458.7488324487063664
    Two-Electron Energy =                 195.8483224334499937
    DFT Exchange-Correlation Energy =     -20.3071418754237669
    Empirical Dispersion Energy =           0.0000000000000000
    VV10 Nonlocal Energy =                  0.0000000000000000
    Total Energy =                       -157.8130718807796598

  UHF NO Occupations:
  HONO-2 :   15  A 1.9996009
  HONO-1 :   16  A 1.9989805
  HONO-0 :   17  A 1.0000000
  LUNO+0 :   18  A 0.0010195
  LUNO+1 :   19  A 0.0003991
  LUNO+2 :   20  A 0.0001979
  LUNO+3 :   21  A 0.0001972

Computation Completed

Properties will be evaluated at   0.000000,   0.000000,   0.000000 [a0]

Properties computed using the SCF density matrix

  Nuclear Dipole Moment: [e a0]
     X:     0.8272      Y:    -0.0000      Z:     0.0033

  Electronic Dipole Moment: [e a0]
     X:    -0.7493      Y:     0.0000      Z:    -0.0034

  Dipole Moment: [e a0]
     X:     0.0779      Y:     0.0000      Z:    -0.0001     Total:     0.0779

  Dipole Moment: [D]
     X:     0.1980      Y:     0.0000      Z:    -0.0002     Total:     0.1980

*** tstop() called on n062 at Fri Nov  5 13:15:59 2021
Module time:
	user time   =     513.25 seconds =       8.55 minutes
	system time =      11.49 seconds =       0.19 minutes
	total time  =        132 seconds =       2.20 minutes
Total time:
	user time   =     513.25 seconds =       8.55 minutes
	system time =      11.49 seconds =       0.19 minutes
	total time  =        132 seconds =       2.20 minutes
Grab this energy -157.81307188077966
    Psi4 stopped on: Friday, 05 November 2021 01:15PM
    Psi4 wall time for execution: 0:02:12.20

*** Psi4 exiting successfully. Buy a developer a beer!
