                               Psi4 1.4a2.dev629

  ==> Input File <==

--------------------------------------------------------------------------
import os
memory 14 GB

molecule {
 C   -0.3233404047   -0.0002586200    0.0002574896
 C    0.0618904822   -1.3999673135   -2.4269015514
 C    0.0630714302    2.8017504976   -0.0007669376
 C    0.0583409781   -1.4006390639    2.4265307211
 H    2.0868636997   -1.6443755417   -2.8472810220
 H   -0.7658264062   -0.3885109829   -4.0253764897
 H   -0.7656173130   -3.2920965943   -2.3488537854
 H    2.0865977431    3.2881077018    0.0002333985
 H   -0.7661530078    3.6801923111    1.6764566803
 H   -0.7664254720    3.6802806627   -1.6761220933
 H    2.0872155517   -1.6441679539    2.8473885345
 H   -0.7646443282   -3.2922962143    2.3488145493
 H   -0.7645808297   -0.3880432021    4.0256205061
units bohr
0 2
}

basis {

assign 6-31g_2dfp_

[ 6-31g_2dfp_ ]

spherical

!----------------------------------------------------------------------
! Basis Set Exchange
! Version v0.8.13
! https://www.basissetexchange.org
!----------------------------------------------------------------------
!   Basis set: 6-31G(2df,p)
! Description: 6-31G(2df,p)
!        Role: orbital
!     Version: 0  (Data from the original Basis Set Exchange)
!----------------------------------------------------------------------

****
H     0
S    3   1.00
     18.7311370              0.03349460
      2.8253937              0.23472695
      0.6401217              0.81375733
S    1   1.00
      0.1612778              1.00000000
P    1   1.00
      1.5000000              1.0000000
P    1   1.00
      0.3750000              1.0000000
****
B     0
S    6   1.00
   2068.8823000              0.0018663
    310.6495700              0.0142515
     70.6830330              0.0695516
     19.8610800              0.2325729
      6.2993048              0.4670787
      2.1270270              0.3634314
SP   3   1.00
      4.7279710             -0.1303938              0.0745976
      1.1903377             -0.1307889              0.3078467
      0.3594117              1.1309444              0.7434568
SP   1   1.00
      0.1267512              1.0000000              1.0000000
D    1   1.00
      0.8020000              1.0000000
D    1   1.00
      0.2005000              1.0000000
F    1   1.00
      0.5000000              1.0000000
****
C     0
S    6   1.00
   3047.5249000              0.0018347
    457.3695100              0.0140373
    103.9486900              0.0688426
     29.2101550              0.2321844
      9.2866630              0.4679413
      3.1639270              0.3623120
SP   3   1.00
      7.8682724             -0.1193324              0.0689991
      1.8812885             -0.1608542              0.3164240
      0.5442493              1.1434564              0.7443083
SP   1   1.00
      0.1687144              1.0000000              1.0000000
D    1   1.00
      1.2520000              1.0000000
D    1   1.00
      0.3130000              1.0000000
F    1   1.00
      0.8000000              1.0000000
****
N     0
S    6   1.00
   4173.5110000              0.0018348
    627.4579000              0.0139950
    142.9021000              0.0685870
     40.2343300              0.2322410
     12.8202100              0.4690700
      4.3904370              0.3604550
SP   3   1.00
     11.6263580             -0.1149610              0.0675800
      2.7162800             -0.1691180              0.3239070
      0.7722180              1.1458520              0.7408950
SP   1   1.00
      0.2120313              1.0000000              1.0000000
D    1   1.00
      1.8260000              1.0000000
D    1   1.00
      0.4565000              1.0000000
F    1   1.00
      1.0000000              1.0000000
****
O     0
S    6   1.00
   5484.6717000              0.0018311
    825.2349500              0.0139501
    188.0469600              0.0684451
     52.9645000              0.2327143
     16.8975700              0.4701930
      5.7996353              0.3585209
SP   3   1.00
     15.5396160             -0.1107775              0.0708743
      3.5999336             -0.1480263              0.3397528
      1.0137618              1.1307670              0.7271586
SP   1   1.00
      0.2700058              1.0000000              1.0000000
D    1   1.00
      2.5840000              1.0000000
D    1   1.00
      0.6460000              1.0000000
F    1   1.00
      1.4000000              1.0000000
****
F     0
S    6   1.00
   7001.7130900              0.0018196169
   1051.3660900              0.0139160796
    239.2856900              0.0684053245
     67.3974453              0.233185760
     21.5199573              0.471267439
      7.40310130             0.356618546
SP   3   1.00
     20.8479528             -0.108506975            0.0716287243
      4.80830834            -0.146451658            0.3459121030
      1.34406986             1.128688580            0.7224699570
SP   1   1.00
      0.358151393            1.0000000              1.0000000
D    1   1.00
      3.5000000              1.0000000
D    1   1.00
      0.8750000              1.0000000
F    1   1.00
      1.8500000              1.0000000
****
Al     0
S    6   1.00
  13983.1000000              0.00194267
   2098.7500000              0.0148599
    477.7050000              0.0728494
    134.3600000              0.2468300
     42.8709000              0.4872580
     14.5189000              0.3234960
SP   6   1.00
    239.6680000             -0.00292619             0.00460285
     57.4419000             -0.0374080              0.0331990
     18.2859000             -0.1144870              0.1362820
      6.5991400              0.1156350              0.3304760
      2.4904900              0.6125950              0.4491460
      0.9445400              0.3937990              0.2657040
SP   3   1.00
      1.2779000             -0.2276060             -0.0175130
      0.3975900              0.00144583             0.2445330
      0.1600950              1.0927900              0.8049340
SP   1   1.00
      0.0556577              1.0000000              1.0000000
D    1   1.00
      0.6500000              1.0000000
D    1   1.00
      0.1625000              1.0000000
F    1   1.00
      0.2500000              1.0000000
****
Si     0
S    6   1.00
  16115.9000000              0.00195948
   2425.5800000              0.01492880
    553.8670000              0.07284780
    156.3400000              0.24613000
     50.0683000              0.48591400
     17.0178000              0.32500200
SP   6   1.00
    292.7180000             -0.00278094             0.00443826
     69.8731000             -0.03571460             0.03266790
     22.3363000             -0.11498500             0.13472100
      8.1503900              0.09356340             0.32867800
      3.1345800              0.60301700             0.44964000
      1.2254300              0.41895900             0.26137200
SP   3   1.00
      1.7273800             -0.24463000            -0.01779510
      0.5729220              0.00431572             0.25353900
      0.2221920              1.09818000             0.80066900
SP   1   1.00
      0.0778369              1.00000000             1.00000000
D    1   1.00
      0.9000000              1.0000000
D    1   1.00
      0.2250000              1.0000000
F    1   1.00
      0.3200000              1.0000000
****
P     0
S    6   1.00
  19413.3000000              0.0018516
   2909.4200000              0.0142062
    661.3640000              0.0699995
    185.7590000              0.2400790
     59.1943000              0.4847620
     20.0310000              0.3352000
SP   6   1.00
    339.4780000             -0.00278217             0.00456462
     81.0101000             -0.0360499              0.03369360
     25.8780000             -0.1166310              0.13975500
      9.4522100              0.0968328              0.33936200
      3.6656600              0.6144180              0.45092100
      1.4674600              0.4037980              0.23858600
SP   3   1.00
      2.1562300             -0.2529230             -0.01776530
      0.7489970              0.0328517              0.27405800
      0.2831450              1.0812500              0.78542100
SP   1   1.00
      0.0998317              1.0000000              1.00000000
D    1   1.00
      1.1000000              1.0000000
D    1   1.00
      0.2750000              1.0000000
F    1   1.00
      0.4500000              1.0000000
****
S     0
S    6   1.00
  21917.1000000              0.0018690
   3301.4900000              0.0142300
    754.1460000              0.0696960
    212.7110000              0.2384870
     67.9896000              0.4833070
     23.0515000              0.3380740
SP   6   1.00
    423.7350000             -0.0023767              0.0040610
    100.7100000             -0.0316930              0.0306810
     32.1599000             -0.1133170              0.1304520
     11.8079000              0.0560900              0.3272050
      4.6311000              0.5922550              0.4528510
      1.8702500              0.4550060              0.2560420
SP   3   1.00
      2.6158400             -0.2503740             -0.0145110
      0.9221670              0.0669570              0.3102630
      0.3412870              1.0545100              0.7544830
SP   1   1.00
      0.1171670              1.0000000              1.0000000
D    1   1.00
      1.3000000              1.0000000
D    1   1.00
      0.3250000              1.0000000
F    1   1.00
      0.5500000              1.0000000
****
Cl     0
S    6   1.00
  25180.1000000              0.0018330
   3780.3500000              0.0140340
    860.4740000              0.0690970
    242.1450000              0.2374520
     77.3349000              0.4830340
     26.2470000              0.3398560
SP   6   1.00
    491.7650000             -0.0022974              0.0039894
    116.9840000             -0.0307140              0.0303180
     37.4153000             -0.1125280              0.1298800
     13.7834000              0.0450160              0.3279510
      5.4521500              0.5893530              0.4535270
      2.2258800              0.4652060              0.2521540
SP   3   1.00
      3.1864900             -0.2518300             -0.0142990
      1.1442700              0.0615890              0.3235720
      0.4203770              1.0601800              0.7435070
SP   1   1.00
      0.1426570              1.0000000              1.0000000
D    1   1.00
      1.5000000              1.0000000
D    1   1.00
      0.3750000              1.0000000
F    1   1.00
      0.7000000              1.0000000
****
}

set {
reference uhf
freeze_core true
e_convergence 10
d_convergence 10
dft_spherical_points 1202
dft_radial_points 99
}

e = energy('b3lyp')

print_out('Grab this energy {0}'.format(e))
--------------------------------------------------------------------------

    Molecular point group: c1

    Geometry (in Bohr), charge = 0, multiplicity = 2:

       Center              X                  Y                   Z               Mass
    ------------   -----------------  -----------------  -----------------  -----------------
         C           -0.323340880566    -0.000428744358     0.000427037541    12.000000000000
         C            0.061890006334    -1.400137437858    -2.426732003459    12.000000000000
         C            0.063070954334     2.801580373242    -0.000597389659    12.000000000000
         C            0.058340502234    -1.400809188258     2.426700269041    12.000000000000
         H            2.086863223834    -1.644545666058    -2.847111474059     1.007825032230
         H           -0.765826882066    -0.388681107258    -4.025206941759     1.007825032230
         H           -0.765617788866    -3.292266718658    -2.348684237459     1.007825032230
         H            2.086597267234     3.287937577442     0.000402946441     1.007825032230
         H           -0.766153483666     3.680022186742     1.676626228241     1.007825032230
         H           -0.766425947866     3.680110538342    -1.675952545359     1.007825032230
         H            2.087215075834    -1.644338078258     2.847558082441     1.007825032230
         H           -0.764644804066    -3.292466338658     2.348984097241     1.007825032230
         H           -0.764581305566    -0.388213326458     4.025790054041     1.007825032230

  Charge       = 0
  Multiplicity = 2
  Basis Set: ANONYMOUS6B2E86FB
    Blend: 6-31G_2DFP_
  Basis Set: (ANONYMOUS6B2E86FB AUX)
    Blend: DEF2-UNIVERSAL-JKFIT

    Orbital Energies [Eh]
    ---------------------

    Alpha Occupied:

       1A    -10.180342     2A    -10.167065     3A    -10.167010
       4A    -10.166970     5A     -0.797766     6A     -0.686233
       7A     -0.686140     8A     -0.530776     9A     -0.441128
      10A     -0.434813    11A     -0.434526    12A     -0.382813
      13A     -0.382385    14A     -0.363612    15A     -0.338118
      16A     -0.337877    17A     -0.168961

    Alpha Virtual:

      18A      0.076072    19A      0.134109    20A      0.134202
      21A      0.142539    22A      0.142716    23A      0.154879
      24A      0.178618    25A      0.178940    26A      0.203547
      27A      0.214802    28A      0.275908    29A      0.276062
      30A      0.399004    31A      0.399446    32A      0.403351
      33A      0.424029    34A      0.424164    35A      0.456593
      36A      0.495348    37A      0.495430    38A      0.512161
      39A      0.513979    40A      0.578699    41A      0.578936
      42A      0.591460    43A      0.591804    44A      0.602573
      45A      0.624760    46A      0.631774    47A      0.636095
      48A      0.636401    49A      0.663176    50A      0.663652
      51A      0.683641    52A      0.684062    53A      0.734995
      54A      0.825389    55A      0.825425    56A      0.853916
      57A      0.914995    58A      0.915057    59A      0.944126
      60A      0.944614    61A      0.961175    62A      0.961406
      63A      1.003452    64A      1.127967    65A      1.128252
      66A      1.142218    67A      1.163137    68A      1.163403
      69A      1.223322    70A      1.274288    71A      1.274691
      72A      1.279361    73A      1.323997    74A      1.324715
      75A      1.355978    76A      1.365624    77A      1.366487
      78A      1.392449    79A      1.403883    80A      1.404229
      81A      1.416701    82A      1.417528    83A      1.427912
      84A      1.491493    85A      1.499081    86A      1.542762
      87A      1.542885    88A      1.574233    89A      1.574667
      90A      1.669829    91A      1.738841    92A      1.739988
      93A      1.768332    94A      1.831115    95A      1.831672
      96A      1.971731    97A      2.017910    98A      2.018559
      99A      2.019923   100A      2.052113   101A      2.053165
     102A      2.738427   103A      2.738539   104A      2.790926
     105A      2.811427   106A      2.889569   107A      2.890339
     108A      2.894945   109A      2.929453   110A      2.929544
     111A      2.958997   112A      2.964229   113A      2.964517
     114A      3.034009   115A      3.071108   116A      3.071447
     117A      3.084363   118A      3.168610   119A      3.168953
     120A      3.180587   121A      3.285268   122A      3.285363
     123A      3.326945   124A      3.327378   125A      3.375620
     126A      3.489732   127A      3.490595   128A      3.514019
     129A      3.525324   130A      3.568226   131A      3.568549
     132A      3.575142   133A      3.665981   134A      3.666810
     135A      3.679648   136A      3.694106   137A      3.694139
     138A      3.776747   139A      3.776862   140A      3.789118
     141A      3.912104   142A      3.912338   143A      4.034455
     144A      4.111246   145A      4.111502   146A      4.148042
     147A      4.148212   148A      4.173241   149A      4.202292
     150A      4.203107   151A      4.203380   152A      4.210849
     153A      4.315327   154A      4.316574   155A      4.358996
     156A      4.424279   157A      4.424626   158A      4.443410
     159A      4.515352   160A      4.518344   161A      4.577988
     162A      4.578573   163A      4.617533   164A      4.709441
     165A      4.773879   166A      4.775301   167A      4.836919
     168A      4.962861   169A      5.002288   170A      5.003587
     171A      5.228058   172A      5.246782   173A      5.246838
     174A      5.355124   175A      5.355893   176A      5.479350

    Beta Occupied:

       1A    -10.167823     2A    -10.167764     3A    -10.167737
       4A    -10.166519     5A     -0.781091     6A     -0.684036
       7A     -0.683943     8A     -0.511747     9A     -0.431192
      10A     -0.430894    11A     -0.421821    12A     -0.376910
      13A     -0.376457    14A     -0.362596    15A     -0.333244
      16A     -0.332999

    Beta Virtual:

      17A     -0.025742    18A      0.077081    19A      0.135011
      20A      0.135080    21A      0.144416    22A      0.144581
      23A      0.163338    24A      0.182287    25A      0.182613
      26A      0.215031    27A      0.218930    28A      0.282260
      29A      0.282406    30A      0.400173    31A      0.400623
      32A      0.419791    33A      0.426836    34A      0.426980
      35A      0.468500    36A      0.497614    37A      0.497685
      38A      0.513895    39A      0.556324    40A      0.584256
      41A      0.584480    42A      0.597634    43A      0.597990
      44A      0.609997    45A      0.628134    46A      0.631930
      47A      0.639380    48A      0.639687    49A      0.666762
      50A      0.667194    51A      0.686273    52A      0.686701
      53A      0.757518    54A      0.830560    55A      0.830591
      56A      0.855269    57A      0.922968    58A      0.923028
      59A      0.945963    60A      0.953543    61A      0.966471
      62A      0.966722    63A      1.008692    64A      1.131942
      65A      1.132333    66A      1.155598    67A      1.168278
      68A      1.168408    69A      1.232295    70A      1.279880
      71A      1.280295    72A      1.285113    73A      1.328972
      74A      1.329718    75A      1.365393    76A      1.370867
      77A      1.371732    78A      1.393508    79A      1.407331
      80A      1.407712    81A      1.421775    82A      1.422555
      83A      1.428181    84A      1.492541    85A      1.509524
      86A      1.547193    87A      1.547270    88A      1.582181
      89A      1.582462    90A      1.674675    91A      1.744614
      92A      1.745740    93A      1.779111    94A      1.834970
      95A      1.835528    96A      1.972591    97A      2.024541
      98A      2.026343    99A      2.039689   100A      2.058863
     101A      2.059842   102A      2.746770   103A      2.746868
     104A      2.811838   105A      2.816062   106A      2.902270
     107A      2.903019   108A      2.924653   109A      2.931936
     110A      2.932019   111A      2.960059   112A      2.968780
     113A      2.969055   114A      3.041944   115A      3.081008
     116A      3.081347   117A      3.086200   118A      3.184376
     119A      3.184676   120A      3.188281   121A      3.290080
     122A      3.290148   123A      3.330729   124A      3.331202
     125A      3.383438   126A      3.492463   127A      3.493324
     128A      3.512383   129A      3.528370   130A      3.574996
     131A      3.581655   132A      3.581805   133A      3.670810
     134A      3.671470   135A      3.692945   136A      3.725547
     137A      3.725969   138A      3.781290   139A      3.781370
     140A      3.817663   141A      3.921898   142A      3.922177
     143A      4.045342   144A      4.118137   145A      4.118242
     146A      4.155186   147A      4.155483   148A      4.187304
     149A      4.208674   150A      4.209243   151A      4.210708
     152A      4.215320   153A      4.322729   154A      4.324049
     155A      4.362363   156A      4.432506   157A      4.432827
     158A      4.446293   159A      4.523148   160A      4.526128
     161A      4.588611   162A      4.589155   163A      4.624725
     164A      4.719786   165A      4.780859   166A      4.782227
     167A      4.839836   168A      4.967657   169A      5.006351
     170A      5.007601   171A      5.233773   172A      5.248566
     173A      5.248623   174A      5.361606   175A      5.362372
     176A      5.481671

    Final Occupation by Irrep:
              A
    DOCC [    16 ]
    SOCC [     1 ]

  @DF-UKS Final Energy:  -157.81306974777249

   => Energetics <=

    Nuclear Repulsion Energy =            125.3946039302619937
    One-Electron Energy =                -458.7488734647884030
    Two-Electron Energy =                 195.8483422448950648
    DFT Exchange-Correlation Energy =     -20.3071424581411435
    Empirical Dispersion Energy =           0.0000000000000000
    VV10 Nonlocal Energy =                  0.0000000000000000
    Total Energy =                       -157.8130697477724880

  UHF NO Occupations:
  HONO-2 :   15  A 1.9996009
  HONO-1 :   16  A 1.9989805
  HONO-0 :   17  A 1.0000000
  LUNO+0 :   18  A 0.0010195
  LUNO+1 :   19  A 0.0003991
  LUNO+2 :   20  A 0.0001977
  LUNO+3 :   21  A 0.0001974

Computation Completed

Properties will be evaluated at   0.000000,   0.000000,   0.000000 [a0]

Properties computed using the SCF density matrix

  Nuclear Dipole Moment: [e a0]
     X:     0.8272      Y:    -0.0012      Z:     0.0012

  Electronic Dipole Moment: [e a0]
     X:    -0.7493      Y:     0.0011      Z:    -0.0011

  Dipole Moment: [e a0]
     X:     0.0779      Y:    -0.0001      Z:     0.0001     Total:     0.0779

  Dipole Moment: [D]
     X:     0.1980      Y:    -0.0003      Z:     0.0003     Total:     0.1980

*** tstop() called on n080 at Fri Nov  5 12:13:08 2021
Module time:
	user time   =     495.47 seconds =       8.26 minutes
	system time =       4.56 seconds =       0.08 minutes
	total time  =        126 seconds =       2.10 minutes
Total time:
	user time   =     495.47 seconds =       8.26 minutes
	system time =       4.56 seconds =       0.08 minutes
	total time  =        126 seconds =       2.10 minutes
Grab this energy -157.8130697477725
    Psi4 stopped on: Friday, 05 November 2021 12:13PM
    Psi4 wall time for execution: 0:02:05.79

*** Psi4 exiting successfully. Buy a developer a beer!
