                               Psi4 1.4a2.dev629

  ==> Input File <==

--------------------------------------------------------------------------
import os
memory 14 GB

molecule {
 C   -0.3215608527    0.0004920234    0.0000000000
 C    0.0616512613   -1.4005037513   -2.4258038265
 C    0.0616734013    2.8023594613    0.0000000000
 C    0.0616512613   -1.4005037513    2.4258038265
 H    2.0886943860   -1.6470122387   -2.8524425875
 H   -0.7669794464   -0.3845326497   -4.0236862982
 H   -0.7669846135   -3.2932102697   -2.3453519648
 H    2.0822800943    3.2946200769    0.0000000000
 H   -0.7638818472    3.6765109718    1.6730165748
 H   -0.7638818472    3.6765109718   -1.6730165748
 H    2.0886943860   -1.6470122387    2.8524425875
 H   -0.7669846135   -3.2932102697    2.3453519648
 H   -0.7669794464   -0.3845326497    4.0236862982
units bohr
0 2
}

basis {

assign 6-31g_2dfp_

[ 6-31g_2dfp_ ]

spherical

!----------------------------------------------------------------------
! Basis Set Exchange
! Version v0.8.13
! https://www.basissetexchange.org
!----------------------------------------------------------------------
!   Basis set: 6-31G(2df,p)
! Description: 6-31G(2df,p)
!        Role: orbital
!     Version: 0  (Data from the original Basis Set Exchange)
!----------------------------------------------------------------------

****
H     0
S    3   1.00
     18.7311370              0.03349460
      2.8253937              0.23472695
      0.6401217              0.81375733
S    1   1.00
      0.1612778              1.00000000
P    1   1.00
      1.5000000              1.0000000
P    1   1.00
      0.3750000              1.0000000
****
B     0
S    6   1.00
   2068.8823000              0.0018663
    310.6495700              0.0142515
     70.6830330              0.0695516
     19.8610800              0.2325729
      6.2993048              0.4670787
      2.1270270              0.3634314
SP   3   1.00
      4.7279710             -0.1303938              0.0745976
      1.1903377             -0.1307889              0.3078467
      0.3594117              1.1309444              0.7434568
SP   1   1.00
      0.1267512              1.0000000              1.0000000
D    1   1.00
      0.8020000              1.0000000
D    1   1.00
      0.2005000              1.0000000
F    1   1.00
      0.5000000              1.0000000
****
C     0
S    6   1.00
   3047.5249000              0.0018347
    457.3695100              0.0140373
    103.9486900              0.0688426
     29.2101550              0.2321844
      9.2866630              0.4679413
      3.1639270              0.3623120
SP   3   1.00
      7.8682724             -0.1193324              0.0689991
      1.8812885             -0.1608542              0.3164240
      0.5442493              1.1434564              0.7443083
SP   1   1.00
      0.1687144              1.0000000              1.0000000
D    1   1.00
      1.2520000              1.0000000
D    1   1.00
      0.3130000              1.0000000
F    1   1.00
      0.8000000              1.0000000
****
N     0
S    6   1.00
   4173.5110000              0.0018348
    627.4579000              0.0139950
    142.9021000              0.0685870
     40.2343300              0.2322410
     12.8202100              0.4690700
      4.3904370              0.3604550
SP   3   1.00
     11.6263580             -0.1149610              0.0675800
      2.7162800             -0.1691180              0.3239070
      0.7722180              1.1458520              0.7408950
SP   1   1.00
      0.2120313              1.0000000              1.0000000
D    1   1.00
      1.8260000              1.0000000
D    1   1.00
      0.4565000              1.0000000
F    1   1.00
      1.0000000              1.0000000
****
O     0
S    6   1.00
   5484.6717000              0.0018311
    825.2349500              0.0139501
    188.0469600              0.0684451
     52.9645000              0.2327143
     16.8975700              0.4701930
      5.7996353              0.3585209
SP   3   1.00
     15.5396160             -0.1107775              0.0708743
      3.5999336             -0.1480263              0.3397528
      1.0137618              1.1307670              0.7271586
SP   1   1.00
      0.2700058              1.0000000              1.0000000
D    1   1.00
      2.5840000              1.0000000
D    1   1.00
      0.6460000              1.0000000
F    1   1.00
      1.4000000              1.0000000
****
F     0
S    6   1.00
   7001.7130900              0.0018196169
   1051.3660900              0.0139160796
    239.2856900              0.0684053245
     67.3974453              0.233185760
     21.5199573              0.471267439
      7.40310130             0.356618546
SP   3   1.00
     20.8479528             -0.108506975            0.0716287243
      4.80830834            -0.146451658            0.3459121030
      1.34406986             1.128688580            0.7224699570
SP   1   1.00
      0.358151393            1.0000000              1.0000000
D    1   1.00
      3.5000000              1.0000000
D    1   1.00
      0.8750000              1.0000000
F    1   1.00
      1.8500000              1.0000000
****
Al     0
S    6   1.00
  13983.1000000              0.00194267
   2098.7500000              0.0148599
    477.7050000              0.0728494
    134.3600000              0.2468300
     42.8709000              0.4872580
     14.5189000              0.3234960
SP   6   1.00
    239.6680000             -0.00292619             0.00460285
     57.4419000             -0.0374080              0.0331990
     18.2859000             -0.1144870              0.1362820
      6.5991400              0.1156350              0.3304760
      2.4904900              0.6125950              0.4491460
      0.9445400              0.3937990              0.2657040
SP   3   1.00
      1.2779000             -0.2276060             -0.0175130
      0.3975900              0.00144583             0.2445330
      0.1600950              1.0927900              0.8049340
SP   1   1.00
      0.0556577              1.0000000              1.0000000
D    1   1.00
      0.6500000              1.0000000
D    1   1.00
      0.1625000              1.0000000
F    1   1.00
      0.2500000              1.0000000
****
Si     0
S    6   1.00
  16115.9000000              0.00195948
   2425.5800000              0.01492880
    553.8670000              0.07284780
    156.3400000              0.24613000
     50.0683000              0.48591400
     17.0178000              0.32500200
SP   6   1.00
    292.7180000             -0.00278094             0.00443826
     69.8731000             -0.03571460             0.03266790
     22.3363000             -0.11498500             0.13472100
      8.1503900              0.09356340             0.32867800
      3.1345800              0.60301700             0.44964000
      1.2254300              0.41895900             0.26137200
SP   3   1.00
      1.7273800             -0.24463000            -0.01779510
      0.5729220              0.00431572             0.25353900
      0.2221920              1.09818000             0.80066900
SP   1   1.00
      0.0778369              1.00000000             1.00000000
D    1   1.00
      0.9000000              1.0000000
D    1   1.00
      0.2250000              1.0000000
F    1   1.00
      0.3200000              1.0000000
****
P     0
S    6   1.00
  19413.3000000              0.0018516
   2909.4200000              0.0142062
    661.3640000              0.0699995
    185.7590000              0.2400790
     59.1943000              0.4847620
     20.0310000              0.3352000
SP   6   1.00
    339.4780000             -0.00278217             0.00456462
     81.0101000             -0.0360499              0.03369360
     25.8780000             -0.1166310              0.13975500
      9.4522100              0.0968328              0.33936200
      3.6656600              0.6144180              0.45092100
      1.4674600              0.4037980              0.23858600
SP   3   1.00
      2.1562300             -0.2529230             -0.01776530
      0.7489970              0.0328517              0.27405800
      0.2831450              1.0812500              0.78542100
SP   1   1.00
      0.0998317              1.0000000              1.00000000
D    1   1.00
      1.1000000              1.0000000
D    1   1.00
      0.2750000              1.0000000
F    1   1.00
      0.4500000              1.0000000
****
S     0
S    6   1.00
  21917.1000000              0.0018690
   3301.4900000              0.0142300
    754.1460000              0.0696960
    212.7110000              0.2384870
     67.9896000              0.4833070
     23.0515000              0.3380740
SP   6   1.00
    423.7350000             -0.0023767              0.0040610
    100.7100000             -0.0316930              0.0306810
     32.1599000             -0.1133170              0.1304520
     11.8079000              0.0560900              0.3272050
      4.6311000              0.5922550              0.4528510
      1.8702500              0.4550060              0.2560420
SP   3   1.00
      2.6158400             -0.2503740             -0.0145110
      0.9221670              0.0669570              0.3102630
      0.3412870              1.0545100              0.7544830
SP   1   1.00
      0.1171670              1.0000000              1.0000000
D    1   1.00
      1.3000000              1.0000000
D    1   1.00
      0.3250000              1.0000000
F    1   1.00
      0.5500000              1.0000000
****
Cl     0
S    6   1.00
  25180.1000000              0.0018330
   3780.3500000              0.0140340
    860.4740000              0.0690970
    242.1450000              0.2374520
     77.3349000              0.4830340
     26.2470000              0.3398560
SP   6   1.00
    491.7650000             -0.0022974              0.0039894
    116.9840000             -0.0307140              0.0303180
     37.4153000             -0.1125280              0.1298800
     13.7834000              0.0450160              0.3279510
      5.4521500              0.5893530              0.4535270
      2.2258800              0.4652060              0.2521540
SP   3   1.00
      3.1864900             -0.2518300             -0.0142990
      1.1442700              0.0615890              0.3235720
      0.4203770              1.0601800              0.7435070
SP   1   1.00
      0.1426570              1.0000000              1.0000000
D    1   1.00
      1.5000000              1.0000000
D    1   1.00
      0.3750000              1.0000000
F    1   1.00
      0.7000000              1.0000000
****
}

set {
reference uhf
freeze_core true
e_convergence 10
d_convergence 10
dft_spherical_points 1202
dft_radial_points 99
}

e = energy('b3lyp')

print_out('Grab this energy {0}'.format(e))
--------------------------------------------------------------------------

    Molecular point group: cs

    Geometry (in Bohr), charge = 0, multiplicity = 2:

       Center              X                  Y                   Z               Mass
    ------------   -----------------  -----------------  -----------------  -----------------
         C           -0.322226321380     0.000137288528     0.000000000000    12.000000000000
         C            0.060985792620    -1.400858486172    -2.425803826500    12.000000000000
         C            0.061007932620     2.802004726428     0.000000000000    12.000000000000
         C            0.060985792620    -1.400858486172     2.425803826500    12.000000000000
         H            2.088028917320    -1.647366973572    -2.852442587500     1.007825032230
         H           -0.767644915080    -0.384887384572    -4.023686298200     1.007825032230
         H           -0.767650082180    -3.293565004572    -2.345351964800     1.007825032230
         H            2.081614625620     3.294265342028     0.000000000000     1.007825032230
         H           -0.764547315880     3.676156236928     1.673016574800     1.007825032230
         H           -0.764547315880     3.676156236928    -1.673016574800     1.007825032230
         H            2.088028917320    -1.647366973572     2.852442587500     1.007825032230
         H           -0.767650082180    -3.293565004572     2.345351964800     1.007825032230
         H           -0.767644915080    -0.384887384572     4.023686298200     1.007825032230

  Charge       = 0
  Multiplicity = 2
  Basis Set: ANONYMOUS5D7F6119
    Blend: 6-31G_2DFP_
  Basis Set: (ANONYMOUS5D7F6119 AUX)
    Blend: DEF2-UNIVERSAL-JKFIT

    Orbital Energies [Eh]
    ---------------------

    Alpha Occupied:

       1Ap   -10.180330     1App  -10.167319     2Ap   -10.167289
       3Ap   -10.166298     4Ap    -0.797832     5Ap    -0.686548
       2App   -0.685903     6Ap    -0.530787     7Ap    -0.440955
       3App   -0.434971     8Ap    -0.434795     9Ap    -0.382669
       4App   -0.382225     5App   -0.363750     6App   -0.338051
      10Ap    -0.337990    11Ap    -0.169051

    Alpha Virtual:

      12Ap     0.076106     7App    0.134099    13Ap     0.134100
      14Ap     0.142598     8App    0.142805    15Ap     0.155080
       9App    0.178419    16Ap     0.179070    17Ap     0.203679
      10App    0.215027    18Ap     0.275980    11App    0.276069
      12App    0.399378    19Ap     0.399532    20Ap     0.403269
      21Ap     0.423850    13App    0.424039    22Ap     0.456828
      14App    0.495296    23Ap     0.495435    15App    0.511974
      24Ap     0.514036    16App    0.578844    25Ap     0.579078
      17App    0.591152    26Ap     0.591731    27Ap     0.602360
      28Ap     0.624829    18App    0.631950    29Ap     0.635956
      19App    0.636801    20App    0.663507    30Ap     0.663876
      21App    0.683457    31Ap     0.684094    32Ap     0.735077
      33Ap     0.824908    22App    0.825695    23App    0.854262
      34Ap     0.915167    24App    0.915182    35Ap     0.943813
      25App    0.944354    36Ap     0.960771    26App    0.961256
      37Ap     1.004179    27App    1.128246    38Ap     1.128887
      39Ap     1.141616    40Ap     1.163722    28App    1.163911
      41Ap     1.223255    29App    1.274286    42Ap     1.274641
      43Ap     1.279581    44Ap     1.324279    30App    1.324966
      45Ap     1.355565    31App    1.366114    46Ap     1.366653
      32App    1.392260    33App    1.403384    47Ap     1.404136
      34App    1.416649    48Ap     1.417283    35App    1.428529
      36App    1.492091    49Ap     1.498767    50Ap     1.542843
      37App    1.542949    51Ap     1.573557    38App    1.574116
      52Ap     1.669868    53Ap     1.739175    39App    1.739363
      54Ap     1.768183    40App    1.830085    55Ap     1.833333
      41App    1.971806    56Ap     2.017972    57Ap     2.019877
      42App    2.020015    58Ap     2.053084    43App    2.053193
      59Ap     2.737626    44App    2.738518    60Ap     2.791152
      45App    2.811945    46App    2.889843    61Ap     2.890335
      62Ap     2.895230    63Ap     2.929844    47App    2.930055
      48App    2.959067    49App    2.963917    64Ap     2.964961
      65Ap     3.034488    50App    3.070556    66Ap     3.071044
      51App    3.084031    67Ap     3.168575    52App    3.168854
      68Ap     3.180756    69Ap     3.284843    53App    3.284992
      70Ap     3.328222    54App    3.328309    71Ap     3.375317
      72Ap     3.488851    55App    3.490496    56App    3.514233
      73Ap     3.525507    57App    3.568836    74Ap     3.568974
      58App    3.576058    59App    3.665612    75Ap     3.666986
      76Ap     3.680726    60App    3.693121    77Ap     3.694132
      61App    3.777401    78Ap     3.778544    79Ap     3.787809
      62App    3.911893    80Ap     3.912764    81Ap     4.033333
      63App    4.110670    82Ap     4.112180    83Ap     4.145871
      64App    4.149818    84Ap     4.173248    85Ap     4.201097
      65App    4.203092    86Ap     4.205724    66App    4.211668
      67App    4.315580    87Ap     4.316994    68App    4.360087
      88Ap     4.423738    69App    4.424077    70App    4.444553
      71App    4.517462    89Ap     4.517823    90Ap     4.578846
      72App    4.579710    91Ap     4.618006    92Ap     4.709805
      73App    4.774857    93Ap     4.775051    74App    4.835866
      94Ap     4.963384    75App    5.002270    95Ap     5.003452
      96Ap     5.228200    97Ap     5.243096    76App    5.250380
      77App    5.353070    98Ap     5.359276    78App    5.479694

    Beta Occupied:

       1App  -10.168075     1Ap   -10.168056     2Ap   -10.167062
       3Ap   -10.166507     4Ap    -0.781160     5Ap    -0.684348
       2App   -0.683704     6Ap    -0.511755     3App   -0.431344
       7Ap    -0.431147     8Ap    -0.421659     9Ap    -0.376752
       4App   -0.376290     5App   -0.362728     6App   -0.333171
      10Ap    -0.333123

    Beta Virtual:

      11Ap    -0.025909    12Ap     0.077112    13Ap     0.134948
       7App    0.135061    14Ap     0.144526     8App    0.144638
      15Ap     0.163589     9App    0.182093    16Ap     0.182726
      10App    0.215258    17Ap     0.219022    18Ap     0.282315
      11App    0.282408    12App    0.400548    19Ap     0.400711
      20Ap     0.419737    21Ap     0.426653    13App    0.426848
      22Ap     0.468815    14App    0.497571    23Ap     0.497710
      15App    0.513714    24Ap     0.556296    16App    0.584409
      25Ap     0.584658    17App    0.597325    26Ap     0.597865
      27Ap     0.609798    28Ap     0.628209    18App    0.632145
      29Ap     0.639258    19App    0.640024    20App    0.667079
      30Ap     0.667477    21App    0.686109    31Ap     0.686675
      32Ap     0.757564    33Ap     0.830066    22App    0.830905
      23App    0.855619    34Ap     0.923187    24App    0.923197
      25App    0.946190    35Ap     0.952822    36Ap     0.966080
      26App    0.966506    37Ap     1.009448    27App    1.132260
      38Ap     1.132935    39Ap     1.154777    40Ap     1.168775
      28App    1.168989    41Ap     1.232326    29App    1.279900
      42Ap     1.280258    43Ap     1.285403    44Ap     1.329261
      30App    1.330043    45Ap     1.364916    31App    1.371363
      46Ap     1.371882    32App    1.393334    33App    1.406844
      47Ap     1.407636    34App    1.421602    48Ap     1.422326
      35App    1.428801    36App    1.493129    49Ap     1.509188
      50Ap     1.547198    37App    1.547396    51Ap     1.581449
      38App    1.581988    52Ap     1.674716    53Ap     1.744961
      39App    1.745109    54Ap     1.778975    40App    1.833967
      55Ap     1.837157    41App    1.972676    56Ap     2.026257
      42App    2.026380    57Ap     2.039474    58Ap     2.059730
      43App    2.059952    59Ap     2.745959    44App    2.746879
      45App    2.812361    60Ap     2.816292    46App    2.902545
      61Ap     2.902903    62Ap     2.924895    63Ap     2.932392
      47App    2.932500    48App    2.960135    49App    2.968457
      64Ap     2.969584    65Ap     3.042414    50App    3.080366
      66Ap     3.080998    51App    3.085882    67Ap     3.184263
      52App    3.184635    68Ap     3.188469    69Ap     3.289593
      53App    3.289794    70Ap     3.332022    54App    3.332069
      71Ap     3.383109    72Ap     3.491680    55App    3.493261
      56App    3.512605    73Ap     3.528515    57App    3.575805
      74Ap     3.582222    58App    3.582245    59App    3.670218
      75Ap     3.671709    76Ap     3.693995    60App    3.724913
      77Ap     3.725877    61App    3.782024    78Ap     3.783104
      79Ap     3.816379    62App    3.921676    80Ap     3.922520
      81Ap     4.044268    63App    4.117770    82Ap     4.118872
      83Ap     4.153222    64App    4.156757    84Ap     4.187265
      85Ap     4.208383    65App    4.208937    86Ap     4.212409
      66App    4.216179    67App    4.323159    87Ap     4.324323
      68App    4.363474    88Ap     4.432017    69App    4.432199
      70App    4.447453    71App    4.525300    89Ap     4.525541
      90Ap     4.589515    72App    4.590286    91Ap     4.625122
      92Ap     4.720255    73App    4.781763    93Ap     4.782022
      74App    4.838786    94Ap     4.968177    75App    5.006342
      95Ap     5.007490    96Ap     5.233889    97Ap     5.244901
      76App    5.252168    77App    5.359567    98Ap     5.365740
      78App    5.482020

    Final Occupation by Irrep:
             Ap   App
    DOCC [    10,    6 ]
    SOCC [     1,    0 ]

  @DF-UKS Final Energy:  -157.81306304317059

   => Energetics <=

    Nuclear Repulsion Energy =            125.4062723985738330
    One-Electron Energy =                -458.7716231980072052
    Two-Electron Energy =                 195.8597791046628345
    DFT Exchange-Correlation Energy =     -20.3074913484000348
    Empirical Dispersion Energy =           0.0000000000000000
    VV10 Nonlocal Energy =                  0.0000000000000000
    Total Energy =                       -157.8130630431705868

  UHF NO Occupations:
  HONO-2 :    9 Ap 1.9995995
  HONO-1 :   10 Ap 1.9989824
  HONO-0 :   11 Ap 1.0000000
  LUNO+0 :   12 Ap 0.0010176
  LUNO+1 :   13 Ap 0.0004005
  LUNO+2 :    7App 0.0001973
  LUNO+3 :   14 Ap 0.0001972

Computation Completed

Properties will be evaluated at   0.000000,   0.000000,   0.000000 [a0]

Properties computed using the SCF density matrix

  Nuclear Dipole Moment: [e a0]
     X:     0.8225      Y:    -0.0025      Z:     0.0000

  Electronic Dipole Moment: [e a0]
     X:    -0.7450      Y:     0.0050      Z:     0.0000

  Dipole Moment: [e a0]
     X:     0.0775      Y:     0.0024      Z:     0.0000     Total:     0.0775

  Dipole Moment: [D]
     X:     0.1970      Y:     0.0062      Z:     0.0000     Total:     0.1971

*** tstop() called on n065 at Fri Nov  5 15:11:37 2021
Module time:
	user time   =     543.82 seconds =       9.06 minutes
	system time =      11.99 seconds =       0.20 minutes
	total time  =        140 seconds =       2.33 minutes
Total time:
	user time   =     543.82 seconds =       9.06 minutes
	system time =      11.99 seconds =       0.20 minutes
	total time  =        140 seconds =       2.33 minutes
Grab this energy -157.8130630431706
    Psi4 stopped on: Friday, 05 November 2021 03:11PM
    Psi4 wall time for execution: 0:02:19.79

*** Psi4 exiting successfully. Buy a developer a beer!
