                               Psi4 1.4a2.dev629

  ==> Input File <==

--------------------------------------------------------------------------
import os
memory 14 GB

molecule {
 C   -0.3233174207   -0.0000023237   -0.0004945909
 C    0.0613177345   -1.4015611106   -2.4276051468
 C    0.0611137040    2.8024180504   -0.0000409951
 C    0.0611496519   -1.4008534899    2.4262975339
 H    2.0801638639   -1.6445034864   -2.8481168425
 H   -0.7620419799   -0.3933589934   -4.0214764394
 H   -0.7621146824   -3.2864932097   -2.3516981183
 H    2.0836460899    3.2884620049    0.0000273994
 H   -0.7640305428    3.6805477137    1.6740395155
 H   -0.7642112159    3.6795591558   -1.6733849204
 H    2.0874062576   -1.6440504375    2.8473861560
 H   -0.7659717055   -3.2924762683    2.3487160023
 H   -0.7657176314   -0.3877119189    4.0263504464
units bohr
0 2
}

basis {

assign 6-31g_2dfp_

[ 6-31g_2dfp_ ]

spherical

!----------------------------------------------------------------------
! Basis Set Exchange
! Version v0.8.13
! https://www.basissetexchange.org
!----------------------------------------------------------------------
!   Basis set: 6-31G(2df,p)
! Description: 6-31G(2df,p)
!        Role: orbital
!     Version: 0  (Data from the original Basis Set Exchange)
!----------------------------------------------------------------------

****
H     0
S    3   1.00
     18.7311370              0.03349460
      2.8253937              0.23472695
      0.6401217              0.81375733
S    1   1.00
      0.1612778              1.00000000
P    1   1.00
      1.5000000              1.0000000
P    1   1.00
      0.3750000              1.0000000
****
B     0
S    6   1.00
   2068.8823000              0.0018663
    310.6495700              0.0142515
     70.6830330              0.0695516
     19.8610800              0.2325729
      6.2993048              0.4670787
      2.1270270              0.3634314
SP   3   1.00
      4.7279710             -0.1303938              0.0745976
      1.1903377             -0.1307889              0.3078467
      0.3594117              1.1309444              0.7434568
SP   1   1.00
      0.1267512              1.0000000              1.0000000
D    1   1.00
      0.8020000              1.0000000
D    1   1.00
      0.2005000              1.0000000
F    1   1.00
      0.5000000              1.0000000
****
C     0
S    6   1.00
   3047.5249000              0.0018347
    457.3695100              0.0140373
    103.9486900              0.0688426
     29.2101550              0.2321844
      9.2866630              0.4679413
      3.1639270              0.3623120
SP   3   1.00
      7.8682724             -0.1193324              0.0689991
      1.8812885             -0.1608542              0.3164240
      0.5442493              1.1434564              0.7443083
SP   1   1.00
      0.1687144              1.0000000              1.0000000
D    1   1.00
      1.2520000              1.0000000
D    1   1.00
      0.3130000              1.0000000
F    1   1.00
      0.8000000              1.0000000
****
N     0
S    6   1.00
   4173.5110000              0.0018348
    627.4579000              0.0139950
    142.9021000              0.0685870
     40.2343300              0.2322410
     12.8202100              0.4690700
      4.3904370              0.3604550
SP   3   1.00
     11.6263580             -0.1149610              0.0675800
      2.7162800             -0.1691180              0.3239070
      0.7722180              1.1458520              0.7408950
SP   1   1.00
      0.2120313              1.0000000              1.0000000
D    1   1.00
      1.8260000              1.0000000
D    1   1.00
      0.4565000              1.0000000
F    1   1.00
      1.0000000              1.0000000
****
O     0
S    6   1.00
   5484.6717000              0.0018311
    825.2349500              0.0139501
    188.0469600              0.0684451
     52.9645000              0.2327143
     16.8975700              0.4701930
      5.7996353              0.3585209
SP   3   1.00
     15.5396160             -0.1107775              0.0708743
      3.5999336             -0.1480263              0.3397528
      1.0137618              1.1307670              0.7271586
SP   1   1.00
      0.2700058              1.0000000              1.0000000
D    1   1.00
      2.5840000              1.0000000
D    1   1.00
      0.6460000              1.0000000
F    1   1.00
      1.4000000              1.0000000
****
F     0
S    6   1.00
   7001.7130900              0.0018196169
   1051.3660900              0.0139160796
    239.2856900              0.0684053245
     67.3974453              0.233185760
     21.5199573              0.471267439
      7.40310130             0.356618546
SP   3   1.00
     20.8479528             -0.108506975            0.0716287243
      4.80830834            -0.146451658            0.3459121030
      1.34406986             1.128688580            0.7224699570
SP   1   1.00
      0.358151393            1.0000000              1.0000000
D    1   1.00
      3.5000000              1.0000000
D    1   1.00
      0.8750000              1.0000000
F    1   1.00
      1.8500000              1.0000000
****
Al     0
S    6   1.00
  13983.1000000              0.00194267
   2098.7500000              0.0148599
    477.7050000              0.0728494
    134.3600000              0.2468300
     42.8709000              0.4872580
     14.5189000              0.3234960
SP   6   1.00
    239.6680000             -0.00292619             0.00460285
     57.4419000             -0.0374080              0.0331990
     18.2859000             -0.1144870              0.1362820
      6.5991400              0.1156350              0.3304760
      2.4904900              0.6125950              0.4491460
      0.9445400              0.3937990              0.2657040
SP   3   1.00
      1.2779000             -0.2276060             -0.0175130
      0.3975900              0.00144583             0.2445330
      0.1600950              1.0927900              0.8049340
SP   1   1.00
      0.0556577              1.0000000              1.0000000
D    1   1.00
      0.6500000              1.0000000
D    1   1.00
      0.1625000              1.0000000
F    1   1.00
      0.2500000              1.0000000
****
Si     0
S    6   1.00
  16115.9000000              0.00195948
   2425.5800000              0.01492880
    553.8670000              0.07284780
    156.3400000              0.24613000
     50.0683000              0.48591400
     17.0178000              0.32500200
SP   6   1.00
    292.7180000             -0.00278094             0.00443826
     69.8731000             -0.03571460             0.03266790
     22.3363000             -0.11498500             0.13472100
      8.1503900              0.09356340             0.32867800
      3.1345800              0.60301700             0.44964000
      1.2254300              0.41895900             0.26137200
SP   3   1.00
      1.7273800             -0.24463000            -0.01779510
      0.5729220              0.00431572             0.25353900
      0.2221920              1.09818000             0.80066900
SP   1   1.00
      0.0778369              1.00000000             1.00000000
D    1   1.00
      0.9000000              1.0000000
D    1   1.00
      0.2250000              1.0000000
F    1   1.00
      0.3200000              1.0000000
****
P     0
S    6   1.00
  19413.3000000              0.0018516
   2909.4200000              0.0142062
    661.3640000              0.0699995
    185.7590000              0.2400790
     59.1943000              0.4847620
     20.0310000              0.3352000
SP   6   1.00
    339.4780000             -0.00278217             0.00456462
     81.0101000             -0.0360499              0.03369360
     25.8780000             -0.1166310              0.13975500
      9.4522100              0.0968328              0.33936200
      3.6656600              0.6144180              0.45092100
      1.4674600              0.4037980              0.23858600
SP   3   1.00
      2.1562300             -0.2529230             -0.01776530
      0.7489970              0.0328517              0.27405800
      0.2831450              1.0812500              0.78542100
SP   1   1.00
      0.0998317              1.0000000              1.00000000
D    1   1.00
      1.1000000              1.0000000
D    1   1.00
      0.2750000              1.0000000
F    1   1.00
      0.4500000              1.0000000
****
S     0
S    6   1.00
  21917.1000000              0.0018690
   3301.4900000              0.0142300
    754.1460000              0.0696960
    212.7110000              0.2384870
     67.9896000              0.4833070
     23.0515000              0.3380740
SP   6   1.00
    423.7350000             -0.0023767              0.0040610
    100.7100000             -0.0316930              0.0306810
     32.1599000             -0.1133170              0.1304520
     11.8079000              0.0560900              0.3272050
      4.6311000              0.5922550              0.4528510
      1.8702500              0.4550060              0.2560420
SP   3   1.00
      2.6158400             -0.2503740             -0.0145110
      0.9221670              0.0669570              0.3102630
      0.3412870              1.0545100              0.7544830
SP   1   1.00
      0.1171670              1.0000000              1.0000000
D    1   1.00
      1.3000000              1.0000000
D    1   1.00
      0.3250000              1.0000000
F    1   1.00
      0.5500000              1.0000000
****
Cl     0
S    6   1.00
  25180.1000000              0.0018330
   3780.3500000              0.0140340
    860.4740000              0.0690970
    242.1450000              0.2374520
     77.3349000              0.4830340
     26.2470000              0.3398560
SP   6   1.00
    491.7650000             -0.0022974              0.0039894
    116.9840000             -0.0307140              0.0303180
     37.4153000             -0.1125280              0.1298800
     13.7834000              0.0450160              0.3279510
      5.4521500              0.5893530              0.4535270
      2.2258800              0.4652060              0.2521540
SP   3   1.00
      3.1864900             -0.2518300             -0.0142990
      1.1442700              0.0615890              0.3235720
      0.4203770              1.0601800              0.7435070
SP   1   1.00
      0.1426570              1.0000000              1.0000000
D    1   1.00
      1.5000000              1.0000000
D    1   1.00
      0.3750000              1.0000000
F    1   1.00
      0.7000000              1.0000000
****
}

set {
reference uhf
freeze_core true
e_convergence 10
d_convergence 10
dft_spherical_points 1202
dft_radial_points 99
}

e = energy('b3lyp')

print_out('Grab this energy {0}'.format(e))
--------------------------------------------------------------------------

    Molecular point group: c1

    Geometry (in Bohr), charge = 0, multiplicity = 2:

       Center              X                  Y                   Z               Mass
    ------------   -----------------  -----------------  -----------------  -----------------
         C           -0.323375906751    -0.000002111253    -0.000139577518    12.000000000000
         C            0.061259248449    -1.401560898153    -2.427250133418    12.000000000000
         C            0.061055217949     2.802418262847     0.000314018282    12.000000000000
         C            0.061091165849    -1.400853277453     2.426652547282    12.000000000000
         H            2.080105377849    -1.644503273953    -2.847761829118     1.007825032230
         H           -0.762100465951    -0.393358780953    -4.021121426018     1.007825032230
         H           -0.762173168451    -3.286492997253    -2.351343104918     1.007825032230
         H            2.083587603849     3.288462217347     0.000382412782     1.007825032230
         H           -0.764089028851     3.680547926147     1.674394528882     1.007825032230
         H           -0.764269701951     3.679559368247    -1.673029907018     1.007825032230
         H            2.087347771549    -1.644050225053     2.847741169382     1.007825032230
         H           -0.766030191551    -3.292476055853     2.349071015682     1.007825032230
         H           -0.765776117451    -0.387711706453     4.026705459782     1.007825032230

  Charge       = 0
  Multiplicity = 2
  Basis Set: ANONYMOUSA7041EA4
    Blend: 6-31G_2DFP_
  Basis Set: (ANONYMOUSA7041EA4 AUX)
    Blend: DEF2-UNIVERSAL-JKFIT

    Orbital Energies [Eh]
    ---------------------

    Alpha Occupied:

       1A    -10.180275     2A    -10.167060     3A    -10.166480
       4A    -10.165896     5A     -0.797728     6A     -0.686871
       7A     -0.686225     8A     -0.531086     9A     -0.441225
      10A     -0.434898    11A     -0.434723    12A     -0.383081
      13A     -0.382635    14A     -0.363928    15A     -0.338035
      16A     -0.337973    17A     -0.168900

    Alpha Virtual:

      18A      0.076402    19A      0.134511    20A      0.134517
      21A      0.142936    22A      0.143153    23A      0.155173
      24A      0.178964    25A      0.179610    26A      0.203436
      27A      0.215260    28A      0.275964    29A      0.276053
      30A      0.399094    31A      0.399252    32A      0.403551
      33A      0.424275    34A      0.424466    35A      0.456724
      36A      0.495543    37A      0.495685    38A      0.512433
      39A      0.514111    40A      0.579028    41A      0.579274
      42A      0.591924    43A      0.592526    44A      0.603244
      45A      0.625746    46A      0.632393    47A      0.636470
      48A      0.637239    49A      0.663566    50A      0.663936
      51A      0.684094    52A      0.684734    53A      0.735304
      54A      0.825823    55A      0.826618    56A      0.854432
      57A      0.915728    58A      0.915751    59A      0.944757
      60A      0.945403    61A      0.961701    62A      0.962202
      63A      1.003554    64A      1.128202    65A      1.128858
      66A      1.143092    67A      1.163436    68A      1.163612
      69A      1.223766    70A      1.274843    71A      1.275208
      72A      1.278896    73A      1.324709    74A      1.325413
      75A      1.356837    76A      1.366294    77A      1.366812
      78A      1.393035    79A      1.404692    80A      1.405454
      81A      1.417720    82A      1.418348    83A      1.428666
      84A      1.492388    85A      1.500436    86A      1.543259
      87A      1.543382    88A      1.574376    89A      1.574917
      90A      1.671957    91A      1.740746    92A      1.740924
      93A      1.769858    94A      1.832308    95A      1.835546
      96A      1.973328    97A      2.019174    98A      2.020210
      99A      2.020474   100A      2.053688   101A      2.053806
     102A      2.739017   103A      2.739913   104A      2.791137
     105A      2.811943   106A      2.890211   107A      2.890762
     108A      2.895060   109A      2.929774   110A      2.929995
     111A      2.959633   112A      2.964519   113A      2.965574
     114A      3.034935   115A      3.072013   116A      3.072458
     117A      3.085312   118A      3.167996   119A      3.168258
     120A      3.180892   121A      3.285210   122A      3.285356
     123A      3.326625   124A      3.326695   125A      3.374908
     126A      3.488333   127A      3.489998   128A      3.513729
     129A      3.524731   130A      3.568496   131A      3.568590
     132A      3.573547   133A      3.666340   134A      3.667755
     135A      3.681438   136A      3.694535   137A      3.695475
     138A      3.776769   139A      3.777944   140A      3.789680
     141A      3.912715   142A      3.913595   143A      4.036772
     144A      4.113014   145A      4.114545   146A      4.149380
     147A      4.153404   148A      4.176303   149A      4.202197
     150A      4.204389   151A      4.206479   152A      4.214855
     153A      4.317503   154A      4.318926   155A      4.361366
     156A      4.426772   157A      4.427197   158A      4.445566
     159A      4.519009   160A      4.519490   161A      4.579322
     162A      4.580220   163A      4.618204   164A      4.711520
     165A      4.776277   166A      4.776459   167A      4.839194
     168A      4.963679   169A      5.003492   170A      5.004674
     171A      5.233124   172A      5.248413   173A      5.255775
     174A      5.357175   175A      5.363222   176A      5.482680

    Beta Occupied:

       1A    -10.167820     2A    -10.167239     3A    -10.166677
       4A    -10.166412     5A     -0.781081     6A     -0.684672
       7A     -0.684026     8A     -0.511999     9A     -0.431289
      10A     -0.431092    11A     -0.421959    12A     -0.377183
      13A     -0.376719    14A     -0.362915    15A     -0.333142
      16A     -0.333093

    Beta Virtual:

      17A     -0.025510    18A      0.077407    19A      0.135358
      20A      0.135466    21A      0.144826    22A      0.144947
      23A      0.163570    24A      0.182635    25A      0.183262
      26A      0.215488    27A      0.218839    28A      0.282319
      29A      0.282413    30A      0.400255    31A      0.400421
      32A      0.420013    33A      0.427085    34A      0.427282
      35A      0.468613    36A      0.497803    37A      0.497944
      38A      0.514162    39A      0.556514    40A      0.584587
      41A      0.584848    42A      0.598148    43A      0.598706
      44A      0.610650    45A      0.629111    46A      0.632583
      47A      0.639736    48A      0.640463    49A      0.667121
      50A      0.667518    51A      0.686728    52A      0.687300
      53A      0.757852    54A      0.830963    55A      0.831811
      56A      0.855762    57A      0.923687    58A      0.923706
      59A      0.946593    60A      0.954353    61A      0.967028
      62A      0.967472    63A      1.008806    64A      1.132201
      65A      1.132889    66A      1.156459    67A      1.168525
      68A      1.168728    69A      1.232723    70A      1.280426
      71A      1.280796    72A      1.284636    73A      1.329677
      74A      1.330475    75A      1.366270    76A      1.371552
      77A      1.372045    78A      1.394088    79A      1.408136
      80A      1.408934    81A      1.422726    82A      1.423443
      83A      1.428923    84A      1.493442    85A      1.510880
      86A      1.547491    87A      1.547704    88A      1.582362
      89A      1.582888    90A      1.676879    91A      1.746533
      92A      1.746678    93A      1.780577    94A      1.836163
      95A      1.839342    96A      1.974187    97A      2.026580
      98A      2.026659    99A      2.040733   100A      2.060343
     101A      2.060582   102A      2.747351   103A      2.748275
     104A      2.812358   105A      2.816299   106A      2.903039
     107A      2.903430   108A      2.924772   109A      2.932252
     110A      2.932379   111A      2.960703   112A      2.969064
     113A      2.970200   114A      3.042789   115A      3.081907
     116A      3.082466   117A      3.087173   118A      3.183655
     119A      3.183994   120A      3.188638   121A      3.289929
     122A      3.290127   123A      3.330455   124A      3.330487
     125A      3.382750   126A      3.491141   127A      3.492742
     128A      3.512099   129A      3.527791   130A      3.573293
     131A      3.581920   132A      3.581988   133A      3.671317
     134A      3.672856   135A      3.694833   136A      3.725986
     137A      3.726904   138A      3.781309   139A      3.782426
     140A      3.818254   141A      3.922531   142A      3.923386
     143A      4.047779   144A      4.120104   145A      4.121215
     146A      4.156769   147A      4.160399   148A      4.190209
     149A      4.208876   150A      4.210508   151A      4.213445
     152A      4.219305   153A      4.324983   154A      4.326158
     155A      4.364721   156A      4.434973   157A      4.435320
     158A      4.448481   159A      4.526850   160A      4.527209
     161A      4.589935   162A      4.590741   163A      4.625388
     164A      4.721859   165A      4.783194   166A      4.783441
     167A      4.842115   168A      4.968448   169A      5.007528
     170A      5.008677   171A      5.238808   172A      5.250200
     173A      5.257557   174A      5.363640   175A      5.369659
     176A      5.484989

    Final Occupation by Irrep:
              A
    DOCC [    16 ]
    SOCC [     1 ]

  @DF-UKS Final Energy:  -157.81300717032150

   => Energetics <=

    Nuclear Repulsion Energy =            125.4320885205106038
    One-Electron Energy =                -458.8198678349065744
    Two-Electron Energy =                 195.8859496654819168
    DFT Exchange-Correlation Energy =     -20.3111775214074584
    Empirical Dispersion Energy =           0.0000000000000000
    VV10 Nonlocal Energy =                  0.0000000000000000
    Total Energy =                       -157.8130071703214981

  UHF NO Occupations:
  HONO-2 :   15  A 1.9996034
  HONO-1 :   16  A 1.9989797
  HONO-0 :   17  A 1.0000000
  LUNO+0 :   18  A 0.0010203
  LUNO+1 :   19  A 0.0003966
  LUNO+2 :   20  A 0.0001980
  LUNO+3 :   21  A 0.0001979

Computation Completed

Properties will be evaluated at   0.000000,   0.000000,   0.000000 [a0]

Properties computed using the SCF density matrix

  Nuclear Dipole Moment: [e a0]
     X:     0.8268      Y:    -0.0000      Z:     0.0025

  Electronic Dipole Moment: [e a0]
     X:    -0.7482      Y:     0.0000      Z:    -0.0049

  Dipole Moment: [e a0]
     X:     0.0785      Y:     0.0000      Z:    -0.0024     Total:     0.0786

  Dipole Moment: [D]
     X:     0.1996      Y:     0.0000      Z:    -0.0062     Total:     0.1997

*** tstop() called on n065 at Fri Nov  5 14:55:07 2021
Module time:
	user time   =     543.58 seconds =       9.06 minutes
	system time =      11.80 seconds =       0.20 minutes
	total time  =        140 seconds =       2.33 minutes
Total time:
	user time   =     543.58 seconds =       9.06 minutes
	system time =      11.80 seconds =       0.20 minutes
	total time  =        140 seconds =       2.33 minutes
Grab this energy -157.8130071703215
    Psi4 stopped on: Friday, 05 November 2021 02:55PM
    Psi4 wall time for execution: 0:02:19.66

*** Psi4 exiting successfully. Buy a developer a beer!
