                               Psi4 1.4a2.dev629

  ==> Input File <==

--------------------------------------------------------------------------
import os
memory 14 GB

molecule {
 C   -0.3233402012   -0.0000030487    0.0019958501
 C    0.0612737147   -1.4017850485   -2.4267029380
 C    0.0610194643    2.8017586473    0.0011064698
 C    0.0610072102   -1.3999714921    2.4260591746
 H    2.0867288904   -1.6518885532   -2.8475352369
 H   -0.7611385647   -0.3839662833   -4.0242055184
 H   -0.7707040818   -3.2919168070   -2.3523200517
 H    2.0867970212    3.2881041472   -0.0005578666
 H   -0.7630112820    3.6856474745    1.6776874080
 H   -0.7682796239    3.6748599254   -1.6752948207
 H    2.0871232381   -1.6363037621    2.8473551357
 H   -0.7604272091   -3.2920682796    2.3456653377
 H   -0.7696564529   -0.3924912336    4.0267470561
units bohr
0 2
}

basis {

assign 6-31g_2dfp_

[ 6-31g_2dfp_ ]

spherical

!----------------------------------------------------------------------
! Basis Set Exchange
! Version v0.8.13
! https://www.basissetexchange.org
!----------------------------------------------------------------------
!   Basis set: 6-31G(2df,p)
! Description: 6-31G(2df,p)
!        Role: orbital
!     Version: 0  (Data from the original Basis Set Exchange)
!----------------------------------------------------------------------

****
H     0
S    3   1.00
     18.7311370              0.03349460
      2.8253937              0.23472695
      0.6401217              0.81375733
S    1   1.00
      0.1612778              1.00000000
P    1   1.00
      1.5000000              1.0000000
P    1   1.00
      0.3750000              1.0000000
****
B     0
S    6   1.00
   2068.8823000              0.0018663
    310.6495700              0.0142515
     70.6830330              0.0695516
     19.8610800              0.2325729
      6.2993048              0.4670787
      2.1270270              0.3634314
SP   3   1.00
      4.7279710             -0.1303938              0.0745976
      1.1903377             -0.1307889              0.3078467
      0.3594117              1.1309444              0.7434568
SP   1   1.00
      0.1267512              1.0000000              1.0000000
D    1   1.00
      0.8020000              1.0000000
D    1   1.00
      0.2005000              1.0000000
F    1   1.00
      0.5000000              1.0000000
****
C     0
S    6   1.00
   3047.5249000              0.0018347
    457.3695100              0.0140373
    103.9486900              0.0688426
     29.2101550              0.2321844
      9.2866630              0.4679413
      3.1639270              0.3623120
SP   3   1.00
      7.8682724             -0.1193324              0.0689991
      1.8812885             -0.1608542              0.3164240
      0.5442493              1.1434564              0.7443083
SP   1   1.00
      0.1687144              1.0000000              1.0000000
D    1   1.00
      1.2520000              1.0000000
D    1   1.00
      0.3130000              1.0000000
F    1   1.00
      0.8000000              1.0000000
****
N     0
S    6   1.00
   4173.5110000              0.0018348
    627.4579000              0.0139950
    142.9021000              0.0685870
     40.2343300              0.2322410
     12.8202100              0.4690700
      4.3904370              0.3604550
SP   3   1.00
     11.6263580             -0.1149610              0.0675800
      2.7162800             -0.1691180              0.3239070
      0.7722180              1.1458520              0.7408950
SP   1   1.00
      0.2120313              1.0000000              1.0000000
D    1   1.00
      1.8260000              1.0000000
D    1   1.00
      0.4565000              1.0000000
F    1   1.00
      1.0000000              1.0000000
****
O     0
S    6   1.00
   5484.6717000              0.0018311
    825.2349500              0.0139501
    188.0469600              0.0684451
     52.9645000              0.2327143
     16.8975700              0.4701930
      5.7996353              0.3585209
SP   3   1.00
     15.5396160             -0.1107775              0.0708743
      3.5999336             -0.1480263              0.3397528
      1.0137618              1.1307670              0.7271586
SP   1   1.00
      0.2700058              1.0000000              1.0000000
D    1   1.00
      2.5840000              1.0000000
D    1   1.00
      0.6460000              1.0000000
F    1   1.00
      1.4000000              1.0000000
****
F     0
S    6   1.00
   7001.7130900              0.0018196169
   1051.3660900              0.0139160796
    239.2856900              0.0684053245
     67.3974453              0.233185760
     21.5199573              0.471267439
      7.40310130             0.356618546
SP   3   1.00
     20.8479528             -0.108506975            0.0716287243
      4.80830834            -0.146451658            0.3459121030
      1.34406986             1.128688580            0.7224699570
SP   1   1.00
      0.358151393            1.0000000              1.0000000
D    1   1.00
      3.5000000              1.0000000
D    1   1.00
      0.8750000              1.0000000
F    1   1.00
      1.8500000              1.0000000
****
Al     0
S    6   1.00
  13983.1000000              0.00194267
   2098.7500000              0.0148599
    477.7050000              0.0728494
    134.3600000              0.2468300
     42.8709000              0.4872580
     14.5189000              0.3234960
SP   6   1.00
    239.6680000             -0.00292619             0.00460285
     57.4419000             -0.0374080              0.0331990
     18.2859000             -0.1144870              0.1362820
      6.5991400              0.1156350              0.3304760
      2.4904900              0.6125950              0.4491460
      0.9445400              0.3937990              0.2657040
SP   3   1.00
      1.2779000             -0.2276060             -0.0175130
      0.3975900              0.00144583             0.2445330
      0.1600950              1.0927900              0.8049340
SP   1   1.00
      0.0556577              1.0000000              1.0000000
D    1   1.00
      0.6500000              1.0000000
D    1   1.00
      0.1625000              1.0000000
F    1   1.00
      0.2500000              1.0000000
****
Si     0
S    6   1.00
  16115.9000000              0.00195948
   2425.5800000              0.01492880
    553.8670000              0.07284780
    156.3400000              0.24613000
     50.0683000              0.48591400
     17.0178000              0.32500200
SP   6   1.00
    292.7180000             -0.00278094             0.00443826
     69.8731000             -0.03571460             0.03266790
     22.3363000             -0.11498500             0.13472100
      8.1503900              0.09356340             0.32867800
      3.1345800              0.60301700             0.44964000
      1.2254300              0.41895900             0.26137200
SP   3   1.00
      1.7273800             -0.24463000            -0.01779510
      0.5729220              0.00431572             0.25353900
      0.2221920              1.09818000             0.80066900
SP   1   1.00
      0.0778369              1.00000000             1.00000000
D    1   1.00
      0.9000000              1.0000000
D    1   1.00
      0.2250000              1.0000000
F    1   1.00
      0.3200000              1.0000000
****
P     0
S    6   1.00
  19413.3000000              0.0018516
   2909.4200000              0.0142062
    661.3640000              0.0699995
    185.7590000              0.2400790
     59.1943000              0.4847620
     20.0310000              0.3352000
SP   6   1.00
    339.4780000             -0.00278217             0.00456462
     81.0101000             -0.0360499              0.03369360
     25.8780000             -0.1166310              0.13975500
      9.4522100              0.0968328              0.33936200
      3.6656600              0.6144180              0.45092100
      1.4674600              0.4037980              0.23858600
SP   3   1.00
      2.1562300             -0.2529230             -0.01776530
      0.7489970              0.0328517              0.27405800
      0.2831450              1.0812500              0.78542100
SP   1   1.00
      0.0998317              1.0000000              1.00000000
D    1   1.00
      1.1000000              1.0000000
D    1   1.00
      0.2750000              1.0000000
F    1   1.00
      0.4500000              1.0000000
****
S     0
S    6   1.00
  21917.1000000              0.0018690
   3301.4900000              0.0142300
    754.1460000              0.0696960
    212.7110000              0.2384870
     67.9896000              0.4833070
     23.0515000              0.3380740
SP   6   1.00
    423.7350000             -0.0023767              0.0040610
    100.7100000             -0.0316930              0.0306810
     32.1599000             -0.1133170              0.1304520
     11.8079000              0.0560900              0.3272050
      4.6311000              0.5922550              0.4528510
      1.8702500              0.4550060              0.2560420
SP   3   1.00
      2.6158400             -0.2503740             -0.0145110
      0.9221670              0.0669570              0.3102630
      0.3412870              1.0545100              0.7544830
SP   1   1.00
      0.1171670              1.0000000              1.0000000
D    1   1.00
      1.3000000              1.0000000
D    1   1.00
      0.3250000              1.0000000
F    1   1.00
      0.5500000              1.0000000
****
Cl     0
S    6   1.00
  25180.1000000              0.0018330
   3780.3500000              0.0140340
    860.4740000              0.0690970
    242.1450000              0.2374520
     77.3349000              0.4830340
     26.2470000              0.3398560
SP   6   1.00
    491.7650000             -0.0022974              0.0039894
    116.9840000             -0.0307140              0.0303180
     37.4153000             -0.1125280              0.1298800
     13.7834000              0.0450160              0.3279510
      5.4521500              0.5893530              0.4535270
      2.2258800              0.4652060              0.2521540
SP   3   1.00
      3.1864900             -0.2518300             -0.0142990
      1.1442700              0.0615890              0.3235720
      0.4203770              1.0601800              0.7435070
SP   1   1.00
      0.1426570              1.0000000              1.0000000
D    1   1.00
      1.5000000              1.0000000
D    1   1.00
      0.3750000              1.0000000
F    1   1.00
      0.7000000              1.0000000
****
}

set {
reference uhf
freeze_core true
e_convergence 10
d_convergence 10
dft_spherical_points 1202
dft_radial_points 99
}

e = energy('b3lyp')

print_out('Grab this energy {0}'.format(e))
--------------------------------------------------------------------------

    Molecular point group: c1

    Geometry (in Bohr), charge = 0, multiplicity = 2:

       Center              X                  Y                   Z               Mass
    ------------   -----------------  -----------------  -----------------  -----------------
         C           -0.323340234491    -0.000002437901     0.001522314415    12.000000000000
         C            0.061273681409    -1.401784437701    -2.427176473685    12.000000000000
         C            0.061019431009     2.801759258099     0.000632934115    12.000000000000
         C            0.061007176909    -1.399970881301     2.425585638915    12.000000000000
         H            2.086728857109    -1.651887942401    -2.848008772585     1.007825032230
         H           -0.761138597991    -0.383965672501    -4.024679054085     1.007825032230
         H           -0.770704115091    -3.291916196201    -2.352793587385     1.007825032230
         H            2.086796987909     3.288104757999    -0.001031402285     1.007825032230
         H           -0.763011315291     3.685648085299     1.677213872315     1.007825032230
         H           -0.768279657191     3.674860536199    -1.675768356385     1.007825032230
         H            2.087123204809    -1.636303151301     2.846881600015     1.007825032230
         H           -0.760427242391    -3.292067668801     2.345191802015     1.007825032230
         H           -0.769656486191    -0.392490622801     4.026273520415     1.007825032230

  Charge       = 0
  Multiplicity = 2
  Basis Set: ANONYMOUSB1F3CDCB
    Blend: 6-31G_2DFP_
  Basis Set: (ANONYMOUSB1F3CDCB AUX)
    Blend: DEF2-UNIVERSAL-JKFIT

    Orbital Energies [Eh]
    ---------------------

    Alpha Occupied:

       1A    -10.180342     2A    -10.167174     3A    -10.167016
       4A    -10.166855     5A     -0.797767     6A     -0.686308
       7A     -0.686065     8A     -0.530775     9A     -0.441129
      10A     -0.434739    11A     -0.434599    12A     -0.382634
      13A     -0.382564    14A     -0.363612    15A     -0.338064
      16A     -0.337932    17A     -0.168960

    Alpha Virtual:

      18A      0.076073    19A      0.134125    20A      0.134188
      21A      0.142565    22A      0.142688    23A      0.154880
      24A      0.178738    25A      0.178817    26A      0.203547
      27A      0.214804    28A      0.275717    29A      0.276254
      30A      0.399189    31A      0.399261    32A      0.403353
      33A      0.424043    34A      0.424154    35A      0.456592
      36A      0.495330    37A      0.495449    38A      0.512146
      39A      0.513993    40A      0.578529    41A      0.579105
      42A      0.591338    43A      0.591925    44A      0.602574
      45A      0.624758    46A      0.631778    47A      0.636212
      48A      0.636289    49A      0.663379    50A      0.663444
      51A      0.683823    52A      0.683881    53A      0.734994
      54A      0.825191    55A      0.825622    56A      0.853914
      57A      0.914880    58A      0.915155    59A      0.944009
      60A      0.944717    61A      0.960612    62A      0.961989
      63A      1.003474    64A      1.127888    65A      1.128318
      66A      1.142223    67A      1.163173    68A      1.163382
      69A      1.223326    70A      1.274330    71A      1.274641
      72A      1.279347    73A      1.324353    74A      1.324364
      75A      1.355979    76A      1.365887    77A      1.366212
      78A      1.392470    79A      1.403742    80A      1.404367
      81A      1.416718    82A      1.417511    83A      1.427907
      84A      1.491467    85A      1.499101    86A      1.542554
      87A      1.543101    88A      1.574435    89A      1.574450
      90A      1.669832    91A      1.739047    92A      1.739794
      93A      1.768312    94A      1.830907    95A      1.831890
      96A      1.971725    97A      2.018029    98A      2.019040
      99A      2.019323   100A      2.051833   101A      2.053443
     102A      2.738206   103A      2.738762   104A      2.790922
     105A      2.811416   106A      2.889673   107A      2.890202
     108A      2.894991   109A      2.929476   110A      2.929519
     111A      2.958993   112A      2.964223   113A      2.964526
     114A      3.034008   115A      3.071150   116A      3.071414
     117A      3.084350   118A      3.168582   119A      3.168987
     120A      3.180584   121A      3.285270   122A      3.285358
     123A      3.326830   124A      3.327486   125A      3.375622
     126A      3.489994   127A      3.490310   128A      3.514008
     129A      3.525314   130A      3.568047   131A      3.568662
     132A      3.575248   133A      3.666196   134A      3.666536
     135A      3.679628   136A      3.693713   137A      3.694578
     138A      3.775564   139A      3.778042   140A      3.789153
     141A      3.911963   142A      3.912496   143A      4.034453
     144A      4.110103   145A      4.112622   146A      4.147231
     147A      4.148989   148A      4.173283   149A      4.202624
     150A      4.203034   151A      4.203131   152A      4.210860
     153A      4.315156   154A      4.316729   155A      4.359027
     156A      4.424204   157A      4.424713   158A      4.443444
     159A      4.516416   160A      4.517243   161A      4.577929
     162A      4.578591   163A      4.617527   164A      4.709446
     165A      4.773519   166A      4.775656   167A      4.836950
     168A      4.962859   169A      5.002600   170A      5.003306
     171A      5.228039   172A      5.246342   173A      5.247280
     174A      5.354780   175A      5.356217   176A      5.479354

    Beta Occupied:

       1A    -10.167932     2A    -10.167775     3A    -10.167617
       4A    -10.166519     5A     -0.781092     6A     -0.684103
       7A     -0.683875     8A     -0.511747     9A     -0.431105
      10A     -0.430983    11A     -0.421818    12A     -0.376715
      13A     -0.376654    14A     -0.362595    15A     -0.333182
      16A     -0.333060

    Beta Virtual:

      17A     -0.025742    18A      0.077082    19A      0.135022
      20A      0.135069    21A      0.144435    22A      0.144560
      23A      0.163339    24A      0.182427    25A      0.182470
      26A      0.215032    27A      0.218930    28A      0.282075
      29A      0.282592    30A      0.400362    31A      0.400433
      32A      0.419790    33A      0.426854    34A      0.426967
      35A      0.468500    36A      0.497594    37A      0.497707
      38A      0.513894    39A      0.556325    40A      0.584077
      41A      0.584656    42A      0.597532    43A      0.598091
      44A      0.609995    45A      0.628134    46A      0.631935
      47A      0.639478    48A      0.639595    49A      0.666941
      50A      0.667010    51A      0.686437    52A      0.686538
      53A      0.757517    54A      0.830338    55A      0.830813
      56A      0.855268    57A      0.922885    58A      0.923092
      59A      0.945942    60A      0.953546    61A      0.965976
      62A      0.967243    63A      1.008715    64A      1.131842
      65A      1.132421    66A      1.155603    67A      1.168325
      68A      1.168373    69A      1.232298    70A      1.279929
      71A      1.280237    72A      1.285101    73A      1.329334
      74A      1.329361    75A      1.365391    76A      1.371159
      77A      1.371425    78A      1.393536    79A      1.407180
      80A      1.407858    81A      1.421774    82A      1.422557
      83A      1.428176    84A      1.492529    85A      1.509531
      86A      1.546961    87A      1.547510    88A      1.582309
      89A      1.582321    90A      1.674678    91A      1.744801
      92A      1.745564    93A      1.779092    94A      1.834765
      95A      1.835743    96A      1.972585    97A      2.025381
      98A      2.025501    99A      2.039691   100A      2.058520
     101A      2.060184   102A      2.746559   103A      2.747082
     104A      2.811783   105A      2.816103   106A      2.902436
     107A      2.902848   108A      2.924666   109A      2.931970
     110A      2.931986   111A      2.960055   112A      2.968785
     113A      2.969052   114A      3.041943   115A      3.081069
     116A      3.081315   117A      3.086166   118A      3.184303
     119A      3.184775   120A      3.188258   121A      3.290044
     122A      3.290181   123A      3.330652   124A      3.331274
     125A      3.383441   126A      3.492740   127A      3.493021
     128A      3.512380   129A      3.528362   130A      3.574919
     131A      3.581431   132A      3.582135   133A      3.671068
     134A      3.671192   135A      3.692923   136A      3.725645
     137A      3.725880   138A      3.780135   139A      3.782523
     140A      3.817700   141A      3.921797   142A      3.922295
     143A      4.045340   144A      4.117031   145A      4.119327
     146A      4.154417   147A      4.156225   148A      4.187337
     149A      4.208943   150A      4.209066   151A      4.210621
     152A      4.215336   153A      4.322569   154A      4.324189
     155A      4.362395   156A      4.432466   157A      4.432881
     158A      4.446329   159A      4.524216   160A      4.525022
     161A      4.588532   162A      4.589188   163A      4.624722
     164A      4.719790   165A      4.780515   166A      4.782566
     167A      4.839869   168A      4.967653   169A      5.006630
     170A      5.007354   171A      5.233754   172A      5.248118
     173A      5.249072   174A      5.361239   175A      5.362719
     176A      5.481675

    Final Occupation by Irrep:
              A
    DOCC [    16 ]
    SOCC [     1 ]

  @DF-UKS Final Energy:  -157.81306939268521

   => Energetics <=

    Nuclear Repulsion Energy =            125.3946064332602077
    One-Electron Energy =                -458.7488792872999284
    Two-Electron Energy =                 195.8483458473147607
    DFT Exchange-Correlation Energy =     -20.3071423859602369
    Empirical Dispersion Energy =           0.0000000000000000
    VV10 Nonlocal Energy =                  0.0000000000000000
    Total Energy =                       -157.8130693926852075

  UHF NO Occupations:
  HONO-2 :   15  A 1.9996009
  HONO-1 :   16  A 1.9989804
  HONO-0 :   17  A 1.0000000
  LUNO+0 :   18  A 0.0010196
  LUNO+1 :   19  A 0.0003991
  LUNO+2 :   20  A 0.0001979
  LUNO+3 :   21  A 0.0001972

Computation Completed

Properties will be evaluated at   0.000000,   0.000000,   0.000000 [a0]

Properties computed using the SCF density matrix

  Nuclear Dipole Moment: [e a0]
     X:     0.8272      Y:    -0.0000      Z:    -0.0033

  Electronic Dipole Moment: [e a0]
     X:    -0.7493      Y:     0.0000      Z:     0.0034

  Dipole Moment: [e a0]
     X:     0.0779      Y:     0.0000      Z:     0.0000     Total:     0.0779

  Dipole Moment: [D]
     X:     0.1980      Y:     0.0000      Z:     0.0001     Total:     0.1980

*** tstop() called on n091 at Fri Nov  5 15:35:53 2021
Module time:
	user time   =     496.19 seconds =       8.27 minutes
	system time =       4.56 seconds =       0.08 minutes
	total time  =        126 seconds =       2.10 minutes
Total time:
	user time   =     496.19 seconds =       8.27 minutes
	system time =       4.56 seconds =       0.08 minutes
	total time  =        126 seconds =       2.10 minutes
Grab this energy -157.8130693926852
    Psi4 stopped on: Friday, 05 November 2021 03:35PM
    Psi4 wall time for execution: 0:02:05.91

*** Psi4 exiting successfully. Buy a developer a beer!
