                               Psi4 1.4a2.dev629

  ==> Input File <==

--------------------------------------------------------------------------
import os
memory 14 GB

molecule {
 C   -0.3230382791    0.0004311971   -0.0000000000
 C    0.0608475961   -1.3971411913   -2.4223120827
 C    0.0611910935    2.7962086920   -0.0000000000
 C    0.0608475961   -1.3971411913    2.4223120827
 H    2.0871021405   -1.6381773473   -2.8432393824
 H   -0.7626405821   -0.3873886351   -4.0182096868
 H   -0.7683548614   -3.2904898919   -2.3439165272
 H    2.0855953527    3.2815202140   -0.0000000000
 H   -0.7651323150    3.6741048571    1.6770321954
 H   -0.7651323150    3.6741048571   -1.6770321954
 H    2.0871021405   -1.6381773473    2.8432393824
 H   -0.7683548614   -3.2904898919    2.3439165272
 H   -0.7626405821   -0.3873886351    4.0182096868
units bohr
0 2
}

basis {

assign 6-31g_2dfp_

[ 6-31g_2dfp_ ]

spherical

!----------------------------------------------------------------------
! Basis Set Exchange
! Version v0.8.13
! https://www.basissetexchange.org
!----------------------------------------------------------------------
!   Basis set: 6-31G(2df,p)
! Description: 6-31G(2df,p)
!        Role: orbital
!     Version: 0  (Data from the original Basis Set Exchange)
!----------------------------------------------------------------------

****
H     0
S    3   1.00
     18.7311370              0.03349460
      2.8253937              0.23472695
      0.6401217              0.81375733
S    1   1.00
      0.1612778              1.00000000
P    1   1.00
      1.5000000              1.0000000
P    1   1.00
      0.3750000              1.0000000
****
B     0
S    6   1.00
   2068.8823000              0.0018663
    310.6495700              0.0142515
     70.6830330              0.0695516
     19.8610800              0.2325729
      6.2993048              0.4670787
      2.1270270              0.3634314
SP   3   1.00
      4.7279710             -0.1303938              0.0745976
      1.1903377             -0.1307889              0.3078467
      0.3594117              1.1309444              0.7434568
SP   1   1.00
      0.1267512              1.0000000              1.0000000
D    1   1.00
      0.8020000              1.0000000
D    1   1.00
      0.2005000              1.0000000
F    1   1.00
      0.5000000              1.0000000
****
C     0
S    6   1.00
   3047.5249000              0.0018347
    457.3695100              0.0140373
    103.9486900              0.0688426
     29.2101550              0.2321844
      9.2866630              0.4679413
      3.1639270              0.3623120
SP   3   1.00
      7.8682724             -0.1193324              0.0689991
      1.8812885             -0.1608542              0.3164240
      0.5442493              1.1434564              0.7443083
SP   1   1.00
      0.1687144              1.0000000              1.0000000
D    1   1.00
      1.2520000              1.0000000
D    1   1.00
      0.3130000              1.0000000
F    1   1.00
      0.8000000              1.0000000
****
N     0
S    6   1.00
   4173.5110000              0.0018348
    627.4579000              0.0139950
    142.9021000              0.0685870
     40.2343300              0.2322410
     12.8202100              0.4690700
      4.3904370              0.3604550
SP   3   1.00
     11.6263580             -0.1149610              0.0675800
      2.7162800             -0.1691180              0.3239070
      0.7722180              1.1458520              0.7408950
SP   1   1.00
      0.2120313              1.0000000              1.0000000
D    1   1.00
      1.8260000              1.0000000
D    1   1.00
      0.4565000              1.0000000
F    1   1.00
      1.0000000              1.0000000
****
O     0
S    6   1.00
   5484.6717000              0.0018311
    825.2349500              0.0139501
    188.0469600              0.0684451
     52.9645000              0.2327143
     16.8975700              0.4701930
      5.7996353              0.3585209
SP   3   1.00
     15.5396160             -0.1107775              0.0708743
      3.5999336             -0.1480263              0.3397528
      1.0137618              1.1307670              0.7271586
SP   1   1.00
      0.2700058              1.0000000              1.0000000
D    1   1.00
      2.5840000              1.0000000
D    1   1.00
      0.6460000              1.0000000
F    1   1.00
      1.4000000              1.0000000
****
F     0
S    6   1.00
   7001.7130900              0.0018196169
   1051.3660900              0.0139160796
    239.2856900              0.0684053245
     67.3974453              0.233185760
     21.5199573              0.471267439
      7.40310130             0.356618546
SP   3   1.00
     20.8479528             -0.108506975            0.0716287243
      4.80830834            -0.146451658            0.3459121030
      1.34406986             1.128688580            0.7224699570
SP   1   1.00
      0.358151393            1.0000000              1.0000000
D    1   1.00
      3.5000000              1.0000000
D    1   1.00
      0.8750000              1.0000000
F    1   1.00
      1.8500000              1.0000000
****
Al     0
S    6   1.00
  13983.1000000              0.00194267
   2098.7500000              0.0148599
    477.7050000              0.0728494
    134.3600000              0.2468300
     42.8709000              0.4872580
     14.5189000              0.3234960
SP   6   1.00
    239.6680000             -0.00292619             0.00460285
     57.4419000             -0.0374080              0.0331990
     18.2859000             -0.1144870              0.1362820
      6.5991400              0.1156350              0.3304760
      2.4904900              0.6125950              0.4491460
      0.9445400              0.3937990              0.2657040
SP   3   1.00
      1.2779000             -0.2276060             -0.0175130
      0.3975900              0.00144583             0.2445330
      0.1600950              1.0927900              0.8049340
SP   1   1.00
      0.0556577              1.0000000              1.0000000
D    1   1.00
      0.6500000              1.0000000
D    1   1.00
      0.1625000              1.0000000
F    1   1.00
      0.2500000              1.0000000
****
Si     0
S    6   1.00
  16115.9000000              0.00195948
   2425.5800000              0.01492880
    553.8670000              0.07284780
    156.3400000              0.24613000
     50.0683000              0.48591400
     17.0178000              0.32500200
SP   6   1.00
    292.7180000             -0.00278094             0.00443826
     69.8731000             -0.03571460             0.03266790
     22.3363000             -0.11498500             0.13472100
      8.1503900              0.09356340             0.32867800
      3.1345800              0.60301700             0.44964000
      1.2254300              0.41895900             0.26137200
SP   3   1.00
      1.7273800             -0.24463000            -0.01779510
      0.5729220              0.00431572             0.25353900
      0.2221920              1.09818000             0.80066900
SP   1   1.00
      0.0778369              1.00000000             1.00000000
D    1   1.00
      0.9000000              1.0000000
D    1   1.00
      0.2250000              1.0000000
F    1   1.00
      0.3200000              1.0000000
****
P     0
S    6   1.00
  19413.3000000              0.0018516
   2909.4200000              0.0142062
    661.3640000              0.0699995
    185.7590000              0.2400790
     59.1943000              0.4847620
     20.0310000              0.3352000
SP   6   1.00
    339.4780000             -0.00278217             0.00456462
     81.0101000             -0.0360499              0.03369360
     25.8780000             -0.1166310              0.13975500
      9.4522100              0.0968328              0.33936200
      3.6656600              0.6144180              0.45092100
      1.4674600              0.4037980              0.23858600
SP   3   1.00
      2.1562300             -0.2529230             -0.01776530
      0.7489970              0.0328517              0.27405800
      0.2831450              1.0812500              0.78542100
SP   1   1.00
      0.0998317              1.0000000              1.00000000
D    1   1.00
      1.1000000              1.0000000
D    1   1.00
      0.2750000              1.0000000
F    1   1.00
      0.4500000              1.0000000
****
S     0
S    6   1.00
  21917.1000000              0.0018690
   3301.4900000              0.0142300
    754.1460000              0.0696960
    212.7110000              0.2384870
     67.9896000              0.4833070
     23.0515000              0.3380740
SP   6   1.00
    423.7350000             -0.0023767              0.0040610
    100.7100000             -0.0316930              0.0306810
     32.1599000             -0.1133170              0.1304520
     11.8079000              0.0560900              0.3272050
      4.6311000              0.5922550              0.4528510
      1.8702500              0.4550060              0.2560420
SP   3   1.00
      2.6158400             -0.2503740             -0.0145110
      0.9221670              0.0669570              0.3102630
      0.3412870              1.0545100              0.7544830
SP   1   1.00
      0.1171670              1.0000000              1.0000000
D    1   1.00
      1.3000000              1.0000000
D    1   1.00
      0.3250000              1.0000000
F    1   1.00
      0.5500000              1.0000000
****
Cl     0
S    6   1.00
  25180.1000000              0.0018330
   3780.3500000              0.0140340
    860.4740000              0.0690970
    242.1450000              0.2374520
     77.3349000              0.4830340
     26.2470000              0.3398560
SP   6   1.00
    491.7650000             -0.0022974              0.0039894
    116.9840000             -0.0307140              0.0303180
     37.4153000             -0.1125280              0.1298800
     13.7834000              0.0450160              0.3279510
      5.4521500              0.5893530              0.4535270
      2.2258800              0.4652060              0.2521540
SP   3   1.00
      3.1864900             -0.2518300             -0.0142990
      1.1442700              0.0615890              0.3235720
      0.4203770              1.0601800              0.7435070
SP   1   1.00
      0.1426570              1.0000000              1.0000000
D    1   1.00
      1.5000000              1.0000000
D    1   1.00
      0.3750000              1.0000000
F    1   1.00
      0.7000000              1.0000000
****
}

set {
reference uhf
freeze_core true
e_convergence 10
d_convergence 10
dft_spherical_points 1202
dft_radial_points 99
}

e = energy('b3lyp')

print_out('Grab this energy {0}'.format(e))
--------------------------------------------------------------------------

    Molecular point group: cs

    Geometry (in Bohr), charge = 0, multiplicity = 2:

       Center              X                  Y                   Z               Mass
    ------------   -----------------  -----------------  -----------------  -----------------
         C           -0.323016705445    -0.000022446265     0.000000000000    12.000000000000
         C            0.060869169755    -1.397594834665    -2.422312082700    12.000000000000
         C            0.061212667155     2.795755048635     0.000000000000    12.000000000000
         C            0.060869169755    -1.397594834665     2.422312082700    12.000000000000
         H            2.087123714155    -1.638630990665    -2.843239382400     1.007825032230
         H           -0.762619008445    -0.387842278465    -4.018209686800     1.007825032230
         H           -0.768333287745    -3.290943535265    -2.343916527200     1.007825032230
         H            2.085616926355     3.281066570635     0.000000000000     1.007825032230
         H           -0.765110741345     3.673651213735     1.677032195400     1.007825032230
         H           -0.765110741345     3.673651213735    -1.677032195400     1.007825032230
         H            2.087123714155    -1.638630990665     2.843239382400     1.007825032230
         H           -0.768333287745    -3.290943535265     2.343916527200     1.007825032230
         H           -0.762619008445    -0.387842278465     4.018209686800     1.007825032230

  Charge       = 0
  Multiplicity = 2
  Basis Set: ANONYMOUS97E4C9EA
    Blend: 6-31G_2DFP_
  Basis Set: (ANONYMOUS97E4C9EA AUX)
    Blend: DEF2-UNIVERSAL-JKFIT

    Orbital Energies [Eh]
    ---------------------

    Alpha Occupied:

       1Ap   -10.179568     2Ap   -10.166673     1App  -10.166665
       3Ap   -10.166622     4Ap    -0.798816     2App   -0.686551
       5Ap    -0.686429     6Ap    -0.530776     7Ap    -0.441723
       8Ap    -0.435336     3App   -0.434965     9Ap    -0.382697
       4App   -0.382650     5App   -0.363493     6App   -0.338348
      10Ap    -0.338024    11Ap    -0.168636

    Alpha Virtual:

      12Ap     0.076041    13Ap     0.134077     7App    0.134308
       8App    0.142625    14Ap     0.143037    15Ap     0.154945
       9App    0.178859    16Ap     0.179049    17Ap     0.204641
      10App    0.215149    11App    0.276396    18Ap     0.276616
      19Ap     0.398954    12App    0.399449    20Ap     0.403136
      21Ap     0.423660    13App    0.423990    22Ap     0.457176
      23Ap     0.495566    14App    0.495671    15App    0.512498
      24Ap     0.514381    16App    0.579438    25Ap     0.579555
      17App    0.592036    26Ap     0.592320    27Ap     0.603034
      28Ap     0.625125    18App    0.632123    19App    0.636788
      29Ap     0.637395    20App    0.663680    30Ap     0.664092
      31Ap     0.684117    21App    0.684515    32Ap     0.734788
      22App    0.825000    33Ap     0.825503    23App    0.854916
      34Ap     0.915544    24App    0.915965    35Ap     0.944018
      25App    0.945465    36Ap     0.962178    26App    0.962335
      37Ap     1.004586    38Ap     1.128722    27App    1.129293
      39Ap     1.142571    40Ap     1.163968    28App    1.164102
      41Ap     1.224230    29App    1.275152    42Ap     1.275636
      43Ap     1.279871    30App    1.324473    44Ap     1.324899
      45Ap     1.356161    31App    1.367579    46Ap     1.368192
      32App    1.393956    33App    1.403731    47Ap     1.403784
      48Ap     1.416798    34App    1.418179    35App    1.429310
      36App    1.492720    49Ap     1.499651    50Ap     1.543548
      37App    1.543592    38App    1.575407    51Ap     1.575802
      52Ap     1.669772    39App    1.739336    53Ap     1.740744
      54Ap     1.769843    55Ap     1.831808    40App    1.833353
      41App    1.973143    42App    2.019589    56Ap     2.019814
      57Ap     2.021538    43App    2.056603    58Ap     2.057705
      44App    2.738895    59Ap     2.739263    60Ap     2.792077
      45App    2.814156    46App    2.890923    61Ap     2.891248
      62Ap     2.896453    47App    2.929673    63Ap     2.929696
      48App    2.959196    49App    2.964062    64Ap     2.964120
      65Ap     3.033968    66Ap     3.071714    50App    3.072721
      51App    3.086023    52App    3.169215    67Ap     3.170048
      68Ap     3.182488    69Ap     3.285657    53App    3.285958
      54App    3.327237    70Ap     3.327959    71Ap     3.374237
      72Ap     3.491687    55App    3.492197    56App    3.514790
      73Ap     3.527649    74Ap     3.567904    57App    3.568774
      58App    3.577258    59App    3.665901    75Ap     3.666819
      76Ap     3.681616    77Ap     3.695386    60App    3.695811
      61App    3.781180    78Ap     3.781373    79Ap     3.789809
      80Ap     3.913726    62App    3.914892    81Ap     4.036292
      63App    4.113568    82Ap     4.114752    83Ap     4.148446
      64App    4.149275    84Ap     4.174555    85Ap     4.204078
      86Ap     4.204677    65App    4.206083    66App    4.212578
      87Ap     4.316853    67App    4.318169    68App    4.361494
      69App    4.425991    88Ap     4.427071    70App    4.445886
      71App    4.518800    89Ap     4.520886    72App    4.581837
      90Ap     4.581838    91Ap     4.624905    92Ap     4.714218
      73App    4.780043    93Ap     4.782043    74App    4.840852
      94Ap     4.965931    75App    5.004206    95Ap     5.004945
      96Ap     5.228611    76App    5.248271    97Ap     5.248587
      77App    5.356875    98Ap     5.359408    78App    5.485177

    Beta Occupied:

       1Ap   -10.167428     1App  -10.167419     2Ap   -10.167393
       3Ap   -10.165773     4Ap    -0.782119     2App   -0.684335
       5Ap    -0.684209     6Ap    -0.511848     7Ap    -0.431692
       3App   -0.431316     8Ap    -0.422321     9Ap    -0.376741
       4App   -0.376703     5App   -0.362466     6App   -0.333471
      10Ap    -0.333156

    Beta Virtual:

      11Ap    -0.025712    12Ap     0.077061    13Ap     0.134938
       7App    0.135216     8App    0.144496    14Ap     0.144963
      15Ap     0.163448     9App    0.182557    16Ap     0.182745
      10App    0.215386    17Ap     0.219843    11App    0.282675
      18Ap     0.282894    19Ap     0.400153    12App    0.400655
      20Ap     0.419485    21Ap     0.426462    13App    0.426791
      22Ap     0.469439    23Ap     0.497835    14App    0.497950
      15App    0.514248    24Ap     0.556648    16App    0.584997
      25Ap     0.585111    17App    0.598129    26Ap     0.598459
      27Ap     0.610501    28Ap     0.628564    18App    0.632290
      19App    0.640166    29Ap     0.640732    20App    0.667219
      30Ap     0.667597    31Ap     0.686857    21App    0.687206
      32Ap     0.757132    22App    0.830198    33Ap     0.830677
      23App    0.856306    34Ap     0.923549    24App    0.923930
      25App    0.947304    35Ap     0.952853    36Ap     0.967493
      26App    0.967684    37Ap     1.009752    38Ap     1.132755
      27App    1.133316    39Ap     1.155964    40Ap     1.169047
      28App    1.169172    41Ap     1.233340    29App    1.280770
      42Ap     1.281286    43Ap     1.285559    30App    1.329463
      44Ap     1.329884    45Ap     1.365608    31App    1.372876
      46Ap     1.373359    32App    1.395023    33App    1.407149
      47Ap     1.407247    48Ap     1.421950    34App    1.423230
      35App    1.429612    36App    1.493768    49Ap     1.510160
      50Ap     1.547872    37App    1.547974    38App    1.583342
      51Ap     1.583741    52Ap     1.674625    39App    1.745087
      53Ap     1.746526    54Ap     1.780645    55Ap     1.835677
      40App    1.837229    41App    1.974007    42App    2.026028
      56Ap     2.027102    57Ap     2.042070    43App    2.063330
      58Ap     2.064467    44App    2.747123    59Ap     2.747515
      45App    2.814573    60Ap     2.817193    46App    2.903331
      61Ap     2.903748    62Ap     2.926225    63Ap     2.932302
      47App    2.932377    48App    2.960287    49App    2.968641
      64Ap     2.968733    65Ap     3.041990    66Ap     3.081712
      50App    3.082587    51App    3.087986    52App    3.184892
      67Ap     3.185649    68Ap     3.190120    69Ap     3.290621
      53App    3.290944    54App    3.330931    70Ap     3.331723
      71Ap     3.382040    72Ap     3.494422    55App    3.494910
      56App    3.513145    73Ap     3.530646    57App    3.577141
      74Ap     3.581170    58App    3.582191    59App    3.670672
      75Ap     3.671341    76Ap     3.694902    77Ap     3.727005
      60App    3.727089    61App    3.785710    78Ap     3.785979
      79Ap     3.818212    80Ap     3.923480    62App    3.924782
      81Ap     4.047115    63App    4.119893    82Ap     4.121500
      83Ap     4.155639    64App    4.156901    84Ap     4.188707
      85Ap     4.210624    65App    4.211970    86Ap     4.212122
      66App    4.217148    87Ap     4.324369    67App    4.325602
      68App    4.364835    69App    4.434329    88Ap     4.435373
      70App    4.448785    71App    4.526711    89Ap     4.528811
      72App    4.592425    90Ap     4.592490    91Ap     4.632078
      92Ap     4.724645    73App    4.787025    93Ap     4.788973
      74App    4.843767    94Ap     4.970749    75App    5.008287
      95Ap     5.009021    96Ap     5.234263    76App    5.250056
      97Ap     5.250500    77App    5.363417    98Ap     5.365930
      78App    5.487522

    Final Occupation by Irrep:
             Ap   App
    DOCC [    10,    6 ]
    SOCC [     1,    0 ]

  @DF-UKS Final Energy:  -157.81303053063476

   => Energetics <=

    Nuclear Repulsion Energy =            125.5761755370526629
    One-Electron Energy =                -459.1062864109366046
    Two-Electron Energy =                 196.0280348228458536
    DFT Exchange-Correlation Energy =     -20.3109544795966883
    Empirical Dispersion Energy =           0.0000000000000000
    VV10 Nonlocal Energy =                  0.0000000000000000
    Total Energy =                       -157.8130305306347623

  UHF NO Occupations:
  HONO-2 :    9 Ap 1.9995992
  HONO-1 :   10 Ap 1.9989874
  HONO-0 :   11 Ap 1.0000000
  LUNO+0 :   12 Ap 0.0010126
  LUNO+1 :   13 Ap 0.0004008
  LUNO+2 :   14 Ap 0.0001954
  LUNO+3 :    7App 0.0001954

Computation Completed

Properties will be evaluated at   0.000000,   0.000000,   0.000000 [a0]

Properties computed using the SCF density matrix

  Nuclear Dipole Moment: [e a0]
     X:     0.8273      Y:    -0.0032      Z:     0.0000

  Electronic Dipole Moment: [e a0]
     X:    -0.7503      Y:     0.0050      Z:     0.0000

  Dipole Moment: [e a0]
     X:     0.0770      Y:     0.0017      Z:     0.0000     Total:     0.0771

  Dipole Moment: [D]
     X:     0.1958      Y:     0.0044      Z:     0.0000     Total:     0.1959

*** tstop() called on n023 at Fri Nov  5 14:30:05 2021
Module time:
	user time   =     592.51 seconds =       9.88 minutes
	system time =      11.23 seconds =       0.19 minutes
	total time  =        152 seconds =       2.53 minutes
Total time:
	user time   =     592.51 seconds =       9.88 minutes
	system time =      11.23 seconds =       0.19 minutes
	total time  =        152 seconds =       2.53 minutes
Grab this energy -157.81303053063476
    Psi4 stopped on: Friday, 05 November 2021 02:30PM
    Psi4 wall time for execution: 0:02:31.87

*** Psi4 exiting successfully. Buy a developer a beer!
