                               Psi4 1.4a2.dev629

  ==> Input File <==

--------------------------------------------------------------------------
import os
memory 14 GB

molecule {
 C   -0.3233413255   -0.0000041941    0.0044258841
 C    0.0619626568   -1.4028290537   -2.4273550997
 C    0.0610182515    2.8017569274    0.0024063380
 C    0.0603161040   -1.3989264984    2.4254085462
 H    2.0889673955   -1.6460540329   -2.8500824431
 H   -0.7661067653   -0.3879532560   -4.0233801089
 H   -0.7632909892   -3.2967720147   -2.3538150214
 H    2.0867953883    3.2881041745    0.0007412410
 H   -0.7626573399    3.6887726087    1.6790244611
 H   -0.7686287240    3.6717372030   -1.6739339992
 H    2.0849054084   -1.6421399003    2.8448059884
 H   -0.7678433099   -3.2872197771    2.3441731467
 H   -0.7647046275   -0.3884964999    4.0275810668
units bohr
0 2
}

basis {

assign 6-31g_2dfp_

[ 6-31g_2dfp_ ]

spherical

!----------------------------------------------------------------------
! Basis Set Exchange
! Version v0.8.13
! https://www.basissetexchange.org
!----------------------------------------------------------------------
!   Basis set: 6-31G(2df,p)
! Description: 6-31G(2df,p)
!        Role: orbital
!     Version: 0  (Data from the original Basis Set Exchange)
!----------------------------------------------------------------------

****
H     0
S    3   1.00
     18.7311370              0.03349460
      2.8253937              0.23472695
      0.6401217              0.81375733
S    1   1.00
      0.1612778              1.00000000
P    1   1.00
      1.5000000              1.0000000
P    1   1.00
      0.3750000              1.0000000
****
B     0
S    6   1.00
   2068.8823000              0.0018663
    310.6495700              0.0142515
     70.6830330              0.0695516
     19.8610800              0.2325729
      6.2993048              0.4670787
      2.1270270              0.3634314
SP   3   1.00
      4.7279710             -0.1303938              0.0745976
      1.1903377             -0.1307889              0.3078467
      0.3594117              1.1309444              0.7434568
SP   1   1.00
      0.1267512              1.0000000              1.0000000
D    1   1.00
      0.8020000              1.0000000
D    1   1.00
      0.2005000              1.0000000
F    1   1.00
      0.5000000              1.0000000
****
C     0
S    6   1.00
   3047.5249000              0.0018347
    457.3695100              0.0140373
    103.9486900              0.0688426
     29.2101550              0.2321844
      9.2866630              0.4679413
      3.1639270              0.3623120
SP   3   1.00
      7.8682724             -0.1193324              0.0689991
      1.8812885             -0.1608542              0.3164240
      0.5442493              1.1434564              0.7443083
SP   1   1.00
      0.1687144              1.0000000              1.0000000
D    1   1.00
      1.2520000              1.0000000
D    1   1.00
      0.3130000              1.0000000
F    1   1.00
      0.8000000              1.0000000
****
N     0
S    6   1.00
   4173.5110000              0.0018348
    627.4579000              0.0139950
    142.9021000              0.0685870
     40.2343300              0.2322410
     12.8202100              0.4690700
      4.3904370              0.3604550
SP   3   1.00
     11.6263580             -0.1149610              0.0675800
      2.7162800             -0.1691180              0.3239070
      0.7722180              1.1458520              0.7408950
SP   1   1.00
      0.2120313              1.0000000              1.0000000
D    1   1.00
      1.8260000              1.0000000
D    1   1.00
      0.4565000              1.0000000
F    1   1.00
      1.0000000              1.0000000
****
O     0
S    6   1.00
   5484.6717000              0.0018311
    825.2349500              0.0139501
    188.0469600              0.0684451
     52.9645000              0.2327143
     16.8975700              0.4701930
      5.7996353              0.3585209
SP   3   1.00
     15.5396160             -0.1107775              0.0708743
      3.5999336             -0.1480263              0.3397528
      1.0137618              1.1307670              0.7271586
SP   1   1.00
      0.2700058              1.0000000              1.0000000
D    1   1.00
      2.5840000              1.0000000
D    1   1.00
      0.6460000              1.0000000
F    1   1.00
      1.4000000              1.0000000
****
F     0
S    6   1.00
   7001.7130900              0.0018196169
   1051.3660900              0.0139160796
    239.2856900              0.0684053245
     67.3974453              0.233185760
     21.5199573              0.471267439
      7.40310130             0.356618546
SP   3   1.00
     20.8479528             -0.108506975            0.0716287243
      4.80830834            -0.146451658            0.3459121030
      1.34406986             1.128688580            0.7224699570
SP   1   1.00
      0.358151393            1.0000000              1.0000000
D    1   1.00
      3.5000000              1.0000000
D    1   1.00
      0.8750000              1.0000000
F    1   1.00
      1.8500000              1.0000000
****
Al     0
S    6   1.00
  13983.1000000              0.00194267
   2098.7500000              0.0148599
    477.7050000              0.0728494
    134.3600000              0.2468300
     42.8709000              0.4872580
     14.5189000              0.3234960
SP   6   1.00
    239.6680000             -0.00292619             0.00460285
     57.4419000             -0.0374080              0.0331990
     18.2859000             -0.1144870              0.1362820
      6.5991400              0.1156350              0.3304760
      2.4904900              0.6125950              0.4491460
      0.9445400              0.3937990              0.2657040
SP   3   1.00
      1.2779000             -0.2276060             -0.0175130
      0.3975900              0.00144583             0.2445330
      0.1600950              1.0927900              0.8049340
SP   1   1.00
      0.0556577              1.0000000              1.0000000
D    1   1.00
      0.6500000              1.0000000
D    1   1.00
      0.1625000              1.0000000
F    1   1.00
      0.2500000              1.0000000
****
Si     0
S    6   1.00
  16115.9000000              0.00195948
   2425.5800000              0.01492880
    553.8670000              0.07284780
    156.3400000              0.24613000
     50.0683000              0.48591400
     17.0178000              0.32500200
SP   6   1.00
    292.7180000             -0.00278094             0.00443826
     69.8731000             -0.03571460             0.03266790
     22.3363000             -0.11498500             0.13472100
      8.1503900              0.09356340             0.32867800
      3.1345800              0.60301700             0.44964000
      1.2254300              0.41895900             0.26137200
SP   3   1.00
      1.7273800             -0.24463000            -0.01779510
      0.5729220              0.00431572             0.25353900
      0.2221920              1.09818000             0.80066900
SP   1   1.00
      0.0778369              1.00000000             1.00000000
D    1   1.00
      0.9000000              1.0000000
D    1   1.00
      0.2250000              1.0000000
F    1   1.00
      0.3200000              1.0000000
****
P     0
S    6   1.00
  19413.3000000              0.0018516
   2909.4200000              0.0142062
    661.3640000              0.0699995
    185.7590000              0.2400790
     59.1943000              0.4847620
     20.0310000              0.3352000
SP   6   1.00
    339.4780000             -0.00278217             0.00456462
     81.0101000             -0.0360499              0.03369360
     25.8780000             -0.1166310              0.13975500
      9.4522100              0.0968328              0.33936200
      3.6656600              0.6144180              0.45092100
      1.4674600              0.4037980              0.23858600
SP   3   1.00
      2.1562300             -0.2529230             -0.01776530
      0.7489970              0.0328517              0.27405800
      0.2831450              1.0812500              0.78542100
SP   1   1.00
      0.0998317              1.0000000              1.00000000
D    1   1.00
      1.1000000              1.0000000
D    1   1.00
      0.2750000              1.0000000
F    1   1.00
      0.4500000              1.0000000
****
S     0
S    6   1.00
  21917.1000000              0.0018690
   3301.4900000              0.0142300
    754.1460000              0.0696960
    212.7110000              0.2384870
     67.9896000              0.4833070
     23.0515000              0.3380740
SP   6   1.00
    423.7350000             -0.0023767              0.0040610
    100.7100000             -0.0316930              0.0306810
     32.1599000             -0.1133170              0.1304520
     11.8079000              0.0560900              0.3272050
      4.6311000              0.5922550              0.4528510
      1.8702500              0.4550060              0.2560420
SP   3   1.00
      2.6158400             -0.2503740             -0.0145110
      0.9221670              0.0669570              0.3102630
      0.3412870              1.0545100              0.7544830
SP   1   1.00
      0.1171670              1.0000000              1.0000000
D    1   1.00
      1.3000000              1.0000000
D    1   1.00
      0.3250000              1.0000000
F    1   1.00
      0.5500000              1.0000000
****
Cl     0
S    6   1.00
  25180.1000000              0.0018330
   3780.3500000              0.0140340
    860.4740000              0.0690970
    242.1450000              0.2374520
     77.3349000              0.4830340
     26.2470000              0.3398560
SP   6   1.00
    491.7650000             -0.0022974              0.0039894
    116.9840000             -0.0307140              0.0303180
     37.4153000             -0.1125280              0.1298800
     13.7834000              0.0450160              0.3279510
      5.4521500              0.5893530              0.4535270
      2.2258800              0.4652060              0.2521540
SP   3   1.00
      3.1864900             -0.2518300             -0.0142990
      1.1442700              0.0615890              0.3235720
      0.4203770              1.0601800              0.7435070
SP   1   1.00
      0.1426570              1.0000000              1.0000000
D    1   1.00
      1.5000000              1.0000000
D    1   1.00
      0.3750000              1.0000000
F    1   1.00
      0.7000000              1.0000000
****
}

set {
reference uhf
freeze_core true
e_convergence 10
d_convergence 10
dft_spherical_points 1202
dft_radial_points 99
}

e = energy('b3lyp')

print_out('Grab this energy {0}'.format(e))
--------------------------------------------------------------------------

    Molecular point group: c1

    Geometry (in Bohr), charge = 0, multiplicity = 2:

       Center              X                  Y                   Z               Mass
    ------------   -----------------  -----------------  -----------------  -----------------
         C           -0.323340491826    -0.000003221819     0.003484869138    12.000000000000
         C            0.061963490474    -1.402828081419    -2.428296114662    12.000000000000
         C            0.061019085174     2.801757899681     0.001465323038    12.000000000000
         C            0.060316937674    -1.398925526119     2.424467531238    12.000000000000
         H            2.088968229174    -1.646053060619    -2.851023458062     1.007825032230
         H           -0.766105931626    -0.387952283719    -4.024321123862     1.007825032230
         H           -0.763290155526    -3.296771042419    -2.354756036362     1.007825032230
         H            2.086796221974     3.288105146781    -0.000199773962     1.007825032230
         H           -0.762656506226     3.688773580981     1.678083446138     1.007825032230
         H           -0.768627890326     3.671738175281    -1.674875014162     1.007825032230
         H            2.084906242074    -1.642138928019     2.843864973438     1.007825032230
         H           -0.767842476226    -3.287218804819     2.343232131738     1.007825032230
         H           -0.764703793826    -0.388495527619     4.026640051838     1.007825032230

  Charge       = 0
  Multiplicity = 2
  Basis Set: ANONYMOUS9AC00E7D
    Blend: 6-31G_2DFP_
  Basis Set: (ANONYMOUS9AC00E7D AUX)
    Blend: DEF2-UNIVERSAL-JKFIT

    Orbital Energies [Eh]
    ---------------------

    Alpha Occupied:

       1A    -10.180341     2A    -10.167360     3A    -10.167015
       4A    -10.166668     5A     -0.797771     6A     -0.686451
       7A     -0.685922     8A     -0.530775     9A     -0.441133
      10A     -0.434675    11A     -0.434666    12A     -0.382679
      13A     -0.382520    14A     -0.363611    15A     -0.338210
      16A     -0.337781    17A     -0.168960

    Alpha Virtual:

      18A      0.076073    19A      0.134062    20A      0.134251
      21A      0.142549    22A      0.142696    23A      0.154879
      24A      0.178734    25A      0.178819    26A      0.203548
      27A      0.214805    28A      0.275381    29A      0.276590
      30A      0.399162    31A      0.399254    32A      0.403385
      33A      0.424079    34A      0.424122    35A      0.456595
      36A      0.495280    37A      0.495499    38A      0.512159
      39A      0.513979    40A      0.578334    41A      0.579286
      42A      0.591110    43A      0.592151    44A      0.602586
      45A      0.624754    46A      0.631770    47A      0.636136
      48A      0.636393    49A      0.663240    50A      0.663583
      51A      0.683845    52A      0.683864    53A      0.734995
      54A      0.825220    55A      0.825590    56A      0.853915
      57A      0.914751    58A      0.915293    59A      0.944119
      60A      0.944602    61A      0.960652    62A      0.961949
      63A      1.003470    64A      1.127816    65A      1.128333
      66A      1.142209    67A      1.163081    68A      1.163529
      69A      1.223338    70A      1.274150    71A      1.274826
      72A      1.279355    73A      1.324232    74A      1.324469
      75A      1.356005    76A      1.365581    77A      1.366498
      78A      1.392432    79A      1.403426    80A      1.404691
      81A      1.416453    82A      1.417778    83A      1.427924
      84A      1.491496    85A      1.499086    86A      1.542693
      87A      1.542967    88A      1.574213    89A      1.574672
      90A      1.669846    91A      1.738786    92A      1.740067
      93A      1.768296    94A      1.830492    95A      1.832303
      96A      1.971731    97A      2.017766    98A      2.019057
      99A      2.019583   100A      2.050875   101A      2.054425
     102A      2.738248   103A      2.738697   104A      2.790946
     105A      2.811399   106A      2.889184   107A      2.890544
     108A      2.895152   109A      2.929354   110A      2.929655
     111A      2.958991   112A      2.963960   113A      2.964790
     114A      3.034010   115A      3.071120   116A      3.071444
     117A      3.084349   118A      3.168516   119A      3.169024
     120A      3.180626   121A      3.285226   122A      3.285404
     123A      3.326382   124A      3.327925   125A      3.375626
     126A      3.489740   127A      3.490527   128A      3.514010
     129A      3.525265   130A      3.567258   131A      3.569532
     132A      3.575199   133A      3.665929   134A      3.666687
     135A      3.679649   136A      3.693396   137A      3.694937
     138A      3.774217   139A      3.779357   140A      3.789255
     141A      3.911488   142A      3.913002   143A      4.034428
     144A      4.109064   145A      4.113632   146A      4.146676
     147A      4.149539   148A      4.173285   149A      4.202409
     150A      4.202764   151A      4.203601   152A      4.210924
     153A      4.314607   154A      4.317210   155A      4.359068
     156A      4.423700   157A      4.425208   158A      4.443482
     159A      4.515649   160A      4.517994   161A      4.577217
     162A      4.579214   163A      4.617511   164A      4.709459
     165A      4.772973   166A      4.776339   167A      4.837009
     168A      4.962826   169A      5.001997   170A      5.003951
     171A      5.228015   172A      5.246234   173A      5.247415
     174A      5.353839   175A      5.357186   176A      5.479369

    Beta Occupied:

       1A    -10.168117     2A    -10.167774     3A    -10.167432
       4A    -10.166517     5A     -0.781096     6A     -0.684235
       7A     -0.683744     8A     -0.511746     9A     -0.431065
      10A     -0.431028    11A     -0.421820    12A     -0.376749
      13A     -0.376622    14A     -0.362594    15A     -0.333329
      16A     -0.332907

    Beta Virtual:

      17A     -0.025742    18A      0.077082    19A      0.134955
      20A      0.135136    21A      0.144409    22A      0.144579
      23A      0.163338    24A      0.182431    25A      0.182465
      26A      0.215034    27A      0.218928    28A      0.281750
      29A      0.282916    30A      0.400357    31A      0.400430
      32A      0.419793    33A      0.426903    34A      0.426924
      35A      0.468503    36A      0.497551    37A      0.497750
      38A      0.513895    39A      0.556322    40A      0.583872
      41A      0.584849    42A      0.597324    43A      0.598296
      44A      0.610004    45A      0.628135    46A      0.631930
      47A      0.639380    48A      0.639719    49A      0.666817
      50A      0.667134    51A      0.686448    52A      0.686533
      53A      0.757516    54A      0.830339    55A      0.830808
      56A      0.855268    57A      0.922752    58A      0.923231
      59A      0.945957    60A      0.953522    61A      0.966049
      62A      0.967175    63A      1.008709    64A      1.131720
      65A      1.132490    66A      1.155586    67A      1.168297
      68A      1.168455    69A      1.232309    70A      1.279742
      71A      1.280426    72A      1.285111    73A      1.329218
      74A      1.329463    75A      1.365420    76A      1.370892
      77A      1.371673    78A      1.393495    79A      1.406834
      80A      1.408204    81A      1.421517    82A      1.422815
      83A      1.428198    84A      1.492544    85A      1.509529
      86A      1.547070    87A      1.547406    88A      1.582129
      89A      1.582500    90A      1.674693    91A      1.744526
      92A      1.745851    93A      1.779075    94A      1.834344
      95A      1.836163    96A      1.972591    97A      2.025403
      98A      2.025465    99A      2.039708   100A      2.057602
     101A      2.061138   102A      2.746630   103A      2.746993
     104A      2.811815   105A      2.816074   106A      2.902063
     107A      2.903197   108A      2.924671   109A      2.931836
     110A      2.932164   111A      2.960053   112A      2.968539
     113A      2.969302   114A      3.041945   115A      3.081061
     116A      3.081320   117A      3.086167   118A      3.184127
     119A      3.184842   120A      3.188379   121A      3.289996
     122A      3.290229   123A      3.330211   124A      3.331705
     125A      3.383445   126A      3.492466   127A      3.493259
     128A      3.512387   129A      3.528328   130A      3.574958
     131A      3.580620   132A      3.582914   133A      3.671084
     134A      3.671141   135A      3.692907   136A      3.725457
     137A      3.726066   138A      3.778843   139A      3.783810
     140A      3.817775   141A      3.921367   142A      3.922759
     143A      4.045314   144A      4.115996   145A      4.120335
     146A      4.153928   147A      4.156708   148A      4.187337
     149A      4.208437   150A      4.209484   151A      4.210685
     152A      4.215411   153A      4.321986   154A      4.324699
     155A      4.362441   156A      4.431975   157A      4.433346
     158A      4.446389   159A      4.523458   160A      4.525760
     161A      4.587809   162A      4.589809   163A      4.624719
     164A      4.719802   165A      4.780010   166A      4.783210
     167A      4.839930   168A      4.967619   169A      5.006009
     170A      5.008018   171A      5.233729   172A      5.247999
     173A      5.249220   174A      5.360277   175A      5.363709
     176A      5.481691

    Final Occupation by Irrep:
              A
    DOCC [    16 ]
    SOCC [     1 ]

  @DF-UKS Final Energy:  -157.81305628242279

   => Energetics <=

    Nuclear Repulsion Energy =            125.3947289606763036
    One-Electron Energy =                -458.7490877247549861
    Two-Electron Energy =                 195.8484508603854977
    DFT Exchange-Correlation Energy =     -20.3071483787295683
    Empirical Dispersion Energy =           0.0000000000000000
    VV10 Nonlocal Energy =                  0.0000000000000000
    Total Energy =                       -157.8130562824227923

  UHF NO Occupations:
  HONO-2 :   15  A 1.9996009
  HONO-1 :   16  A 1.9989804
  HONO-0 :   17  A 1.0000000
  LUNO+0 :   18  A 0.0010196
  LUNO+1 :   19  A 0.0003991
  LUNO+2 :   20  A 0.0001985
  LUNO+3 :   21  A 0.0001966

Computation Completed

Properties will be evaluated at   0.000000,   0.000000,   0.000000 [a0]

Properties computed using the SCF density matrix

  Nuclear Dipole Moment: [e a0]
     X:     0.8272      Y:    -0.0000      Z:    -0.0066

  Electronic Dipole Moment: [e a0]
     X:    -0.7493      Y:     0.0000      Z:     0.0066

  Dipole Moment: [e a0]
     X:     0.0779      Y:    -0.0000      Z:    -0.0000     Total:     0.0779

  Dipole Moment: [D]
     X:     0.1980      Y:    -0.0000      Z:    -0.0000     Total:     0.1980

*** tstop() called on n065 at Fri Nov  5 15:37:07 2021
Module time:
	user time   =     543.01 seconds =       9.05 minutes
	system time =      11.94 seconds =       0.20 minutes
	total time  =        140 seconds =       2.33 minutes
Total time:
	user time   =     543.01 seconds =       9.05 minutes
	system time =      11.94 seconds =       0.20 minutes
	total time  =        140 seconds =       2.33 minutes
Grab this energy -157.8130562824228
    Psi4 stopped on: Friday, 05 November 2021 03:37PM
    Psi4 wall time for execution: 0:02:19.56

*** Psi4 exiting successfully. Buy a developer a beer!
