                               Psi4 1.4a2.dev629

  ==> Input File <==

--------------------------------------------------------------------------
import os
memory 14 GB

molecule {
 C   -0.3247924155   -0.0000032067   -0.0024266144
 C    0.0613054044   -1.3997452247   -2.4256695397
 C    0.0618760211    2.8016622474   -0.0012504908
 C    0.0626868926   -1.4019148989    2.4269263631
 H    2.0846585449   -1.6459191166   -2.8472538158
 H   -0.7646178413   -0.3861166227   -4.0254788468
 H   -0.7691334344   -3.2887083496   -2.3463317104
 H    2.0867438638    3.2881425293    0.0033543191
 H   -0.7701665804    3.6773605776    1.6730904602
 H   -0.7614432148    3.6831411057   -1.6797821364
 H    2.0891137265   -1.6423150364    2.8476995773
 H   -0.7623239888   -3.2951853797    2.3516990477
 H   -0.7665148546   -0.3904229381    4.0254233870
units bohr
0 2
}

basis {

assign 6-31g_2dfp_

[ 6-31g_2dfp_ ]

spherical

!----------------------------------------------------------------------
! Basis Set Exchange
! Version v0.8.13
! https://www.basissetexchange.org
!----------------------------------------------------------------------
!   Basis set: 6-31G(2df,p)
! Description: 6-31G(2df,p)
!        Role: orbital
!     Version: 0  (Data from the original Basis Set Exchange)
!----------------------------------------------------------------------

****
H     0
S    3   1.00
     18.7311370              0.03349460
      2.8253937              0.23472695
      0.6401217              0.81375733
S    1   1.00
      0.1612778              1.00000000
P    1   1.00
      1.5000000              1.0000000
P    1   1.00
      0.3750000              1.0000000
****
B     0
S    6   1.00
   2068.8823000              0.0018663
    310.6495700              0.0142515
     70.6830330              0.0695516
     19.8610800              0.2325729
      6.2993048              0.4670787
      2.1270270              0.3634314
SP   3   1.00
      4.7279710             -0.1303938              0.0745976
      1.1903377             -0.1307889              0.3078467
      0.3594117              1.1309444              0.7434568
SP   1   1.00
      0.1267512              1.0000000              1.0000000
D    1   1.00
      0.8020000              1.0000000
D    1   1.00
      0.2005000              1.0000000
F    1   1.00
      0.5000000              1.0000000
****
C     0
S    6   1.00
   3047.5249000              0.0018347
    457.3695100              0.0140373
    103.9486900              0.0688426
     29.2101550              0.2321844
      9.2866630              0.4679413
      3.1639270              0.3623120
SP   3   1.00
      7.8682724             -0.1193324              0.0689991
      1.8812885             -0.1608542              0.3164240
      0.5442493              1.1434564              0.7443083
SP   1   1.00
      0.1687144              1.0000000              1.0000000
D    1   1.00
      1.2520000              1.0000000
D    1   1.00
      0.3130000              1.0000000
F    1   1.00
      0.8000000              1.0000000
****
N     0
S    6   1.00
   4173.5110000              0.0018348
    627.4579000              0.0139950
    142.9021000              0.0685870
     40.2343300              0.2322410
     12.8202100              0.4690700
      4.3904370              0.3604550
SP   3   1.00
     11.6263580             -0.1149610              0.0675800
      2.7162800             -0.1691180              0.3239070
      0.7722180              1.1458520              0.7408950
SP   1   1.00
      0.2120313              1.0000000              1.0000000
D    1   1.00
      1.8260000              1.0000000
D    1   1.00
      0.4565000              1.0000000
F    1   1.00
      1.0000000              1.0000000
****
O     0
S    6   1.00
   5484.6717000              0.0018311
    825.2349500              0.0139501
    188.0469600              0.0684451
     52.9645000              0.2327143
     16.8975700              0.4701930
      5.7996353              0.3585209
SP   3   1.00
     15.5396160             -0.1107775              0.0708743
      3.5999336             -0.1480263              0.3397528
      1.0137618              1.1307670              0.7271586
SP   1   1.00
      0.2700058              1.0000000              1.0000000
D    1   1.00
      2.5840000              1.0000000
D    1   1.00
      0.6460000              1.0000000
F    1   1.00
      1.4000000              1.0000000
****
F     0
S    6   1.00
   7001.7130900              0.0018196169
   1051.3660900              0.0139160796
    239.2856900              0.0684053245
     67.3974453              0.233185760
     21.5199573              0.471267439
      7.40310130             0.356618546
SP   3   1.00
     20.8479528             -0.108506975            0.0716287243
      4.80830834            -0.146451658            0.3459121030
      1.34406986             1.128688580            0.7224699570
SP   1   1.00
      0.358151393            1.0000000              1.0000000
D    1   1.00
      3.5000000              1.0000000
D    1   1.00
      0.8750000              1.0000000
F    1   1.00
      1.8500000              1.0000000
****
Al     0
S    6   1.00
  13983.1000000              0.00194267
   2098.7500000              0.0148599
    477.7050000              0.0728494
    134.3600000              0.2468300
     42.8709000              0.4872580
     14.5189000              0.3234960
SP   6   1.00
    239.6680000             -0.00292619             0.00460285
     57.4419000             -0.0374080              0.0331990
     18.2859000             -0.1144870              0.1362820
      6.5991400              0.1156350              0.3304760
      2.4904900              0.6125950              0.4491460
      0.9445400              0.3937990              0.2657040
SP   3   1.00
      1.2779000             -0.2276060             -0.0175130
      0.3975900              0.00144583             0.2445330
      0.1600950              1.0927900              0.8049340
SP   1   1.00
      0.0556577              1.0000000              1.0000000
D    1   1.00
      0.6500000              1.0000000
D    1   1.00
      0.1625000              1.0000000
F    1   1.00
      0.2500000              1.0000000
****
Si     0
S    6   1.00
  16115.9000000              0.00195948
   2425.5800000              0.01492880
    553.8670000              0.07284780
    156.3400000              0.24613000
     50.0683000              0.48591400
     17.0178000              0.32500200
SP   6   1.00
    292.7180000             -0.00278094             0.00443826
     69.8731000             -0.03571460             0.03266790
     22.3363000             -0.11498500             0.13472100
      8.1503900              0.09356340             0.32867800
      3.1345800              0.60301700             0.44964000
      1.2254300              0.41895900             0.26137200
SP   3   1.00
      1.7273800             -0.24463000            -0.01779510
      0.5729220              0.00431572             0.25353900
      0.2221920              1.09818000             0.80066900
SP   1   1.00
      0.0778369              1.00000000             1.00000000
D    1   1.00
      0.9000000              1.0000000
D    1   1.00
      0.2250000              1.0000000
F    1   1.00
      0.3200000              1.0000000
****
P     0
S    6   1.00
  19413.3000000              0.0018516
   2909.4200000              0.0142062
    661.3640000              0.0699995
    185.7590000              0.2400790
     59.1943000              0.4847620
     20.0310000              0.3352000
SP   6   1.00
    339.4780000             -0.00278217             0.00456462
     81.0101000             -0.0360499              0.03369360
     25.8780000             -0.1166310              0.13975500
      9.4522100              0.0968328              0.33936200
      3.6656600              0.6144180              0.45092100
      1.4674600              0.4037980              0.23858600
SP   3   1.00
      2.1562300             -0.2529230             -0.01776530
      0.7489970              0.0328517              0.27405800
      0.2831450              1.0812500              0.78542100
SP   1   1.00
      0.0998317              1.0000000              1.00000000
D    1   1.00
      1.1000000              1.0000000
D    1   1.00
      0.2750000              1.0000000
F    1   1.00
      0.4500000              1.0000000
****
S     0
S    6   1.00
  21917.1000000              0.0018690
   3301.4900000              0.0142300
    754.1460000              0.0696960
    212.7110000              0.2384870
     67.9896000              0.4833070
     23.0515000              0.3380740
SP   6   1.00
    423.7350000             -0.0023767              0.0040610
    100.7100000             -0.0316930              0.0306810
     32.1599000             -0.1133170              0.1304520
     11.8079000              0.0560900              0.3272050
      4.6311000              0.5922550              0.4528510
      1.8702500              0.4550060              0.2560420
SP   3   1.00
      2.6158400             -0.2503740             -0.0145110
      0.9221670              0.0669570              0.3102630
      0.3412870              1.0545100              0.7544830
SP   1   1.00
      0.1171670              1.0000000              1.0000000
D    1   1.00
      1.3000000              1.0000000
D    1   1.00
      0.3250000              1.0000000
F    1   1.00
      0.5500000              1.0000000
****
Cl     0
S    6   1.00
  25180.1000000              0.0018330
   3780.3500000              0.0140340
    860.4740000              0.0690970
    242.1450000              0.2374520
     77.3349000              0.4830340
     26.2470000              0.3398560
SP   6   1.00
    491.7650000             -0.0022974              0.0039894
    116.9840000             -0.0307140              0.0303180
     37.4153000             -0.1125280              0.1298800
     13.7834000              0.0450160              0.3279510
      5.4521500              0.5893530              0.4535270
      2.2258800              0.4652060              0.2521540
SP   3   1.00
      3.1864900             -0.2518300             -0.0142990
      1.1442700              0.0615890              0.3235720
      0.4203770              1.0601800              0.7435070
SP   1   1.00
      0.1426570              1.0000000              1.0000000
D    1   1.00
      1.5000000              1.0000000
D    1   1.00
      0.3750000              1.0000000
F    1   1.00
      0.7000000              1.0000000
****
}

set {
reference uhf
freeze_core true
e_convergence 10
d_convergence 10
dft_spherical_points 1202
dft_radial_points 99
}

e = energy('b3lyp')

print_out('Grab this energy {0}'.format(e))
--------------------------------------------------------------------------

    Molecular point group: c1

    Geometry (in Bohr), charge = 0, multiplicity = 2:

       Center              X                  Y                   Z               Mass
    ------------   -----------------  -----------------  -----------------  -----------------
         C           -0.325007343463    -0.000002568767    -0.001960450695    12.000000000000
         C            0.061090476437    -1.399744586767    -2.425203375995    12.000000000000
         C            0.061661093137     2.801662885333    -0.000784327095    12.000000000000
         C            0.062471964637    -1.401914260967     2.427392526805    12.000000000000
         H            2.084443616937    -1.645918478667    -2.846787652095     1.007825032230
         H           -0.764832769263    -0.386115984767    -4.025012683095     1.007825032230
         H           -0.769348362363    -3.288707711667    -2.345865546695     1.007825032230
         H            2.086528935837     3.288143167233     0.003820482805     1.007825032230
         H           -0.770381508363     3.677361215533     1.673556623905     1.007825032230
         H           -0.761658142763     3.683141743633    -1.679315972695     1.007825032230
         H            2.088898798537    -1.642314398467     2.848165741005     1.007825032230
         H           -0.762538916763    -3.295184741767     2.352165211405     1.007825032230
         H           -0.766729782563    -0.390422300167     4.025889550705     1.007825032230

  Charge       = 0
  Multiplicity = 2
  Basis Set: ANONYMOUS64DA140F
    Blend: 6-31G_2DFP_
  Basis Set: (ANONYMOUS64DA140F AUX)
    Blend: DEF2-UNIVERSAL-JKFIT

    Orbital Energies [Eh]
    ---------------------

    Alpha Occupied:

       1A    -10.180407     2A    -10.167195     3A    -10.167007
       4A    -10.166817     5A     -0.797752     6A     -0.686312
       7A     -0.686026     8A     -0.530782     9A     -0.441181
      10A     -0.434680    11A     -0.434537    12A     -0.382751
      13A     -0.382662    14A     -0.363484    15A     -0.338055
      16A     -0.337758    17A     -0.169144

    Alpha Virtual:

      18A      0.076076    19A      0.134090    20A      0.134216
      21A      0.142592    22A      0.142617    23A      0.154958
      24A      0.178843    25A      0.178849    26A      0.203573
      27A      0.214754    28A      0.275477    29A      0.276149
      30A      0.399196    31A      0.399211    32A      0.403276
      33A      0.424036    34A      0.424104    35A      0.456688
      36A      0.495314    37A      0.495414    38A      0.512206
      39A      0.513880    40A      0.578753    41A      0.579132
      42A      0.591438    43A      0.591888    44A      0.602792
      45A      0.624681    46A      0.631711    47A      0.636002
      48A      0.636182    49A      0.663366    50A      0.663776
      51A      0.683722    52A      0.683763    53A      0.734798
      54A      0.825321    55A      0.825383    56A      0.853918
      57A      0.914830    58A      0.915096    59A      0.944172
      60A      0.944662    61A      0.961269    62A      0.961351
      63A      1.003455    64A      1.128152    65A      1.128241
      66A      1.142226    67A      1.163594    68A      1.163833
      69A      1.223164    70A      1.274242    71A      1.274608
      72A      1.279601    73A      1.323986    74A      1.324230
      75A      1.356234    76A      1.365377    77A      1.365972
      78A      1.392454    79A      1.403780    80A      1.404414
      81A      1.417081    82A      1.417617    83A      1.427967
      84A      1.491311    85A      1.499475    86A      1.542742
      87A      1.543018    88A      1.573939    89A      1.574382
      90A      1.669561    91A      1.738909    92A      1.739444
      93A      1.768366    94A      1.830593    95A      1.831421
      96A      1.971465    97A      2.017246    98A      2.019318
      99A      2.019405   100A      2.052071   101A      2.054002
     102A      2.738232   103A      2.738340   104A      2.791126
     105A      2.811391   106A      2.889265   107A      2.890101
     108A      2.895309   109A      2.929344   110A      2.929691
     111A      2.958925   112A      2.964004   113A      2.964528
     114A      3.034356   115A      3.070147   116A      3.070735
     117A      3.084276   118A      3.168837   119A      3.168942
     120A      3.180583   121A      3.286067   122A      3.286151
     123A      3.327076   124A      3.327963   125A      3.375785
     126A      3.489700   127A      3.490167   128A      3.513824
     129A      3.525778   130A      3.567270   131A      3.568946
     132A      3.575762   133A      3.665596   134A      3.665991
     135A      3.679451   136A      3.693841   137A      3.694523
     138A      3.775174   139A      3.777841   140A      3.787905
     141A      3.911713   142A      3.912700   143A      4.034140
     144A      4.110116   145A      4.112158   146A      4.147541
     147A      4.148643   148A      4.173193   149A      4.202169
     150A      4.202959   151A      4.203843   152A      4.210928
     153A      4.315638   154A      4.316676   155A      4.359460
     156A      4.423795   157A      4.424793   158A      4.443177
     159A      4.516384   160A      4.517886   161A      4.577718
     162A      4.579050   163A      4.617031   164A      4.709774
     165A      4.773851   166A      4.775067   167A      4.835716
     168A      4.962947   169A      5.002479   170A      5.003725
     171A      5.227923   172A      5.246580   173A      5.246828
     174A      5.354279   175A      5.356188   176A      5.478984

    Beta Occupied:

       1A    -10.167950     2A    -10.167764     3A    -10.167579
       4A    -10.166579     5A     -0.781081     6A     -0.684101
       7A     -0.683838     8A     -0.511744     9A     -0.431047
      10A     -0.430890    11A     -0.421910    12A     -0.376835
      13A     -0.376769    14A     -0.362467    15A     -0.333182
      16A     -0.332884

    Beta Virtual:

      17A     -0.025843    18A      0.077080    19A      0.134965
      20A      0.135099    21A      0.144455    22A      0.144500
      23A      0.163406    24A      0.182514    25A      0.182523
      26A      0.214984    27A      0.218933    28A      0.281848
      29A      0.282498    30A      0.400374    31A      0.400378
      32A      0.419687    33A      0.426836    34A      0.426931
      35A      0.468610    36A      0.497586    37A      0.497672
      38A      0.513936    39A      0.556224    40A      0.584278
      41A      0.584681    42A      0.597643    43A      0.598053
      44A      0.610188    45A      0.628080    46A      0.631870
      47A      0.639272    48A      0.639494    49A      0.666944
      50A      0.667331    51A      0.686363    52A      0.686381
      53A      0.757341    54A      0.830521    55A      0.830528
      56A      0.855267    57A      0.922807    58A      0.923081
      59A      0.946005    60A      0.953584    61A      0.966513
      62A      0.966653    63A      1.008714    64A      1.132137
      65A      1.132330    66A      1.155569    67A      1.168727
      68A      1.168842    69A      1.232134    70A      1.279848
      71A      1.280224    72A      1.285366    73A      1.328996
      74A      1.329216    75A      1.365625    76A      1.370653
      77A      1.371172    78A      1.393505    79A      1.407217
      80A      1.407906    81A      1.422118    82A      1.422636
      83A      1.428244    84A      1.492357    85A      1.509926
      86A      1.547178    87A      1.547393    88A      1.581855
      89A      1.582212    90A      1.674423    91A      1.744654
      92A      1.745217    93A      1.779126    94A      1.834433
      95A      1.835275    96A      1.972323    97A      2.025652
      98A      2.025813    99A      2.038677   100A      2.058842
     101A      2.060705   102A      2.746541   103A      2.746703
     104A      2.811812   105A      2.816241   106A      2.902074
     107A      2.902797   108A      2.924939   109A      2.931823
     110A      2.932168   111A      2.959987   112A      2.968575
     113A      2.969068   114A      3.042250   115A      3.080136
     116A      3.080643   117A      3.086088   118A      3.184386
     119A      3.184642   120A      3.188367   121A      3.290823
     122A      3.290913   123A      3.330896   124A      3.331768
     125A      3.383613   126A      3.492428   127A      3.492936
     128A      3.512197   129A      3.528834   130A      3.575609
     131A      3.580688   132A      3.582302   133A      3.670457
     134A      3.670604   135A      3.692725   136A      3.725627
     137A      3.726008   138A      3.779799   139A      3.782382
     140A      3.816413   141A      3.921537   142A      3.922436
     143A      4.045056   144A      4.116921   145A      4.118955
     146A      4.154829   147A      4.155799   148A      4.187212
     149A      4.208753   150A      4.209647   151A      4.210425
     152A      4.215383   153A      4.323067   154A      4.324169
     155A      4.362822   156A      4.431988   157A      4.432941
     158A      4.446068   159A      4.524168   160A      4.525647
     161A      4.588348   162A      4.589687   163A      4.624220
     164A      4.720144   165A      4.780860   166A      4.781995
     167A      4.838644   168A      4.967738   169A      5.006486
     170A      5.007769   171A      5.233639   172A      5.248353
     173A      5.248624   174A      5.360747   175A      5.362698
     176A      5.481312

    Final Occupation by Irrep:
              A
    DOCC [    16 ]
    SOCC [     1 ]

  @DF-UKS Final Energy:  -157.81306004591187

   => Energetics <=

    Nuclear Repulsion Energy =            125.3922164844527884
    One-Electron Energy =                -458.7442638682176153
    Two-Electron Energy =                 195.8460622605184938
    DFT Exchange-Correlation Energy =     -20.3070749226655280
    Empirical Dispersion Energy =           0.0000000000000000
    VV10 Nonlocal Energy =                  0.0000000000000000
    Total Energy =                       -157.8130600459118682

  UHF NO Occupations:
  HONO-2 :   15  A 1.9996024
  HONO-1 :   16  A 1.9989820
  HONO-0 :   17  A 1.0000000
  LUNO+0 :   18  A 0.0010180
  LUNO+1 :   19  A 0.0003976
  LUNO+2 :   20  A 0.0001982
  LUNO+3 :   21  A 0.0001971

Computation Completed

Properties will be evaluated at   0.000000,   0.000000,   0.000000 [a0]

Properties computed using the SCF density matrix

  Nuclear Dipole Moment: [e a0]
     X:     0.8257      Y:    -0.0000      Z:     0.0033

  Electronic Dipole Moment: [e a0]
     X:    -0.7470      Y:     0.0000      Z:    -0.0033

  Dipole Moment: [e a0]
     X:     0.0787      Y:     0.0000      Z:     0.0000     Total:     0.0787

  Dipole Moment: [D]
     X:     0.2000      Y:     0.0000      Z:     0.0001     Total:     0.2000

*** tstop() called on n023 at Fri Nov  5 11:43:02 2021
Module time:
	user time   =     640.38 seconds =      10.67 minutes
	system time =      12.14 seconds =       0.20 minutes
	total time  =        164 seconds =       2.73 minutes
Total time:
	user time   =     640.38 seconds =      10.67 minutes
	system time =      12.14 seconds =       0.20 minutes
	total time  =        164 seconds =       2.73 minutes
Grab this energy -157.81306004591187
    Psi4 stopped on: Friday, 05 November 2021 11:43AM
    Psi4 wall time for execution: 0:02:44.06

*** Psi4 exiting successfully. Buy a developer a beer!
