                               Psi4 1.4a2.dev629

  ==> Input File <==

--------------------------------------------------------------------------
import os
memory 14 GB

molecule {
 C   -0.3236405512   -0.0000025151   -0.0002576121
 C    0.0595026684   -1.4039377604   -2.4309102281
 C    0.0611588609    2.8072040521    0.0007696024
 C    0.0630565967   -1.4032630239    2.4312812228
 H    2.0874042419   -1.6472908056   -2.8532053056
 H   -0.7649472178   -0.3906572073   -4.0309944591
 H   -0.7652482847   -3.2954368236   -2.3539737046
 H    2.0870903548    3.2946961757   -0.0002320882
 H   -0.7659495302    3.6862996142    1.6767205800
 H   -0.7656741843    3.6862115769   -1.6770498805
 H    2.0870566018   -1.6474966170    2.8530973433
 H   -0.7662215102   -3.2952286491    2.3540103950
 H   -0.7661959228   -0.3911223305    4.0307441346
units bohr
0 2
}

basis {

assign 6-31g_2dfp_

[ 6-31g_2dfp_ ]

spherical

!----------------------------------------------------------------------
! Basis Set Exchange
! Version v0.8.13
! https://www.basissetexchange.org
!----------------------------------------------------------------------
!   Basis set: 6-31G(2df,p)
! Description: 6-31G(2df,p)
!        Role: orbital
!     Version: 0  (Data from the original Basis Set Exchange)
!----------------------------------------------------------------------

****
H     0
S    3   1.00
     18.7311370              0.03349460
      2.8253937              0.23472695
      0.6401217              0.81375733
S    1   1.00
      0.1612778              1.00000000
P    1   1.00
      1.5000000              1.0000000
P    1   1.00
      0.3750000              1.0000000
****
B     0
S    6   1.00
   2068.8823000              0.0018663
    310.6495700              0.0142515
     70.6830330              0.0695516
     19.8610800              0.2325729
      6.2993048              0.4670787
      2.1270270              0.3634314
SP   3   1.00
      4.7279710             -0.1303938              0.0745976
      1.1903377             -0.1307889              0.3078467
      0.3594117              1.1309444              0.7434568
SP   1   1.00
      0.1267512              1.0000000              1.0000000
D    1   1.00
      0.8020000              1.0000000
D    1   1.00
      0.2005000              1.0000000
F    1   1.00
      0.5000000              1.0000000
****
C     0
S    6   1.00
   3047.5249000              0.0018347
    457.3695100              0.0140373
    103.9486900              0.0688426
     29.2101550              0.2321844
      9.2866630              0.4679413
      3.1639270              0.3623120
SP   3   1.00
      7.8682724             -0.1193324              0.0689991
      1.8812885             -0.1608542              0.3164240
      0.5442493              1.1434564              0.7443083
SP   1   1.00
      0.1687144              1.0000000              1.0000000
D    1   1.00
      1.2520000              1.0000000
D    1   1.00
      0.3130000              1.0000000
F    1   1.00
      0.8000000              1.0000000
****
N     0
S    6   1.00
   4173.5110000              0.0018348
    627.4579000              0.0139950
    142.9021000              0.0685870
     40.2343300              0.2322410
     12.8202100              0.4690700
      4.3904370              0.3604550
SP   3   1.00
     11.6263580             -0.1149610              0.0675800
      2.7162800             -0.1691180              0.3239070
      0.7722180              1.1458520              0.7408950
SP   1   1.00
      0.2120313              1.0000000              1.0000000
D    1   1.00
      1.8260000              1.0000000
D    1   1.00
      0.4565000              1.0000000
F    1   1.00
      1.0000000              1.0000000
****
O     0
S    6   1.00
   5484.6717000              0.0018311
    825.2349500              0.0139501
    188.0469600              0.0684451
     52.9645000              0.2327143
     16.8975700              0.4701930
      5.7996353              0.3585209
SP   3   1.00
     15.5396160             -0.1107775              0.0708743
      3.5999336             -0.1480263              0.3397528
      1.0137618              1.1307670              0.7271586
SP   1   1.00
      0.2700058              1.0000000              1.0000000
D    1   1.00
      2.5840000              1.0000000
D    1   1.00
      0.6460000              1.0000000
F    1   1.00
      1.4000000              1.0000000
****
F     0
S    6   1.00
   7001.7130900              0.0018196169
   1051.3660900              0.0139160796
    239.2856900              0.0684053245
     67.3974453              0.233185760
     21.5199573              0.471267439
      7.40310130             0.356618546
SP   3   1.00
     20.8479528             -0.108506975            0.0716287243
      4.80830834            -0.146451658            0.3459121030
      1.34406986             1.128688580            0.7224699570
SP   1   1.00
      0.358151393            1.0000000              1.0000000
D    1   1.00
      3.5000000              1.0000000
D    1   1.00
      0.8750000              1.0000000
F    1   1.00
      1.8500000              1.0000000
****
Al     0
S    6   1.00
  13983.1000000              0.00194267
   2098.7500000              0.0148599
    477.7050000              0.0728494
    134.3600000              0.2468300
     42.8709000              0.4872580
     14.5189000              0.3234960
SP   6   1.00
    239.6680000             -0.00292619             0.00460285
     57.4419000             -0.0374080              0.0331990
     18.2859000             -0.1144870              0.1362820
      6.5991400              0.1156350              0.3304760
      2.4904900              0.6125950              0.4491460
      0.9445400              0.3937990              0.2657040
SP   3   1.00
      1.2779000             -0.2276060             -0.0175130
      0.3975900              0.00144583             0.2445330
      0.1600950              1.0927900              0.8049340
SP   1   1.00
      0.0556577              1.0000000              1.0000000
D    1   1.00
      0.6500000              1.0000000
D    1   1.00
      0.1625000              1.0000000
F    1   1.00
      0.2500000              1.0000000
****
Si     0
S    6   1.00
  16115.9000000              0.00195948
   2425.5800000              0.01492880
    553.8670000              0.07284780
    156.3400000              0.24613000
     50.0683000              0.48591400
     17.0178000              0.32500200
SP   6   1.00
    292.7180000             -0.00278094             0.00443826
     69.8731000             -0.03571460             0.03266790
     22.3363000             -0.11498500             0.13472100
      8.1503900              0.09356340             0.32867800
      3.1345800              0.60301700             0.44964000
      1.2254300              0.41895900             0.26137200
SP   3   1.00
      1.7273800             -0.24463000            -0.01779510
      0.5729220              0.00431572             0.25353900
      0.2221920              1.09818000             0.80066900
SP   1   1.00
      0.0778369              1.00000000             1.00000000
D    1   1.00
      0.9000000              1.0000000
D    1   1.00
      0.2250000              1.0000000
F    1   1.00
      0.3200000              1.0000000
****
P     0
S    6   1.00
  19413.3000000              0.0018516
   2909.4200000              0.0142062
    661.3640000              0.0699995
    185.7590000              0.2400790
     59.1943000              0.4847620
     20.0310000              0.3352000
SP   6   1.00
    339.4780000             -0.00278217             0.00456462
     81.0101000             -0.0360499              0.03369360
     25.8780000             -0.1166310              0.13975500
      9.4522100              0.0968328              0.33936200
      3.6656600              0.6144180              0.45092100
      1.4674600              0.4037980              0.23858600
SP   3   1.00
      2.1562300             -0.2529230             -0.01776530
      0.7489970              0.0328517              0.27405800
      0.2831450              1.0812500              0.78542100
SP   1   1.00
      0.0998317              1.0000000              1.00000000
D    1   1.00
      1.1000000              1.0000000
D    1   1.00
      0.2750000              1.0000000
F    1   1.00
      0.4500000              1.0000000
****
S     0
S    6   1.00
  21917.1000000              0.0018690
   3301.4900000              0.0142300
    754.1460000              0.0696960
    212.7110000              0.2384870
     67.9896000              0.4833070
     23.0515000              0.3380740
SP   6   1.00
    423.7350000             -0.0023767              0.0040610
    100.7100000             -0.0316930              0.0306810
     32.1599000             -0.1133170              0.1304520
     11.8079000              0.0560900              0.3272050
      4.6311000              0.5922550              0.4528510
      1.8702500              0.4550060              0.2560420
SP   3   1.00
      2.6158400             -0.2503740             -0.0145110
      0.9221670              0.0669570              0.3102630
      0.3412870              1.0545100              0.7544830
SP   1   1.00
      0.1171670              1.0000000              1.0000000
D    1   1.00
      1.3000000              1.0000000
D    1   1.00
      0.3250000              1.0000000
F    1   1.00
      0.5500000              1.0000000
****
Cl     0
S    6   1.00
  25180.1000000              0.0018330
   3780.3500000              0.0140340
    860.4740000              0.0690970
    242.1450000              0.2374520
     77.3349000              0.4830340
     26.2470000              0.3398560
SP   6   1.00
    491.7650000             -0.0022974              0.0039894
    116.9840000             -0.0307140              0.0303180
     37.4153000             -0.1125280              0.1298800
     13.7834000              0.0450160              0.3279510
      5.4521500              0.5893530              0.4535270
      2.2258800              0.4652060              0.2521540
SP   3   1.00
      3.1864900             -0.2518300             -0.0142990
      1.1442700              0.0615890              0.3235720
      0.4203770              1.0601800              0.7435070
SP   1   1.00
      0.1426570              1.0000000              1.0000000
D    1   1.00
      1.5000000              1.0000000
D    1   1.00
      0.3750000              1.0000000
F    1   1.00
      0.7000000              1.0000000
****
}

set {
reference uhf
freeze_core true
e_convergence 10
d_convergence 10
dft_spherical_points 1202
dft_radial_points 99
}

e = energy('b3lyp')

print_out('Grab this energy {0}'.format(e))
--------------------------------------------------------------------------

    Molecular point group: c1

    Geometry (in Bohr), charge = 0, multiplicity = 2:

       Center              X                  Y                   Z               Mass
    ------------   -----------------  -----------------  -----------------  -----------------
         C           -0.323663194034    -0.000002230714    -0.000427681369    12.000000000000
         C            0.059480025566    -1.403937476014    -2.431080297369    12.000000000000
         C            0.061136218066     2.807204336486     0.000599533131    12.000000000000
         C            0.063033953866    -1.403262739514     2.431111153531    12.000000000000
         H            2.087381599066    -1.647290521214    -2.853375374869     1.007825032230
         H           -0.764969860634    -0.390656922914    -4.031164528369     1.007825032230
         H           -0.765270927534    -3.295436539214    -2.354143773869     1.007825032230
         H            2.087067711966     3.294696460086    -0.000402157469     1.007825032230
         H           -0.765972173034     3.686299898586     1.676550510731     1.007825032230
         H           -0.765696827134     3.686211861286    -1.677219949769     1.007825032230
         H            2.087033958966    -1.647496332614     2.852927274031     1.007825032230
         H           -0.766244153034    -3.295228364714     2.353840325731     1.007825032230
         H           -0.766218565634    -0.391122046114     4.030574065331     1.007825032230

  Charge       = 0
  Multiplicity = 2
  Basis Set: ANONYMOUSA3D7C053
    Blend: 6-31G_2DFP_
  Basis Set: (ANONYMOUSA3D7C053 AUX)
    Blend: DEF2-UNIVERSAL-JKFIT

    Orbital Energies [Eh]
    ---------------------

    Alpha Occupied:

       1A    -10.181113     2A    -10.167412     3A    -10.167381
       4A    -10.167335     5A     -0.796721     6A     -0.685920
       7A     -0.685854     8A     -0.530778     9A     -0.440533
      10A     -0.434292    11A     -0.434090    12A     -0.382675
      13A     -0.382374    14A     -0.363729    15A     -0.337895
      16A     -0.337726    17A     -0.169286

    Alpha Virtual:

      18A      0.076102    19A      0.134082    20A      0.134148
      21A      0.142364    22A      0.142488    23A      0.154818
      24A      0.178489    25A      0.178717    26A      0.202437
      27A      0.214457    28A      0.275397    29A      0.275509
      30A      0.399092    31A      0.399402    32A      0.403551
      33A      0.424334    34A      0.424431    35A      0.456030
      36A      0.495134    37A      0.495193    38A      0.511827
      39A      0.513570    40A      0.578038    41A      0.578204
      42A      0.590969    43A      0.591210    44A      0.602124
      45A      0.624354    46A      0.631421    47A      0.635343
      48A      0.635559    49A      0.662762    50A      0.663104
      51A      0.683263    52A      0.683559    53A      0.735195
      54A      0.825548    55A      0.825575    56A      0.852911
      57A      0.914280    58A      0.914321    59A      0.942802
      60A      0.945183    61A      0.960257    62A      0.960412
      63A      1.002334    64A      1.127113    65A      1.127323
      66A      1.141879    67A      1.162393    68A      1.162588
      69A      1.222434    70A      1.273441    71A      1.273726
      72A      1.278839    73A      1.323765    74A      1.324275
      75A      1.355815    76A      1.363924    77A      1.364541
      78A      1.390937    79A      1.404210    80A      1.404435
      81A      1.416455    82A      1.417060    83A      1.426482
      84A      1.490298    85A      1.498509    86A      1.542041
      87A      1.542135    88A      1.573123    89A      1.573442
      90A      1.669899    91A      1.738376    92A      1.739187
      93A      1.766814    94A      1.830000    95A      1.830390
      96A      1.970360    97A      2.015981    98A      2.017337
      99A      2.018558   100A      2.047810   101A      2.048561
     102A      2.737842   103A      2.737920   104A      2.789763
     105A      2.808704   106A      2.888518   107A      2.889058
     108A      2.893419   109A      2.929296   110A      2.929361
     111A      2.958759   112A      2.964570   113A      2.964782
     114A      3.034038   115A      3.070227   116A      3.070458
     117A      3.082789   118A      3.167812   119A      3.168054
     120A      3.178733   121A      3.284763   122A      3.284815
     123A      3.326585   124A      3.326902   125A      3.376976
     126A      3.488043   127A      3.488677   128A      3.513234
     129A      3.522976   130A      3.568356   131A      3.568576
     132A      3.573027   133A      3.666137   134A      3.666735
     135A      3.677726   136A      3.692678   137A      3.692715
     138A      3.772298   139A      3.772377   140A      3.788415
     141A      3.910055   142A      3.910214   143A      4.032620
     144A      4.108373   145A      4.108584   146A      4.147389
     147A      4.147468   148A      4.172030   149A      4.200488
     150A      4.200831   151A      4.201390   152A      4.209234
     153A      4.313992   154A      4.314848   155A      4.356495
     156A      4.422278   157A      4.422524   158A      4.441006
     159A      4.512815   160A      4.514921   161A      4.574524
     162A      4.574927   163A      4.610241   164A      4.704680
     165A      4.767657   166A      4.768669   167A      4.832954
     168A      4.959846   169A      5.000881   170A      5.001782
     171A      5.227035   172A      5.245379   173A      5.245420
     174A      5.352650   175A      5.353168   176A      5.473650

    Beta Occupied:

       1A    -10.168167     2A    -10.168137     3A    -10.168105
       4A    -10.167260     5A     -0.780069     6A     -0.683743
       7A     -0.683677     8A     -0.511648     9A     -0.430688
      10A     -0.430476    11A     -0.421325    12A     -0.376806
      13A     -0.376487    14A     -0.362725    15A     -0.333015
      16A     -0.332843

    Beta Virtual:

      17A     -0.025774    18A      0.077099    19A      0.134987
      20A      0.135036    21A      0.144209    22A      0.144326
      23A      0.163233    24A      0.182132    25A      0.182364
      26A      0.214680    27A      0.218000    28A      0.281817
      29A      0.281924    30A      0.400229    31A      0.400542
      32A      0.420091    33A      0.427151    34A      0.427254
      35A      0.467584    36A      0.497385    37A      0.497436
      38A      0.513546    39A      0.555986    40A      0.583586
      41A      0.583744    42A      0.597203    43A      0.597452
      44A      0.609512    45A      0.627670    46A      0.631567
      47A      0.638555    48A      0.638773    49A      0.666380
      50A      0.666693    51A      0.685817    52A      0.686119
      53A      0.757896    54A      0.830702    55A      0.830724
      56A      0.854227    57A      0.922240    58A      0.922279
      59A      0.944635    60A      0.954203    61A      0.965531
      62A      0.965699    63A      1.007652    64A      1.131105
      65A      1.131389    66A      1.155246    67A      1.167510
      68A      1.167611    69A      1.231266    70A      1.278996
      71A      1.279290    72A      1.284657    73A      1.328747
      74A      1.329277    75A      1.365202    76A      1.369174
      77A      1.369791    78A      1.391986    79A      1.407694
      80A      1.407949    81A      1.421465    82A      1.422036
      83A      1.426718    84A      1.491346    85A      1.508889
      86A      1.546527    87A      1.546577    88A      1.580981
      89A      1.581190    90A      1.674738    91A      1.744142
      92A      1.744939    93A      1.777570    94A      1.833838
      95A      1.834227    96A      1.971216    97A      2.023686
      98A      2.024960    99A      2.037328   100A      2.054523
     101A      2.055217   102A      2.746278   103A      2.746346
     104A      2.809111   105A      2.814918   106A      2.901432
     107A      2.901956   108A      2.923064   109A      2.931620
     110A      2.931679   111A      2.959809   112A      2.969061
     113A      2.969264   114A      3.041885   115A      3.080051
     116A      3.080269   117A      3.084599   118A      3.183687
     119A      3.183887   120A      3.186477   121A      3.289395
     122A      3.289429   123A      3.330451   124A      3.330795
     125A      3.384812   126A      3.490793   127A      3.491421
     128A      3.511608   129A      3.526074   130A      3.572863
     131A      3.581743   132A      3.581836   133A      3.671052
     134A      3.671520   135A      3.691038   136A      3.724361
     137A      3.724659   138A      3.776795   139A      3.776850
     140A      3.817094   141A      3.919849   142A      3.920040
     143A      4.043577   144A      4.115514   145A      4.115620
     146A      4.154370   147A      4.154537   148A      4.185978
     149A      4.206488   150A      4.206843   151A      4.209163
     152A      4.213632   153A      4.321376   154A      4.322281
     155A      4.359880   156A      4.430400   157A      4.430623
     158A      4.443873   159A      4.520483   160A      4.522580
     161A      4.585121   162A      4.585495   163A      4.617449
     164A      4.714943   165A      4.774626   166A      4.775601
     167A      4.835873   168A      4.964619   169A      5.004898
     170A      5.005764   171A      5.232712   172A      5.247151
     173A      5.247193   174A      5.359077   175A      5.359593
     176A      5.475949

    Final Occupation by Irrep:
              A
    DOCC [    16 ]
    SOCC [     1 ]

  @DF-UKS Final Energy:  -157.81307191239429

   => Energetics <=

    Nuclear Repulsion Energy =            125.2136482757480991
    One-Electron Energy =                -458.3925716242258659
    Two-Electron Energy =                 195.6692018180432910
    DFT Exchange-Correlation Energy =     -20.3033503819598025
    Empirical Dispersion Energy =           0.0000000000000000
    VV10 Nonlocal Energy =                  0.0000000000000000
    Total Energy =                       -157.8130719123942924

  UHF NO Occupations:
  HONO-2 :   15  A 1.9996026
  HONO-1 :   16  A 1.9989734
  HONO-0 :   17  A 1.0000000
  LUNO+0 :   18  A 0.0010266
  LUNO+1 :   19  A 0.0003974
  LUNO+2 :   20  A 0.0001999
  LUNO+3 :   21  A 0.0001996

Computation Completed

Properties will be evaluated at   0.000000,   0.000000,   0.000000 [a0]

Properties computed using the SCF density matrix

  Nuclear Dipole Moment: [e a0]
     X:     0.8270      Y:    -0.0000      Z:    -0.0012

  Electronic Dipole Moment: [e a0]
     X:    -0.7483      Y:     0.0000      Z:     0.0011

  Dipole Moment: [e a0]
     X:     0.0788      Y:     0.0000      Z:    -0.0001     Total:     0.0788

  Dipole Moment: [D]
     X:     0.2002      Y:     0.0000      Z:    -0.0003     Total:     0.2002

*** tstop() called on n079 at Fri Nov  5 12:25:39 2021
Module time:
	user time   =     498.01 seconds =       8.30 minutes
	system time =       4.63 seconds =       0.08 minutes
	total time  =        127 seconds =       2.12 minutes
Total time:
	user time   =     498.01 seconds =       8.30 minutes
	system time =       4.63 seconds =       0.08 minutes
	total time  =        127 seconds =       2.12 minutes
Grab this energy -157.8130719123943
    Psi4 stopped on: Friday, 05 November 2021 12:25PM
    Psi4 wall time for execution: 0:02:06.38

*** Psi4 exiting successfully. Buy a developer a beer!
