                               Psi4 1.4a2.dev629

  ==> Input File <==

--------------------------------------------------------------------------
import os
memory 14 GB

molecule {
 C   -0.3233409219   -0.0000038054    0.0019343520
 C    0.0619145063   -1.4023172160   -2.4276614429
 C    0.0610175522    2.8017581019    0.0012111182
 C    0.0603674900   -1.3994401608    2.4251006484
 H    2.0855415085   -1.6425248812   -2.8480284525
 H   -0.7645109483   -0.3931948402   -4.0230160808
 H   -0.7602393084   -3.2922397516   -2.3531629893
 H    2.0867907362    3.2881035068   -0.0033253356
 H   -0.7611953450    3.6836428358    1.6801603751
 H   -0.7700946634    3.6768643194   -1.6728235782
 H    2.0883318249   -1.6456759828    2.8468552931
 H   -0.7709008890   -3.2917492018    2.3448072838
 H   -0.7662894189   -0.3832472378    4.0279488088
units bohr
0 2
}

basis {

assign 6-31g_2dfp_

[ 6-31g_2dfp_ ]

spherical

!----------------------------------------------------------------------
! Basis Set Exchange
! Version v0.8.13
! https://www.basissetexchange.org
!----------------------------------------------------------------------
!   Basis set: 6-31G(2df,p)
! Description: 6-31G(2df,p)
!        Role: orbital
!     Version: 0  (Data from the original Basis Set Exchange)
!----------------------------------------------------------------------

****
H     0
S    3   1.00
     18.7311370              0.03349460
      2.8253937              0.23472695
      0.6401217              0.81375733
S    1   1.00
      0.1612778              1.00000000
P    1   1.00
      1.5000000              1.0000000
P    1   1.00
      0.3750000              1.0000000
****
B     0
S    6   1.00
   2068.8823000              0.0018663
    310.6495700              0.0142515
     70.6830330              0.0695516
     19.8610800              0.2325729
      6.2993048              0.4670787
      2.1270270              0.3634314
SP   3   1.00
      4.7279710             -0.1303938              0.0745976
      1.1903377             -0.1307889              0.3078467
      0.3594117              1.1309444              0.7434568
SP   1   1.00
      0.1267512              1.0000000              1.0000000
D    1   1.00
      0.8020000              1.0000000
D    1   1.00
      0.2005000              1.0000000
F    1   1.00
      0.5000000              1.0000000
****
C     0
S    6   1.00
   3047.5249000              0.0018347
    457.3695100              0.0140373
    103.9486900              0.0688426
     29.2101550              0.2321844
      9.2866630              0.4679413
      3.1639270              0.3623120
SP   3   1.00
      7.8682724             -0.1193324              0.0689991
      1.8812885             -0.1608542              0.3164240
      0.5442493              1.1434564              0.7443083
SP   1   1.00
      0.1687144              1.0000000              1.0000000
D    1   1.00
      1.2520000              1.0000000
D    1   1.00
      0.3130000              1.0000000
F    1   1.00
      0.8000000              1.0000000
****
N     0
S    6   1.00
   4173.5110000              0.0018348
    627.4579000              0.0139950
    142.9021000              0.0685870
     40.2343300              0.2322410
     12.8202100              0.4690700
      4.3904370              0.3604550
SP   3   1.00
     11.6263580             -0.1149610              0.0675800
      2.7162800             -0.1691180              0.3239070
      0.7722180              1.1458520              0.7408950
SP   1   1.00
      0.2120313              1.0000000              1.0000000
D    1   1.00
      1.8260000              1.0000000
D    1   1.00
      0.4565000              1.0000000
F    1   1.00
      1.0000000              1.0000000
****
O     0
S    6   1.00
   5484.6717000              0.0018311
    825.2349500              0.0139501
    188.0469600              0.0684451
     52.9645000              0.2327143
     16.8975700              0.4701930
      5.7996353              0.3585209
SP   3   1.00
     15.5396160             -0.1107775              0.0708743
      3.5999336             -0.1480263              0.3397528
      1.0137618              1.1307670              0.7271586
SP   1   1.00
      0.2700058              1.0000000              1.0000000
D    1   1.00
      2.5840000              1.0000000
D    1   1.00
      0.6460000              1.0000000
F    1   1.00
      1.4000000              1.0000000
****
F     0
S    6   1.00
   7001.7130900              0.0018196169
   1051.3660900              0.0139160796
    239.2856900              0.0684053245
     67.3974453              0.233185760
     21.5199573              0.471267439
      7.40310130             0.356618546
SP   3   1.00
     20.8479528             -0.108506975            0.0716287243
      4.80830834            -0.146451658            0.3459121030
      1.34406986             1.128688580            0.7224699570
SP   1   1.00
      0.358151393            1.0000000              1.0000000
D    1   1.00
      3.5000000              1.0000000
D    1   1.00
      0.8750000              1.0000000
F    1   1.00
      1.8500000              1.0000000
****
Al     0
S    6   1.00
  13983.1000000              0.00194267
   2098.7500000              0.0148599
    477.7050000              0.0728494
    134.3600000              0.2468300
     42.8709000              0.4872580
     14.5189000              0.3234960
SP   6   1.00
    239.6680000             -0.00292619             0.00460285
     57.4419000             -0.0374080              0.0331990
     18.2859000             -0.1144870              0.1362820
      6.5991400              0.1156350              0.3304760
      2.4904900              0.6125950              0.4491460
      0.9445400              0.3937990              0.2657040
SP   3   1.00
      1.2779000             -0.2276060             -0.0175130
      0.3975900              0.00144583             0.2445330
      0.1600950              1.0927900              0.8049340
SP   1   1.00
      0.0556577              1.0000000              1.0000000
D    1   1.00
      0.6500000              1.0000000
D    1   1.00
      0.1625000              1.0000000
F    1   1.00
      0.2500000              1.0000000
****
Si     0
S    6   1.00
  16115.9000000              0.00195948
   2425.5800000              0.01492880
    553.8670000              0.07284780
    156.3400000              0.24613000
     50.0683000              0.48591400
     17.0178000              0.32500200
SP   6   1.00
    292.7180000             -0.00278094             0.00443826
     69.8731000             -0.03571460             0.03266790
     22.3363000             -0.11498500             0.13472100
      8.1503900              0.09356340             0.32867800
      3.1345800              0.60301700             0.44964000
      1.2254300              0.41895900             0.26137200
SP   3   1.00
      1.7273800             -0.24463000            -0.01779510
      0.5729220              0.00431572             0.25353900
      0.2221920              1.09818000             0.80066900
SP   1   1.00
      0.0778369              1.00000000             1.00000000
D    1   1.00
      0.9000000              1.0000000
D    1   1.00
      0.2250000              1.0000000
F    1   1.00
      0.3200000              1.0000000
****
P     0
S    6   1.00
  19413.3000000              0.0018516
   2909.4200000              0.0142062
    661.3640000              0.0699995
    185.7590000              0.2400790
     59.1943000              0.4847620
     20.0310000              0.3352000
SP   6   1.00
    339.4780000             -0.00278217             0.00456462
     81.0101000             -0.0360499              0.03369360
     25.8780000             -0.1166310              0.13975500
      9.4522100              0.0968328              0.33936200
      3.6656600              0.6144180              0.45092100
      1.4674600              0.4037980              0.23858600
SP   3   1.00
      2.1562300             -0.2529230             -0.01776530
      0.7489970              0.0328517              0.27405800
      0.2831450              1.0812500              0.78542100
SP   1   1.00
      0.0998317              1.0000000              1.00000000
D    1   1.00
      1.1000000              1.0000000
D    1   1.00
      0.2750000              1.0000000
F    1   1.00
      0.4500000              1.0000000
****
S     0
S    6   1.00
  21917.1000000              0.0018690
   3301.4900000              0.0142300
    754.1460000              0.0696960
    212.7110000              0.2384870
     67.9896000              0.4833070
     23.0515000              0.3380740
SP   6   1.00
    423.7350000             -0.0023767              0.0040610
    100.7100000             -0.0316930              0.0306810
     32.1599000             -0.1133170              0.1304520
     11.8079000              0.0560900              0.3272050
      4.6311000              0.5922550              0.4528510
      1.8702500              0.4550060              0.2560420
SP   3   1.00
      2.6158400             -0.2503740             -0.0145110
      0.9221670              0.0669570              0.3102630
      0.3412870              1.0545100              0.7544830
SP   1   1.00
      0.1171670              1.0000000              1.0000000
D    1   1.00
      1.3000000              1.0000000
D    1   1.00
      0.3250000              1.0000000
F    1   1.00
      0.5500000              1.0000000
****
Cl     0
S    6   1.00
  25180.1000000              0.0018330
   3780.3500000              0.0140340
    860.4740000              0.0690970
    242.1450000              0.2374520
     77.3349000              0.4830340
     26.2470000              0.3398560
SP   6   1.00
    491.7650000             -0.0022974              0.0039894
    116.9840000             -0.0307140              0.0303180
     37.4153000             -0.1125280              0.1298800
     13.7834000              0.0450160              0.3279510
      5.4521500              0.5893530              0.4535270
      2.2258800              0.4652060              0.2521540
SP   3   1.00
      3.1864900             -0.2518300             -0.0142990
      1.1442700              0.0615890              0.3235720
      0.4203770              1.0601800              0.7435070
SP   1   1.00
      0.1426570              1.0000000              1.0000000
D    1   1.00
      1.5000000              1.0000000
D    1   1.00
      0.3750000              1.0000000
F    1   1.00
      0.7000000              1.0000000
****
}

set {
reference uhf
freeze_core true
e_convergence 10
d_convergence 10
dft_spherical_points 1202
dft_radial_points 99
}

e = energy('b3lyp')

print_out('Grab this energy {0}'.format(e))
--------------------------------------------------------------------------

    Molecular point group: c1

    Geometry (in Bohr), charge = 0, multiplicity = 2:

       Center              X                  Y                   Z               Mass
    ------------   -----------------  -----------------  -----------------  -----------------
         C           -0.323340654452    -0.000002782749     0.001821739247    12.000000000000
         C            0.061914773748    -1.402316193349    -2.427774055653    12.000000000000
         C            0.061017819648     2.801759124551     0.001098505447    12.000000000000
         C            0.060367757448    -1.399439138149     2.424988035647    12.000000000000
         H            2.085541775948    -1.642523858549    -2.848141065253     1.007825032230
         H           -0.764510680852    -0.393193817549    -4.023128693553     1.007825032230
         H           -0.760239040952    -3.292238728949    -2.353275602053     1.007825032230
         H            2.086791003648     3.288104529451    -0.003437948353     1.007825032230
         H           -0.761195077552     3.683643858451     1.680047762347     1.007825032230
         H           -0.770094395952     3.676865342051    -1.672936190953     1.007825032230
         H            2.088332092348    -1.645674960149     2.846742680347     1.007825032230
         H           -0.770900621552    -3.291748179149     2.344694671047     1.007825032230
         H           -0.766289151452    -0.383246215149     4.027836196047     1.007825032230

  Charge       = 0
  Multiplicity = 2
  Basis Set: ANONYMOUS56923B58
    Blend: 6-31G_2DFP_
  Basis Set: (ANONYMOUS56923B58 AUX)
    Blend: DEF2-UNIVERSAL-JKFIT

    Orbital Energies [Eh]
    ---------------------

    Alpha Occupied:

       1A    -10.180342     2A    -10.167408     3A    -10.167015
       4A    -10.166620     5A     -0.797767     6A     -0.686368
       7A     -0.686010     8A     -0.530773     9A     -0.441125
      10A     -0.434686    11A     -0.434656    12A     -0.382779
      13A     -0.382423    14A     -0.363614    15A     -0.338177
      16A     -0.337816    17A     -0.168961

    Alpha Virtual:

      18A      0.076071    19A      0.134083    20A      0.134212
      21A      0.142543    22A      0.142724    23A      0.154879
      24A      0.178451    25A      0.179104    26A      0.203546
      27A      0.214806    28A      0.275605    29A      0.276367
      30A      0.399145    31A      0.399292    32A      0.403364
      33A      0.423968    34A      0.424227    35A      0.456592
      36A      0.495268    37A      0.495510    38A      0.512163
      39A      0.513978    40A      0.578744    41A      0.578873
      42A      0.591561    43A      0.591707    44A      0.602581
      45A      0.624765    46A      0.631735    47A      0.635799
      48A      0.636741    49A      0.663391    50A      0.663433
      51A      0.683527    52A      0.684196    53A      0.734995
      54A      0.824974    55A      0.825832    56A      0.853926
      57A      0.914883    58A      0.915170    59A      0.944124
      60A      0.944606    61A      0.961009    62A      0.961587
      63A      1.003458    64A      1.127722    65A      1.128462
      66A      1.142226    67A      1.163242    68A      1.163308
      69A      1.223324    70A      1.274485    71A      1.274499
      72A      1.279355    73A      1.323875    74A      1.324829
      75A      1.355990    76A      1.366015    77A      1.366083
      78A      1.392462    79A      1.403982    80A      1.404113
      81A      1.417059    82A      1.417159    83A      1.427917
      84A      1.491492    85A      1.499080    86A      1.542636
      87A      1.543022    88A      1.574385    89A      1.574503
      90A      1.669800    91A      1.739061    92A      1.739753
      93A      1.768332    94A      1.830242    95A      1.832613
      96A      1.971722    97A      2.018233    98A      2.018936
      99A      2.019203   100A      2.051627   101A      2.053690
     102A      2.737981   103A      2.738982   104A      2.790929
     105A      2.811423   106A      2.889683   107A      2.890025
     108A      2.895137   109A      2.929427   110A      2.929564
     111A      2.959000   112A      2.963603   113A      2.965179
     114A      3.034009   115A      3.071208   116A      3.071350
     117A      3.084387   118A      3.168609   119A      3.168972
     120A      3.180589   121A      3.285202   122A      3.285429
     123A      3.326672   124A      3.327645   125A      3.375619
     126A      3.489092   127A      3.491226   128A      3.513993
     129A      3.525302   130A      3.567578   131A      3.569158
     132A      3.575231   133A      3.665454   134A      3.667327
     135A      3.679525   136A      3.694036   137A      3.694295
     138A      3.774864   139A      3.778700   140A      3.789166
     141A      3.912163   142A      3.912256   143A      4.034469
     144A      4.111032   145A      4.111617   146A      4.145546
     147A      4.150642   148A      4.173289   149A      4.200478
     150A      4.203031   151A      4.205279   152A      4.211036
     153A      4.315786   154A      4.316154   155A      4.358946
     156A      4.424169   157A      4.424731   158A      4.443495
     159A      4.516302   160A      4.517358   161A      4.577154
     162A      4.579379   163A      4.617527   164A      4.709455
     165A      4.773884   166A      4.775316   167A      4.836870
     168A      4.962873   169A      5.002917   170A      5.003020
     171A      5.227895   172A      5.243285   173A      5.250401
     174A      5.353489   175A      5.357617   176A      5.479404

    Beta Occupied:

       1A    -10.168171     2A    -10.167775     3A    -10.167378
       4A    -10.166518     5A     -0.781092     6A     -0.684182
       7A     -0.683802     8A     -0.511745     9A     -0.431061
      10A     -0.431023    11A     -0.421822    12A     -0.376884
      13A     -0.376487    14A     -0.362597    15A     -0.333293
      16A     -0.332946

    Beta Virtual:

      17A     -0.025743    18A      0.077080    19A      0.134913
      20A      0.135164    21A      0.144471    22A      0.144535
      23A      0.163338    24A      0.182139    25A      0.182758
      26A      0.215036    27A      0.218929    28A      0.281961
      29A      0.282706    30A      0.400314    31A      0.400477
      32A      0.419795    33A      0.426763    34A      0.427054
      35A      0.468501    36A      0.497536    37A      0.497763
      38A      0.513898    39A      0.556322    40A      0.584290
      41A      0.584428    42A      0.597743    43A      0.597885
      44A      0.610003    45A      0.628140    46A      0.631915
      47A      0.639074    48A      0.640017    49A      0.666971
      50A      0.666979    51A      0.686210    52A      0.686785
      53A      0.757517    54A      0.830144    55A      0.830998
      56A      0.855281    57A      0.922853    58A      0.923144
      59A      0.945961    60A      0.953532    61A      0.966315
      62A      0.966895    63A      1.008697    64A      1.131686
      65A      1.132564    66A      1.155599    67A      1.168301
      68A      1.168389    69A      1.232298    70A      1.280080
      71A      1.280097    72A      1.285112    73A      1.328830
      74A      1.329852    75A      1.365399    76A      1.371282
      77A      1.371309    78A      1.393519    79A      1.407455
      80A      1.407569    81A      1.422057    82A      1.422263
      83A      1.428189    84A      1.492540    85A      1.509523
      86A      1.547028    87A      1.547444    88A      1.582222
      89A      1.582410    90A      1.674647    91A      1.744827
      92A      1.745514    93A      1.779109    94A      1.834133
      95A      1.836432    96A      1.972585    97A      2.025340
      98A      2.025572    99A      2.039617   100A      2.058325
     101A      2.060441   102A      2.746276   103A      2.747358
     104A      2.811836   105A      2.816063   106A      2.902448
     107A      2.902785   108A      2.924669   109A      2.931872
     110A      2.932110   111A      2.960066   112A      2.968120
     113A      2.969745   114A      3.041943   115A      3.081119
     116A      3.081213   117A      3.086252   118A      3.184248
     119A      3.184829   120A      3.188273   121A      3.289971
     122A      3.290257   123A      3.330504   124A      3.331421
     125A      3.383438   126A      3.491833   127A      3.493945
     128A      3.512366   129A      3.528350   130A      3.574898
     131A      3.581008   132A      3.582588   133A      3.670268
     134A      3.671997   135A      3.692893   136A      3.725490
     137A      3.726041   138A      3.779473   139A      3.783164
     140A      3.817689   141A      3.922013   142A      3.922044
     143A      4.045353   144A      4.117623   145A      4.118639
     146A      4.153044   147A      4.157589   148A      4.187342
     149A      4.207307   150A      4.208985   151A      4.212350
     152A      4.215506   153A      4.323367   154A      4.323451
     155A      4.362310   156A      4.432340   157A      4.432972
     158A      4.446392   159A      4.524045   160A      4.525199
     161A      4.587795   162A      4.589935   163A      4.624724
     164A      4.719798   165A      4.780846   166A      4.782261
     167A      4.839786   168A      4.967668   169A      5.006921
     170A      5.007095   171A      5.233600   172A      5.245093
     173A      5.252177   174A      5.360003   175A      5.364059
     176A      5.481724

    Final Occupation by Irrep:
              A
    DOCC [    16 ]
    SOCC [     1 ]

  @DF-UKS Final Energy:  -157.81305590827105

   => Energetics <=

    Nuclear Repulsion Energy =            125.3946684344697360
    One-Electron Energy =                -458.7489621825238828
    Two-Electron Energy =                 195.8483861161093103
    DFT Exchange-Correlation Energy =     -20.3071482763262239
    Empirical Dispersion Energy =           0.0000000000000000
    VV10 Nonlocal Energy =                  0.0000000000000000
    Total Energy =                       -157.8130559082710533

  UHF NO Occupations:
  HONO-2 :   15  A 1.9996008
  HONO-1 :   16  A 1.9989804
  HONO-0 :   17  A 1.0000000
  LUNO+0 :   18  A 0.0010196
  LUNO+1 :   19  A 0.0003992
  LUNO+2 :   20  A 0.0001981
  LUNO+3 :   21  A 0.0001970

Computation Completed

Properties will be evaluated at   0.000000,   0.000000,   0.000000 [a0]

Properties computed using the SCF density matrix

  Nuclear Dipole Moment: [e a0]
     X:     0.8272      Y:    -0.0000      Z:    -0.0008

  Electronic Dipole Moment: [e a0]
     X:    -0.7493      Y:     0.0000      Z:    -0.0017

  Dipole Moment: [e a0]
     X:     0.0779      Y:     0.0000      Z:    -0.0025     Total:     0.0780

  Dipole Moment: [D]
     X:     0.1980      Y:     0.0000      Z:    -0.0063     Total:     0.1981

*** tstop() called on n070 at Fri Nov  5 15:07:04 2021
Module time:
	user time   =     578.03 seconds =       9.63 minutes
	system time =      13.33 seconds =       0.22 minutes
	total time  =        149 seconds =       2.48 minutes
Total time:
	user time   =     578.03 seconds =       9.63 minutes
	system time =      13.33 seconds =       0.22 minutes
	total time  =        149 seconds =       2.48 minutes
Grab this energy -157.81305590827105
    Psi4 stopped on: Friday, 05 November 2021 03:07PM
    Psi4 wall time for execution: 0:02:29.16

*** Psi4 exiting successfully. Buy a developer a beer!
