                               Psi4 1.4a2.dev629

  ==> Input File <==

--------------------------------------------------------------------------
import os
memory 14 GB

molecule {
 C   -0.3233326137    0.0005026469    0.0049994950
 C    0.0623513156   -1.3944335229   -2.4221212655
 C    0.0596421630    2.8018425743   -0.0062277144
 C    0.0613088745   -1.4066790308    2.4308794005
 H    2.0855490235   -1.6352902663   -2.8436409204
 H   -0.7638760102   -0.3776006815   -4.0187954768
 H   -0.7633597985   -3.2879872682   -2.3481904567
 H    2.0909176733    3.2875853326   -0.0111415241
 H   -0.7648099145    3.6878570576    1.6639115898
 H   -0.7703076047    3.6727014931   -1.6827976171
 H    2.0842033679   -1.6528629426    2.8518073460
 H   -0.7679491028   -3.2995192425    2.3486083782
 H   -0.7629452501   -0.3961404634    4.0327087657
units bohr
0 2
}

basis {

assign 6-31g_2dfp_

[ 6-31g_2dfp_ ]

spherical

!----------------------------------------------------------------------
! Basis Set Exchange
! Version v0.8.13
! https://www.basissetexchange.org
!----------------------------------------------------------------------
!   Basis set: 6-31G(2df,p)
! Description: 6-31G(2df,p)
!        Role: orbital
!     Version: 0  (Data from the original Basis Set Exchange)
!----------------------------------------------------------------------

****
H     0
S    3   1.00
     18.7311370              0.03349460
      2.8253937              0.23472695
      0.6401217              0.81375733
S    1   1.00
      0.1612778              1.00000000
P    1   1.00
      1.5000000              1.0000000
P    1   1.00
      0.3750000              1.0000000
****
B     0
S    6   1.00
   2068.8823000              0.0018663
    310.6495700              0.0142515
     70.6830330              0.0695516
     19.8610800              0.2325729
      6.2993048              0.4670787
      2.1270270              0.3634314
SP   3   1.00
      4.7279710             -0.1303938              0.0745976
      1.1903377             -0.1307889              0.3078467
      0.3594117              1.1309444              0.7434568
SP   1   1.00
      0.1267512              1.0000000              1.0000000
D    1   1.00
      0.8020000              1.0000000
D    1   1.00
      0.2005000              1.0000000
F    1   1.00
      0.5000000              1.0000000
****
C     0
S    6   1.00
   3047.5249000              0.0018347
    457.3695100              0.0140373
    103.9486900              0.0688426
     29.2101550              0.2321844
      9.2866630              0.4679413
      3.1639270              0.3623120
SP   3   1.00
      7.8682724             -0.1193324              0.0689991
      1.8812885             -0.1608542              0.3164240
      0.5442493              1.1434564              0.7443083
SP   1   1.00
      0.1687144              1.0000000              1.0000000
D    1   1.00
      1.2520000              1.0000000
D    1   1.00
      0.3130000              1.0000000
F    1   1.00
      0.8000000              1.0000000
****
N     0
S    6   1.00
   4173.5110000              0.0018348
    627.4579000              0.0139950
    142.9021000              0.0685870
     40.2343300              0.2322410
     12.8202100              0.4690700
      4.3904370              0.3604550
SP   3   1.00
     11.6263580             -0.1149610              0.0675800
      2.7162800             -0.1691180              0.3239070
      0.7722180              1.1458520              0.7408950
SP   1   1.00
      0.2120313              1.0000000              1.0000000
D    1   1.00
      1.8260000              1.0000000
D    1   1.00
      0.4565000              1.0000000
F    1   1.00
      1.0000000              1.0000000
****
O     0
S    6   1.00
   5484.6717000              0.0018311
    825.2349500              0.0139501
    188.0469600              0.0684451
     52.9645000              0.2327143
     16.8975700              0.4701930
      5.7996353              0.3585209
SP   3   1.00
     15.5396160             -0.1107775              0.0708743
      3.5999336             -0.1480263              0.3397528
      1.0137618              1.1307670              0.7271586
SP   1   1.00
      0.2700058              1.0000000              1.0000000
D    1   1.00
      2.5840000              1.0000000
D    1   1.00
      0.6460000              1.0000000
F    1   1.00
      1.4000000              1.0000000
****
F     0
S    6   1.00
   7001.7130900              0.0018196169
   1051.3660900              0.0139160796
    239.2856900              0.0684053245
     67.3974453              0.233185760
     21.5199573              0.471267439
      7.40310130             0.356618546
SP   3   1.00
     20.8479528             -0.108506975            0.0716287243
      4.80830834            -0.146451658            0.3459121030
      1.34406986             1.128688580            0.7224699570
SP   1   1.00
      0.358151393            1.0000000              1.0000000
D    1   1.00
      3.5000000              1.0000000
D    1   1.00
      0.8750000              1.0000000
F    1   1.00
      1.8500000              1.0000000
****
Al     0
S    6   1.00
  13983.1000000              0.00194267
   2098.7500000              0.0148599
    477.7050000              0.0728494
    134.3600000              0.2468300
     42.8709000              0.4872580
     14.5189000              0.3234960
SP   6   1.00
    239.6680000             -0.00292619             0.00460285
     57.4419000             -0.0374080              0.0331990
     18.2859000             -0.1144870              0.1362820
      6.5991400              0.1156350              0.3304760
      2.4904900              0.6125950              0.4491460
      0.9445400              0.3937990              0.2657040
SP   3   1.00
      1.2779000             -0.2276060             -0.0175130
      0.3975900              0.00144583             0.2445330
      0.1600950              1.0927900              0.8049340
SP   1   1.00
      0.0556577              1.0000000              1.0000000
D    1   1.00
      0.6500000              1.0000000
D    1   1.00
      0.1625000              1.0000000
F    1   1.00
      0.2500000              1.0000000
****
Si     0
S    6   1.00
  16115.9000000              0.00195948
   2425.5800000              0.01492880
    553.8670000              0.07284780
    156.3400000              0.24613000
     50.0683000              0.48591400
     17.0178000              0.32500200
SP   6   1.00
    292.7180000             -0.00278094             0.00443826
     69.8731000             -0.03571460             0.03266790
     22.3363000             -0.11498500             0.13472100
      8.1503900              0.09356340             0.32867800
      3.1345800              0.60301700             0.44964000
      1.2254300              0.41895900             0.26137200
SP   3   1.00
      1.7273800             -0.24463000            -0.01779510
      0.5729220              0.00431572             0.25353900
      0.2221920              1.09818000             0.80066900
SP   1   1.00
      0.0778369              1.00000000             1.00000000
D    1   1.00
      0.9000000              1.0000000
D    1   1.00
      0.2250000              1.0000000
F    1   1.00
      0.3200000              1.0000000
****
P     0
S    6   1.00
  19413.3000000              0.0018516
   2909.4200000              0.0142062
    661.3640000              0.0699995
    185.7590000              0.2400790
     59.1943000              0.4847620
     20.0310000              0.3352000
SP   6   1.00
    339.4780000             -0.00278217             0.00456462
     81.0101000             -0.0360499              0.03369360
     25.8780000             -0.1166310              0.13975500
      9.4522100              0.0968328              0.33936200
      3.6656600              0.6144180              0.45092100
      1.4674600              0.4037980              0.23858600
SP   3   1.00
      2.1562300             -0.2529230             -0.01776530
      0.7489970              0.0328517              0.27405800
      0.2831450              1.0812500              0.78542100
SP   1   1.00
      0.0998317              1.0000000              1.00000000
D    1   1.00
      1.1000000              1.0000000
D    1   1.00
      0.2750000              1.0000000
F    1   1.00
      0.4500000              1.0000000
****
S     0
S    6   1.00
  21917.1000000              0.0018690
   3301.4900000              0.0142300
    754.1460000              0.0696960
    212.7110000              0.2384870
     67.9896000              0.4833070
     23.0515000              0.3380740
SP   6   1.00
    423.7350000             -0.0023767              0.0040610
    100.7100000             -0.0316930              0.0306810
     32.1599000             -0.1133170              0.1304520
     11.8079000              0.0560900              0.3272050
      4.6311000              0.5922550              0.4528510
      1.8702500              0.4550060              0.2560420
SP   3   1.00
      2.6158400             -0.2503740             -0.0145110
      0.9221670              0.0669570              0.3102630
      0.3412870              1.0545100              0.7544830
SP   1   1.00
      0.1171670              1.0000000              1.0000000
D    1   1.00
      1.3000000              1.0000000
D    1   1.00
      0.3250000              1.0000000
F    1   1.00
      0.5500000              1.0000000
****
Cl     0
S    6   1.00
  25180.1000000              0.0018330
   3780.3500000              0.0140340
    860.4740000              0.0690970
    242.1450000              0.2374520
     77.3349000              0.4830340
     26.2470000              0.3398560
SP   6   1.00
    491.7650000             -0.0022974              0.0039894
    116.9840000             -0.0307140              0.0303180
     37.4153000             -0.1125280              0.1298800
     13.7834000              0.0450160              0.3279510
      5.4521500              0.5893530              0.4535270
      2.2258800              0.4652060              0.2521540
SP   3   1.00
      3.1864900             -0.2518300             -0.0142990
      1.1442700              0.0615890              0.3235720
      0.4203770              1.0601800              0.7435070
SP   1   1.00
      0.1426570              1.0000000              1.0000000
D    1   1.00
      1.5000000              1.0000000
D    1   1.00
      0.3750000              1.0000000
F    1   1.00
      0.7000000              1.0000000
****
}

set {
reference uhf
freeze_core true
e_convergence 10
d_convergence 10
dft_spherical_points 1202
dft_radial_points 99
}

e = energy('b3lyp')

print_out('Grab this energy {0}'.format(e))
--------------------------------------------------------------------------

    Molecular point group: c1

    Geometry (in Bohr), charge = 0, multiplicity = 2:

       Center              X                  Y                   Z               Mass
    ------------   -----------------  -----------------  -----------------  -----------------
         C           -0.323334486659     0.000265655625     0.003549179017    12.000000000000
         C            0.062349442641    -1.394670514175    -2.423571581483    12.000000000000
         C            0.059640290041     2.801605583025    -0.007678030383    12.000000000000
         C            0.061307001541    -1.406916022075     2.429429084517    12.000000000000
         H            2.085547150541    -1.635527257575    -2.845091236383     1.007825032230
         H           -0.763877883159    -0.377837672775    -4.020245792783     1.007825032230
         H           -0.763361671459    -3.288224259475    -2.349640772683     1.007825032230
         H            2.090915800341     3.287348341325    -0.012591840083     1.007825032230
         H           -0.764811787459     3.687620066325     1.662461273817     1.007825032230
         H           -0.770309477659     3.672464501825    -1.684247933083     1.007825032230
         H            2.084201494941    -1.653099933875     2.850357030017     1.007825032230
         H           -0.767950975759    -3.299756233775     2.347158062217     1.007825032230
         H           -0.762947123059    -0.396377454675     4.031258449717     1.007825032230

  Charge       = 0
  Multiplicity = 2
  Basis Set: ANONYMOUSE66763D0
    Blend: 6-31G_2DFP_
  Basis Set: (ANONYMOUSE66763D0 AUX)
    Blend: DEF2-UNIVERSAL-JKFIT

    Orbital Energies [Eh]
    ---------------------

    Alpha Occupied:

       1A    -10.180342     2A    -10.167274     3A    -10.167041
       4A    -10.166731     5A     -0.797770     6A     -0.686407
       7A     -0.685966     8A     -0.530778     9A     -0.441128
      10A     -0.434938    11A     -0.434403    12A     -0.382745
      13A     -0.382450    14A     -0.363610    15A     -0.338273
      16A     -0.337723    17A     -0.168961

    Alpha Virtual:

      18A      0.076071    19A      0.133861    20A      0.134447
      21A      0.142474    22A      0.142777    23A      0.154881
      24A      0.178542    25A      0.179017    26A      0.203545
      27A      0.214808    28A      0.275801    29A      0.276172
      30A      0.399047    31A      0.399344    32A      0.403413
      33A      0.423944    34A      0.424261    35A      0.456594
      36A      0.494954    37A      0.495813    38A      0.512173
      39A      0.513989    40A      0.578496    41A      0.579109
      42A      0.591483    43A      0.591785    44A      0.602583
      45A      0.624767    46A      0.631748    47A      0.636025
      48A      0.636494    49A      0.662992    50A      0.663848
      51A      0.683557    52A      0.684156    53A      0.734994
      54A      0.824585    55A      0.826207    56A      0.853921
      57A      0.914713    58A      0.915340    59A      0.944050
      60A      0.944514    61A      0.961139    62A      0.961661
      63A      1.003469    64A      1.126959    65A      1.129279
      66A      1.142206    67A      1.162769    68A      1.163771
      69A      1.223334    70A      1.273963    71A      1.275008
      72A      1.279375    73A      1.324251    74A      1.324456
      75A      1.355960    76A      1.365302    77A      1.366741
      78A      1.392429    79A      1.403180    80A      1.405010
      81A      1.416397    82A      1.417856    83A      1.427929
      84A      1.491432    85A      1.499062    86A      1.542285
      87A      1.543404    88A      1.572611    89A      1.576388
      90A      1.669815    91A      1.738346    92A      1.740412
      93A      1.768387    94A      1.830452    95A      1.832355
      96A      1.971711    97A      2.017370    98A      2.018442
      99A      2.020553   100A      2.049988   101A      2.055418
     102A      2.738000   103A      2.738971   104A      2.790922
     105A      2.811438   106A      2.889850   107A      2.890018
     108A      2.894973   109A      2.929317   110A      2.929670
     111A      2.958990   112A      2.963432   113A      2.965353
     114A      3.034019   115A      3.070288   116A      3.072238
     117A      3.084401   118A      3.167996   119A      3.169606
     120A      3.180575   121A      3.284537   122A      3.286079
     123A      3.326199   124A      3.328131   125A      3.375673
     126A      3.489585   127A      3.490655   128A      3.514035
     129A      3.525301   130A      3.567159   131A      3.569499
     132A      3.575367   133A      3.665662   134A      3.667117
     135A      3.679651   136A      3.693625   137A      3.694601
     138A      3.775903   139A      3.777615   140A      3.789295
     141A      3.910813   142A      3.913651   143A      4.034458
     144A      4.109934   145A      4.112803   146A      4.146307
     147A      4.149848   148A      4.173217   149A      4.201222
     150A      4.202475   151A      4.204975   152A      4.211075
     153A      4.315123   154A      4.316833   155A      4.359003
     156A      4.424102   157A      4.424708   158A      4.443539
     159A      4.515809   160A      4.517915   161A      4.577183
     162A      4.579337   163A      4.617560   164A      4.709443
     165A      4.773227   166A      4.775978   167A      4.836938
     168A      4.962865   169A      5.001709   170A      5.004202
     171A      5.227993   172A      5.244746   173A      5.248886
     174A      5.354137   175A      5.356932   176A      5.479359

    Beta Occupied:

       1A    -10.168029     2A    -10.167803     3A    -10.167493
       4A    -10.166519     5A     -0.781095     6A     -0.684214
       7A     -0.683765     8A     -0.511750     9A     -0.431317
      10A     -0.430772    11A     -0.421820    12A     -0.376844
      13A     -0.376521    14A     -0.362594    15A     -0.333399
      16A     -0.332842

    Beta Virtual:

      17A     -0.025744    18A      0.077080    19A      0.134749
      20A      0.135341    21A      0.144360    22A      0.144633
      23A      0.163338    24A      0.182197    25A      0.182705
      26A      0.215037    27A      0.218927    28A      0.282136
      29A      0.282532    30A      0.400272    31A      0.400515
      32A      0.419798    33A      0.426743    34A      0.427085
      35A      0.468505    36A      0.497213    37A      0.498080
      38A      0.513908    39A      0.556329    40A      0.584080
      41A      0.584628    42A      0.597638    43A      0.597988
      44A      0.610000    45A      0.628149    46A      0.631915
      47A      0.639285    48A      0.639793    49A      0.666567
      50A      0.667399    51A      0.686159    52A      0.686826
      53A      0.757517    54A      0.829744    55A      0.831384
      56A      0.855275    57A      0.922684    58A      0.923309
      59A      0.945911    60A      0.953428    61A      0.966373
      62A      0.967035    63A      1.008706    64A      1.130996
      65A      1.133301    66A      1.155573    67A      1.167811
      68A      1.168885    69A      1.232303    70A      1.279552
      71A      1.280612    72A      1.285131    73A      1.329228
      74A      1.329459    75A      1.365371    76A      1.370442
      77A      1.372081    78A      1.393494    79A      1.406655
      80A      1.408475    81A      1.421432    82A      1.422912
      83A      1.428203    84A      1.492483    85A      1.509504
      86A      1.546632    87A      1.547866    88A      1.580632
      89A      1.584114    90A      1.674661    91A      1.744112
      92A      1.746179    93A      1.779157    94A      1.834291
      95A      1.836227    96A      1.972575    97A      2.023877
      98A      2.027008    99A      2.039634   100A      2.056820
     101A      2.062033   102A      2.746316   103A      2.747326
     104A      2.811850   105A      2.816057   106A      2.902553
     107A      2.902716   108A      2.924649   109A      2.931884
     110A      2.932072   111A      2.960058   112A      2.968000
     113A      2.969871   114A      3.041953   115A      3.080061
     116A      3.082110   117A      3.086404   118A      3.183813
     119A      3.185248   120A      3.188283   121A      3.289393
     122A      3.290824   123A      3.329992   124A      3.331951
     125A      3.383488   126A      3.492326   127A      3.493367
     128A      3.512413   129A      3.528355   130A      3.574746
     131A      3.580799   132A      3.583013   133A      3.670355
     134A      3.671920   135A      3.692950   136A      3.725291
     137A      3.726183   138A      3.780468   139A      3.782182
     140A      3.817761   141A      3.920628   142A      3.923469
     143A      4.045344   144A      4.116761   145A      4.119603
     146A      4.153590   147A      4.156993   148A      4.187267
     149A      4.207145   150A      4.209942   151A      4.211385
     152A      4.215605   153A      4.322559   154A      4.324274
     155A      4.362366   156A      4.432323   157A      4.432870
     158A      4.446473   159A      4.523668   160A      4.525629
     161A      4.587703   162A      4.590020   163A      4.624755
     164A      4.719788   165A      4.780146   166A      4.782964
     167A      4.839857   168A      4.967659   169A      5.005761
     170A      5.008230   171A      5.233705   172A      5.246542
     173A      5.250662   174A      5.360599   175A      5.363430
     176A      5.481680

    Final Occupation by Irrep:
              A
    DOCC [    16 ]
    SOCC [     1 ]

  @DF-UKS Final Energy:  -157.81305421240529

   => Energetics <=

    Nuclear Repulsion Energy =            125.3948811481297270
    One-Electron Energy =                -458.7493841501509451
    Two-Electron Energy =                 195.8485973623926384
    DFT Exchange-Correlation Energy =     -20.3071485727767325
    Empirical Dispersion Energy =           0.0000000000000000
    VV10 Nonlocal Energy =                  0.0000000000000000
    Total Energy =                       -157.8130542124052909

  UHF NO Occupations:
  HONO-2 :   15  A 1.9996008
  HONO-1 :   16  A 1.9989804
  HONO-0 :   17  A 1.0000000
  LUNO+0 :   18  A 0.0010196
  LUNO+1 :   19  A 0.0003992
  LUNO+2 :   20  A 0.0001979
  LUNO+3 :   21  A 0.0001972

Computation Completed

Properties will be evaluated at   0.000000,   0.000000,   0.000000 [a0]

Properties computed using the SCF density matrix

  Nuclear Dipole Moment: [e a0]
     X:     0.8272      Y:    -0.0017      Z:    -0.0102

  Electronic Dipole Moment: [e a0]
     X:    -0.7493      Y:     0.0023      Z:     0.0110

  Dipole Moment: [e a0]
     X:     0.0779      Y:     0.0006      Z:     0.0008     Total:     0.0779

  Dipole Moment: [D]
     X:     0.1980      Y:     0.0016      Z:     0.0019     Total:     0.1980

*** tstop() called on n065 at Fri Nov  5 14:21:22 2021
Module time:
	user time   =     544.05 seconds =       9.07 minutes
	system time =      12.08 seconds =       0.20 minutes
	total time  =        140 seconds =       2.33 minutes
Total time:
	user time   =     544.05 seconds =       9.07 minutes
	system time =      12.08 seconds =       0.20 minutes
	total time  =        140 seconds =       2.33 minutes
Grab this energy -157.8130542124053
    Psi4 stopped on: Friday, 05 November 2021 02:21PM
    Psi4 wall time for execution: 0:02:19.84

*** Psi4 exiting successfully. Buy a developer a beer!
