                               Psi4 1.4a2.dev629

  ==> Input File <==

--------------------------------------------------------------------------
import os
memory 14 GB

molecule {
 C   -0.3218911159   -0.0000020112   -0.0000000191
 C    0.0602831174   -1.4002330272   -2.4268614701
 C    0.0601633493    2.8018534730    0.0007986039
 C    0.0602831911   -1.4016162396    2.4260628528
 H    2.0869863061   -1.6427036388   -2.8481959784
 H   -0.7645725946   -0.3895224940   -4.0298542810
 H   -0.7660768128   -3.2889554030   -2.3456283739
 H    2.0868474817    3.2880602715    0.0015848757
 H   -0.7648137438    3.6846912514    1.6775597054
 H   -0.7661542961    3.6758222335   -1.6755434888
 H    2.0869864939   -1.6454490975    2.8466119519
 H   -0.7647357642   -3.2951357823    2.3523005064
 H   -0.7659134887   -0.3868338494    4.0211651151
units bohr
0 2
}

basis {

assign 6-31g_2dfp_

[ 6-31g_2dfp_ ]

spherical

!----------------------------------------------------------------------
! Basis Set Exchange
! Version v0.8.13
! https://www.basissetexchange.org
!----------------------------------------------------------------------
!   Basis set: 6-31G(2df,p)
! Description: 6-31G(2df,p)
!        Role: orbital
!     Version: 0  (Data from the original Basis Set Exchange)
!----------------------------------------------------------------------

****
H     0
S    3   1.00
     18.7311370              0.03349460
      2.8253937              0.23472695
      0.6401217              0.81375733
S    1   1.00
      0.1612778              1.00000000
P    1   1.00
      1.5000000              1.0000000
P    1   1.00
      0.3750000              1.0000000
****
B     0
S    6   1.00
   2068.8823000              0.0018663
    310.6495700              0.0142515
     70.6830330              0.0695516
     19.8610800              0.2325729
      6.2993048              0.4670787
      2.1270270              0.3634314
SP   3   1.00
      4.7279710             -0.1303938              0.0745976
      1.1903377             -0.1307889              0.3078467
      0.3594117              1.1309444              0.7434568
SP   1   1.00
      0.1267512              1.0000000              1.0000000
D    1   1.00
      0.8020000              1.0000000
D    1   1.00
      0.2005000              1.0000000
F    1   1.00
      0.5000000              1.0000000
****
C     0
S    6   1.00
   3047.5249000              0.0018347
    457.3695100              0.0140373
    103.9486900              0.0688426
     29.2101550              0.2321844
      9.2866630              0.4679413
      3.1639270              0.3623120
SP   3   1.00
      7.8682724             -0.1193324              0.0689991
      1.8812885             -0.1608542              0.3164240
      0.5442493              1.1434564              0.7443083
SP   1   1.00
      0.1687144              1.0000000              1.0000000
D    1   1.00
      1.2520000              1.0000000
D    1   1.00
      0.3130000              1.0000000
F    1   1.00
      0.8000000              1.0000000
****
N     0
S    6   1.00
   4173.5110000              0.0018348
    627.4579000              0.0139950
    142.9021000              0.0685870
     40.2343300              0.2322410
     12.8202100              0.4690700
      4.3904370              0.3604550
SP   3   1.00
     11.6263580             -0.1149610              0.0675800
      2.7162800             -0.1691180              0.3239070
      0.7722180              1.1458520              0.7408950
SP   1   1.00
      0.2120313              1.0000000              1.0000000
D    1   1.00
      1.8260000              1.0000000
D    1   1.00
      0.4565000              1.0000000
F    1   1.00
      1.0000000              1.0000000
****
O     0
S    6   1.00
   5484.6717000              0.0018311
    825.2349500              0.0139501
    188.0469600              0.0684451
     52.9645000              0.2327143
     16.8975700              0.4701930
      5.7996353              0.3585209
SP   3   1.00
     15.5396160             -0.1107775              0.0708743
      3.5999336             -0.1480263              0.3397528
      1.0137618              1.1307670              0.7271586
SP   1   1.00
      0.2700058              1.0000000              1.0000000
D    1   1.00
      2.5840000              1.0000000
D    1   1.00
      0.6460000              1.0000000
F    1   1.00
      1.4000000              1.0000000
****
F     0
S    6   1.00
   7001.7130900              0.0018196169
   1051.3660900              0.0139160796
    239.2856900              0.0684053245
     67.3974453              0.233185760
     21.5199573              0.471267439
      7.40310130             0.356618546
SP   3   1.00
     20.8479528             -0.108506975            0.0716287243
      4.80830834            -0.146451658            0.3459121030
      1.34406986             1.128688580            0.7224699570
SP   1   1.00
      0.358151393            1.0000000              1.0000000
D    1   1.00
      3.5000000              1.0000000
D    1   1.00
      0.8750000              1.0000000
F    1   1.00
      1.8500000              1.0000000
****
Al     0
S    6   1.00
  13983.1000000              0.00194267
   2098.7500000              0.0148599
    477.7050000              0.0728494
    134.3600000              0.2468300
     42.8709000              0.4872580
     14.5189000              0.3234960
SP   6   1.00
    239.6680000             -0.00292619             0.00460285
     57.4419000             -0.0374080              0.0331990
     18.2859000             -0.1144870              0.1362820
      6.5991400              0.1156350              0.3304760
      2.4904900              0.6125950              0.4491460
      0.9445400              0.3937990              0.2657040
SP   3   1.00
      1.2779000             -0.2276060             -0.0175130
      0.3975900              0.00144583             0.2445330
      0.1600950              1.0927900              0.8049340
SP   1   1.00
      0.0556577              1.0000000              1.0000000
D    1   1.00
      0.6500000              1.0000000
D    1   1.00
      0.1625000              1.0000000
F    1   1.00
      0.2500000              1.0000000
****
Si     0
S    6   1.00
  16115.9000000              0.00195948
   2425.5800000              0.01492880
    553.8670000              0.07284780
    156.3400000              0.24613000
     50.0683000              0.48591400
     17.0178000              0.32500200
SP   6   1.00
    292.7180000             -0.00278094             0.00443826
     69.8731000             -0.03571460             0.03266790
     22.3363000             -0.11498500             0.13472100
      8.1503900              0.09356340             0.32867800
      3.1345800              0.60301700             0.44964000
      1.2254300              0.41895900             0.26137200
SP   3   1.00
      1.7273800             -0.24463000            -0.01779510
      0.5729220              0.00431572             0.25353900
      0.2221920              1.09818000             0.80066900
SP   1   1.00
      0.0778369              1.00000000             1.00000000
D    1   1.00
      0.9000000              1.0000000
D    1   1.00
      0.2250000              1.0000000
F    1   1.00
      0.3200000              1.0000000
****
P     0
S    6   1.00
  19413.3000000              0.0018516
   2909.4200000              0.0142062
    661.3640000              0.0699995
    185.7590000              0.2400790
     59.1943000              0.4847620
     20.0310000              0.3352000
SP   6   1.00
    339.4780000             -0.00278217             0.00456462
     81.0101000             -0.0360499              0.03369360
     25.8780000             -0.1166310              0.13975500
      9.4522100              0.0968328              0.33936200
      3.6656600              0.6144180              0.45092100
      1.4674600              0.4037980              0.23858600
SP   3   1.00
      2.1562300             -0.2529230             -0.01776530
      0.7489970              0.0328517              0.27405800
      0.2831450              1.0812500              0.78542100
SP   1   1.00
      0.0998317              1.0000000              1.00000000
D    1   1.00
      1.1000000              1.0000000
D    1   1.00
      0.2750000              1.0000000
F    1   1.00
      0.4500000              1.0000000
****
S     0
S    6   1.00
  21917.1000000              0.0018690
   3301.4900000              0.0142300
    754.1460000              0.0696960
    212.7110000              0.2384870
     67.9896000              0.4833070
     23.0515000              0.3380740
SP   6   1.00
    423.7350000             -0.0023767              0.0040610
    100.7100000             -0.0316930              0.0306810
     32.1599000             -0.1133170              0.1304520
     11.8079000              0.0560900              0.3272050
      4.6311000              0.5922550              0.4528510
      1.8702500              0.4550060              0.2560420
SP   3   1.00
      2.6158400             -0.2503740             -0.0145110
      0.9221670              0.0669570              0.3102630
      0.3412870              1.0545100              0.7544830
SP   1   1.00
      0.1171670              1.0000000              1.0000000
D    1   1.00
      1.3000000              1.0000000
D    1   1.00
      0.3250000              1.0000000
F    1   1.00
      0.5500000              1.0000000
****
Cl     0
S    6   1.00
  25180.1000000              0.0018330
   3780.3500000              0.0140340
    860.4740000              0.0690970
    242.1450000              0.2374520
     77.3349000              0.4830340
     26.2470000              0.3398560
SP   6   1.00
    491.7650000             -0.0022974              0.0039894
    116.9840000             -0.0307140              0.0303180
     37.4153000             -0.1125280              0.1298800
     13.7834000              0.0450160              0.3279510
      5.4521500              0.5893530              0.4535270
      2.2258800              0.4652060              0.2521540
SP   3   1.00
      3.1864900             -0.2518300             -0.0142990
      1.1442700              0.0615890              0.3235720
      0.4203770              1.0601800              0.7435070
SP   1   1.00
      0.1426570              1.0000000              1.0000000
D    1   1.00
      1.5000000              1.0000000
D    1   1.00
      0.3750000              1.0000000
F    1   1.00
      0.7000000              1.0000000
****
}

set {
reference uhf
freeze_core true
e_convergence 10
d_convergence 10
dft_spherical_points 1202
dft_radial_points 99
}

e = energy('b3lyp')

print_out('Grab this energy {0}'.format(e))
--------------------------------------------------------------------------

    Molecular point group: c1

    Geometry (in Bohr), charge = 0, multiplicity = 2:

       Center              X                  Y                   Z               Mass
    ------------   -----------------  -----------------  -----------------  -----------------
         C           -0.321675112075    -0.000002004611    -0.000000012838    12.000000000000
         C            0.060499121225    -1.400233020611    -2.426861463838    12.000000000000
         C            0.060379353125     2.801853479589     0.000798610162    12.000000000000
         C            0.060499194925    -1.401616233011     2.426062859062    12.000000000000
         H            2.087202309925    -1.642703632211    -2.848195972138     1.007825032230
         H           -0.764356590775    -0.389522487411    -4.029854274739     1.007825032230
         H           -0.765860808975    -3.288955396411    -2.345628367638     1.007825032230
         H            2.087063485525     3.288060278089     0.001584881962     1.007825032230
         H           -0.764597739975     3.684691257989     1.677559711661     1.007825032230
         H           -0.765938292275     3.675822240089    -1.675543482539     1.007825032230
         H            2.087202497725    -1.645449090911     2.846611958162     1.007825032230
         H           -0.764519760375    -3.295135775711     2.352300512662     1.007825032230
         H           -0.765697484875    -0.386833842811     4.021165121361     1.007825032230

  Charge       = 0
  Multiplicity = 2
  Basis Set: ANONYMOUS9E65F9C2
    Blend: 6-31G_2DFP_
  Basis Set: (ANONYMOUS9E65F9C2 AUX)
    Blend: DEF2-UNIVERSAL-JKFIT

    Orbital Energies [Eh]
    ---------------------

    Alpha Occupied:

       1A    -10.180277     2A    -10.167039     3A    -10.167038
       4A    -10.166993     5A     -0.797782     6A     -0.686205
       7A     -0.686204     8A     -0.530770     9A     -0.441067
      10A     -0.434736    11A     -0.434736    12A     -0.382492
      13A     -0.382490    14A     -0.363736    15A     -0.338090
      16A     -0.338090    17A     -0.168778

    Alpha Virtual:

      18A      0.076069    19A      0.134157    20A      0.134158
      21A      0.142652    22A      0.142653    23A      0.154799
      24A      0.178710    25A      0.178710    26A      0.203503
      27A      0.214867    28A      0.276157    29A      0.276158
      30A      0.399248    31A      0.399252    32A      0.403423
      33A      0.424126    34A      0.424126    35A      0.456499
      36A      0.495415    37A      0.495416    38A      0.512115
      39A      0.514079    40A      0.578684    41A      0.578693
      42A      0.591607    43A      0.591609    44A      0.602351
      45A      0.624768    46A      0.631914    47A      0.636403
      48A      0.636406    49A      0.663252    50A      0.663252
      51A      0.683962    52A      0.683963    53A      0.735189
      54A      0.825461    55A      0.825464    56A      0.853914
      57A      0.915087    58A      0.915093    59A      0.943973
      60A      0.944654    61A      0.961267    62A      0.961284
      63A      1.003467    64A      1.128006    65A      1.128018
      66A      1.142201    67A      1.162832    68A      1.162844
      69A      1.223487    70A      1.274560    71A      1.274563
      72A      1.279109    73A      1.324605    74A      1.324608
      75A      1.355739    76A      1.366422    77A      1.366427
      78A      1.392460    79A      1.403980    80A      1.403982
      81A      1.416889    82A      1.416896    83A      1.427865
      84A      1.491677    85A      1.498690    86A      1.542781
      87A      1.542784    88A      1.574728    89A      1.574730
      90A      1.670100    91A      1.739657    92A      1.739669
      93A      1.768262    94A      1.831783    95A      1.831784
      96A      1.971990    97A      2.018748    98A      2.018752
      99A      2.019312   100A      2.052248   101A      2.052248
     102A      2.738679   103A      2.738680   104A      2.790721
     105A      2.811460   106A      2.890203   107A      2.890209
     108A      2.894626   109A      2.929473   110A      2.929481
     111A      2.959065   112A      2.964479   113A      2.964493
     114A      3.033659   115A      3.072121   116A      3.072134
     117A      3.084418   118A      3.168660   119A      3.168667
     120A      3.180619   121A      3.284503   122A      3.284504
     123A      3.326820   124A      3.326825   125A      3.375446
     126A      3.490372   127A      3.490392   128A      3.514105
     129A      3.524961   130A      3.568667   131A      3.568688
     132A      3.574527   133A      3.666958   134A      3.666966
     135A      3.679872   136A      3.694031   137A      3.694047
     138A      3.777092   139A      3.777118   140A      3.790380
     141A      3.912260   142A      3.912266   143A      4.034772
     144A      4.111607   145A      4.111612   146A      4.148152
     147A      4.148160   148A      4.173267   149A      4.202795
     150A      4.202798   151A      4.203005   152A      4.210802
     153A      4.315750   154A      4.315770   155A      4.358477
     156A      4.424611   157A      4.424614   158A      4.443695
     159A      4.516544   160A      4.516545   161A      4.578151
     162A      4.578164   163A      4.618039   164A      4.709104
     165A      4.774738   166A      4.774746   167A      4.838108
     168A      4.962790   169A      5.002798   170A      5.002810
     171A      5.228149   172A      5.246923   173A      5.246923
     174A      5.355775   175A      5.355788   176A      5.479714

    Beta Occupied:

       1A    -10.167794     2A    -10.167794     3A    -10.167767
       4A    -10.166459     5A     -0.781102     6A     -0.684010
       7A     -0.684009     8A     -0.511750     9A     -0.431117
      10A     -0.431117    11A     -0.421735    12A     -0.376566
      13A     -0.376565    14A     -0.362721    15A     -0.333210
      16A     -0.333209

    Beta Virtual:

      17A     -0.025642    18A      0.077083    19A      0.135057
      20A      0.135058    21A      0.144520    22A      0.144520
      23A      0.163270    24A      0.182380    25A      0.182381
      26A      0.215030    27A      0.218974    28A      0.282492
      29A      0.282494    30A      0.400417    31A      0.400421
      32A      0.419897    33A      0.426934    34A      0.426935
      35A      0.468393    36A      0.497671    37A      0.497672
      38A      0.513855    39A      0.556424    40A      0.584248
      41A      0.584256    42A      0.597781    43A      0.597782
      44A      0.609800    45A      0.628065    46A      0.632124
      47A      0.639683    48A      0.639687    49A      0.666813
      50A      0.666814    51A      0.686602    52A      0.686604
      53A      0.757691    54A      0.830626    55A      0.830628
      56A      0.855271    57A      0.923047    58A      0.923054
      59A      0.945894    60A      0.953510    61A      0.966607
      62A      0.966623    63A      1.008687    64A      1.132025
      65A      1.132037    66A      1.155611    67A      1.167910
      68A      1.167922    69A      1.232463    70A      1.280140
      71A      1.280144    72A      1.284853    73A      1.329587
      74A      1.329588    75A      1.365179    76A      1.371669
      77A      1.371673    78A      1.393525    79A      1.407452
      80A      1.407455    81A      1.421957    82A      1.421964
      83A      1.428128    84A      1.492728    85A      1.509126
      86A      1.547191    87A      1.547192    88A      1.582600
      89A      1.582600    90A      1.674931    91A      1.745420
      92A      1.745432    93A      1.779063    94A      1.835647
      95A      1.835648    96A      1.972853    97A      2.025157
      98A      2.025161    99A      2.040677   100A      2.058941
     101A      2.058941   102A      2.747015   103A      2.747016
     104A      2.811854   105A      2.815886   106A      2.902846
     107A      2.902852   108A      2.924350   109A      2.931964
     110A      2.931973   111A      2.960131   112A      2.969014
     113A      2.969028   114A      3.041635   115A      3.081992
     116A      3.082004   117A      3.086239   118A      3.184517
     119A      3.184521   120A      3.188244   121A      3.289340
     122A      3.289340   123A      3.330618   124A      3.330623
     125A      3.383254   126A      3.493085   127A      3.493105
     128A      3.512490   129A      3.527972   130A      3.574387
     131A      3.581959   132A      3.581980   133A      3.671721
     134A      3.671732   135A      3.693169   136A      3.725660
     137A      3.725675   138A      3.781579   139A      3.781605
     140A      3.818936   141A      3.922113   142A      3.922120
     143A      4.045631   144A      4.118439   145A      4.118441
     146A      4.155345   147A      4.155354   148A      4.187366
     149A      4.208732   150A      4.208736   151A      4.210957
     152A      4.215303   153A      4.323170   154A      4.323190
     155A      4.361840   156A      4.432870   157A      4.432873
     158A      4.446572   159A      4.524352   160A      4.524353
     161A      4.588719   162A      4.588731   163A      4.625238
     164A      4.719421   165A      4.781677   166A      4.781685
     167A      4.841017   168A      4.967587   169A      5.006851
     170A      5.006864   171A      5.233863   172A      5.248707
     173A      5.248707   174A      5.362246   175A      5.362260
     176A      5.482029

    Final Occupation by Irrep:
              A
    DOCC [    16 ]
    SOCC [     1 ]

  @DF-UKS Final Energy:  -157.81307562572107

   => Energetics <=

    Nuclear Repulsion Energy =            125.3970284583600687
    One-Electron Energy =                -458.7535498712786648
    Two-Electron Energy =                 195.8506567812174808
    DFT Exchange-Correlation Energy =     -20.3072109940199610
    Empirical Dispersion Energy =           0.0000000000000000
    VV10 Nonlocal Energy =                  0.0000000000000000
    Total Energy =                       -157.8130756257210692

  UHF NO Occupations:
  HONO-2 :   15  A 1.9995994
  HONO-1 :   16  A 1.9989790
  HONO-0 :   17  A 1.0000000
  LUNO+0 :   18  A 0.0010210
  LUNO+1 :   19  A 0.0004006
  LUNO+2 :   20  A 0.0001974
  LUNO+3 :   21  A 0.0001974

Computation Completed

Properties will be evaluated at   0.000000,   0.000000,   0.000000 [a0]

Properties computed using the SCF density matrix

  Nuclear Dipole Moment: [e a0]
     X:     0.8287      Y:    -0.0000      Z:     0.0000

  Electronic Dipole Moment: [e a0]
     X:    -0.7516      Y:     0.0000      Z:    -0.0000

  Dipole Moment: [e a0]
     X:     0.0771      Y:     0.0000      Z:    -0.0000     Total:     0.0771

  Dipole Moment: [D]
     X:     0.1961      Y:     0.0000      Z:    -0.0000     Total:     0.1961

*** tstop() called on n080 at Fri Nov  5 11:38:15 2021
Module time:
	user time   =     466.19 seconds =       7.77 minutes
	system time =       4.28 seconds =       0.07 minutes
	total time  =        118 seconds =       1.97 minutes
Total time:
	user time   =     466.19 seconds =       7.77 minutes
	system time =       4.28 seconds =       0.07 minutes
	total time  =        118 seconds =       1.97 minutes
Grab this energy -157.81307562572107
    Psi4 stopped on: Friday, 05 November 2021 11:38AM
    Psi4 wall time for execution: 0:01:58.37

*** Psi4 exiting successfully. Buy a developer a beer!
