                               Psi4 1.4a2.dev629

  ==> Input File <==

--------------------------------------------------------------------------
import os
memory 14 GB

molecule {
 C   -0.3233394336    0.0004302558   -0.0000025035
 C    0.0609884050   -1.3999033184   -2.4270045225
 C    0.0613300760    2.8016526891   -0.0000486682
 C    0.0609846719   -1.3998227643    2.4270521095
 H    2.0873942278   -1.6455080367   -2.8466221168
 H   -0.7587974340   -0.3882240152   -4.0243957931
 H   -0.7725357667   -3.2921974899   -2.3501207480
 H    2.0858823429    3.2881134743   -0.0046477343
 H   -0.7612874902    3.6798753054    1.6794026623
 H   -0.7693031653    3.6803352586   -1.6754217869
 H    2.0873845845   -1.6374391593    2.8512801762
 H   -0.7644999048   -3.2954406373    2.3477287899
 H   -0.7668089903   -0.3918958758    4.0228001355
units bohr
0 2
}

basis {

assign 6-31g_2dfp_

[ 6-31g_2dfp_ ]

spherical

!----------------------------------------------------------------------
! Basis Set Exchange
! Version v0.8.13
! https://www.basissetexchange.org
!----------------------------------------------------------------------
!   Basis set: 6-31G(2df,p)
! Description: 6-31G(2df,p)
!        Role: orbital
!     Version: 0  (Data from the original Basis Set Exchange)
!----------------------------------------------------------------------

****
H     0
S    3   1.00
     18.7311370              0.03349460
      2.8253937              0.23472695
      0.6401217              0.81375733
S    1   1.00
      0.1612778              1.00000000
P    1   1.00
      1.5000000              1.0000000
P    1   1.00
      0.3750000              1.0000000
****
B     0
S    6   1.00
   2068.8823000              0.0018663
    310.6495700              0.0142515
     70.6830330              0.0695516
     19.8610800              0.2325729
      6.2993048              0.4670787
      2.1270270              0.3634314
SP   3   1.00
      4.7279710             -0.1303938              0.0745976
      1.1903377             -0.1307889              0.3078467
      0.3594117              1.1309444              0.7434568
SP   1   1.00
      0.1267512              1.0000000              1.0000000
D    1   1.00
      0.8020000              1.0000000
D    1   1.00
      0.2005000              1.0000000
F    1   1.00
      0.5000000              1.0000000
****
C     0
S    6   1.00
   3047.5249000              0.0018347
    457.3695100              0.0140373
    103.9486900              0.0688426
     29.2101550              0.2321844
      9.2866630              0.4679413
      3.1639270              0.3623120
SP   3   1.00
      7.8682724             -0.1193324              0.0689991
      1.8812885             -0.1608542              0.3164240
      0.5442493              1.1434564              0.7443083
SP   1   1.00
      0.1687144              1.0000000              1.0000000
D    1   1.00
      1.2520000              1.0000000
D    1   1.00
      0.3130000              1.0000000
F    1   1.00
      0.8000000              1.0000000
****
N     0
S    6   1.00
   4173.5110000              0.0018348
    627.4579000              0.0139950
    142.9021000              0.0685870
     40.2343300              0.2322410
     12.8202100              0.4690700
      4.3904370              0.3604550
SP   3   1.00
     11.6263580             -0.1149610              0.0675800
      2.7162800             -0.1691180              0.3239070
      0.7722180              1.1458520              0.7408950
SP   1   1.00
      0.2120313              1.0000000              1.0000000
D    1   1.00
      1.8260000              1.0000000
D    1   1.00
      0.4565000              1.0000000
F    1   1.00
      1.0000000              1.0000000
****
O     0
S    6   1.00
   5484.6717000              0.0018311
    825.2349500              0.0139501
    188.0469600              0.0684451
     52.9645000              0.2327143
     16.8975700              0.4701930
      5.7996353              0.3585209
SP   3   1.00
     15.5396160             -0.1107775              0.0708743
      3.5999336             -0.1480263              0.3397528
      1.0137618              1.1307670              0.7271586
SP   1   1.00
      0.2700058              1.0000000              1.0000000
D    1   1.00
      2.5840000              1.0000000
D    1   1.00
      0.6460000              1.0000000
F    1   1.00
      1.4000000              1.0000000
****
F     0
S    6   1.00
   7001.7130900              0.0018196169
   1051.3660900              0.0139160796
    239.2856900              0.0684053245
     67.3974453              0.233185760
     21.5199573              0.471267439
      7.40310130             0.356618546
SP   3   1.00
     20.8479528             -0.108506975            0.0716287243
      4.80830834            -0.146451658            0.3459121030
      1.34406986             1.128688580            0.7224699570
SP   1   1.00
      0.358151393            1.0000000              1.0000000
D    1   1.00
      3.5000000              1.0000000
D    1   1.00
      0.8750000              1.0000000
F    1   1.00
      1.8500000              1.0000000
****
Al     0
S    6   1.00
  13983.1000000              0.00194267
   2098.7500000              0.0148599
    477.7050000              0.0728494
    134.3600000              0.2468300
     42.8709000              0.4872580
     14.5189000              0.3234960
SP   6   1.00
    239.6680000             -0.00292619             0.00460285
     57.4419000             -0.0374080              0.0331990
     18.2859000             -0.1144870              0.1362820
      6.5991400              0.1156350              0.3304760
      2.4904900              0.6125950              0.4491460
      0.9445400              0.3937990              0.2657040
SP   3   1.00
      1.2779000             -0.2276060             -0.0175130
      0.3975900              0.00144583             0.2445330
      0.1600950              1.0927900              0.8049340
SP   1   1.00
      0.0556577              1.0000000              1.0000000
D    1   1.00
      0.6500000              1.0000000
D    1   1.00
      0.1625000              1.0000000
F    1   1.00
      0.2500000              1.0000000
****
Si     0
S    6   1.00
  16115.9000000              0.00195948
   2425.5800000              0.01492880
    553.8670000              0.07284780
    156.3400000              0.24613000
     50.0683000              0.48591400
     17.0178000              0.32500200
SP   6   1.00
    292.7180000             -0.00278094             0.00443826
     69.8731000             -0.03571460             0.03266790
     22.3363000             -0.11498500             0.13472100
      8.1503900              0.09356340             0.32867800
      3.1345800              0.60301700             0.44964000
      1.2254300              0.41895900             0.26137200
SP   3   1.00
      1.7273800             -0.24463000            -0.01779510
      0.5729220              0.00431572             0.25353900
      0.2221920              1.09818000             0.80066900
SP   1   1.00
      0.0778369              1.00000000             1.00000000
D    1   1.00
      0.9000000              1.0000000
D    1   1.00
      0.2250000              1.0000000
F    1   1.00
      0.3200000              1.0000000
****
P     0
S    6   1.00
  19413.3000000              0.0018516
   2909.4200000              0.0142062
    661.3640000              0.0699995
    185.7590000              0.2400790
     59.1943000              0.4847620
     20.0310000              0.3352000
SP   6   1.00
    339.4780000             -0.00278217             0.00456462
     81.0101000             -0.0360499              0.03369360
     25.8780000             -0.1166310              0.13975500
      9.4522100              0.0968328              0.33936200
      3.6656600              0.6144180              0.45092100
      1.4674600              0.4037980              0.23858600
SP   3   1.00
      2.1562300             -0.2529230             -0.01776530
      0.7489970              0.0328517              0.27405800
      0.2831450              1.0812500              0.78542100
SP   1   1.00
      0.0998317              1.0000000              1.00000000
D    1   1.00
      1.1000000              1.0000000
D    1   1.00
      0.2750000              1.0000000
F    1   1.00
      0.4500000              1.0000000
****
S     0
S    6   1.00
  21917.1000000              0.0018690
   3301.4900000              0.0142300
    754.1460000              0.0696960
    212.7110000              0.2384870
     67.9896000              0.4833070
     23.0515000              0.3380740
SP   6   1.00
    423.7350000             -0.0023767              0.0040610
    100.7100000             -0.0316930              0.0306810
     32.1599000             -0.1133170              0.1304520
     11.8079000              0.0560900              0.3272050
      4.6311000              0.5922550              0.4528510
      1.8702500              0.4550060              0.2560420
SP   3   1.00
      2.6158400             -0.2503740             -0.0145110
      0.9221670              0.0669570              0.3102630
      0.3412870              1.0545100              0.7544830
SP   1   1.00
      0.1171670              1.0000000              1.0000000
D    1   1.00
      1.3000000              1.0000000
D    1   1.00
      0.3250000              1.0000000
F    1   1.00
      0.5500000              1.0000000
****
Cl     0
S    6   1.00
  25180.1000000              0.0018330
   3780.3500000              0.0140340
    860.4740000              0.0690970
    242.1450000              0.2374520
     77.3349000              0.4830340
     26.2470000              0.3398560
SP   6   1.00
    491.7650000             -0.0022974              0.0039894
    116.9840000             -0.0307140              0.0303180
     37.4153000             -0.1125280              0.1298800
     13.7834000              0.0450160              0.3279510
      5.4521500              0.5893530              0.4535270
      2.2258800              0.4652060              0.2521540
SP   3   1.00
      3.1864900             -0.2518300             -0.0142990
      1.1442700              0.0615890              0.3235720
      0.4203770              1.0601800              0.7435070
SP   1   1.00
      0.1426570              1.0000000              1.0000000
D    1   1.00
      1.5000000              1.0000000
D    1   1.00
      0.3750000              1.0000000
F    1   1.00
      0.7000000              1.0000000
****
}

set {
reference uhf
freeze_core true
e_convergence 10
d_convergence 10
dft_spherical_points 1202
dft_radial_points 99
}

e = energy('b3lyp')

print_out('Grab this energy {0}'.format(e))
--------------------------------------------------------------------------

    Molecular point group: c1

    Geometry (in Bohr), charge = 0, multiplicity = 2:

       Center              X                  Y                   Z               Mass
    ------------   -----------------  -----------------  -----------------  -----------------
         C           -0.323340147043    -0.000023263472    -0.000001813063    12.000000000000
         C            0.060987691557    -1.400356837672    -2.427003832063    12.000000000000
         C            0.061329362557     2.801199169828    -0.000047977763    12.000000000000
         C            0.060983958457    -1.400276283572     2.427052799937    12.000000000000
         H            2.087393514357    -1.645961555972    -2.846621426363     1.007825032230
         H           -0.758798147443    -0.388677534472    -4.024395102663     1.007825032230
         H           -0.772536480143    -3.292651009172    -2.350120057563     1.007825032230
         H            2.085881629457     3.287659955028    -0.004647043863     1.007825032230
         H           -0.761288203643     3.679421786128     1.679403352737     1.007825032230
         H           -0.769303878743     3.679881739328    -1.675421096463     1.007825032230
         H            2.087383871057    -1.637892678572     2.851280866637     1.007825032230
         H           -0.764500618243    -3.295894156572     2.347729480337     1.007825032230
         H           -0.766809703743    -0.392349395072     4.022800825937     1.007825032230

  Charge       = 0
  Multiplicity = 2
  Basis Set: ANONYMOUS8F6644F0
    Blend: 6-31G_2DFP_
  Basis Set: (ANONYMOUS8F6644F0 AUX)
    Blend: DEF2-UNIVERSAL-JKFIT

    Orbital Energies [Eh]
    ---------------------

    Alpha Occupied:

       1A    -10.180342     2A    -10.167034     3A    -10.167026
       4A    -10.166984     5A     -0.797766     6A     -0.686248
       7A     -0.686127     8A     -0.530778     9A     -0.441126
      10A     -0.434854    11A     -0.434484    12A     -0.382622
      13A     -0.382576    14A     -0.363612    15A     -0.338160
      16A     -0.337837    17A     -0.168961

    Alpha Virtual:

      18A      0.076070    19A      0.134040    20A      0.134268
      21A      0.142424    22A      0.142832    23A      0.154882
      24A      0.178683    25A      0.178872    26A      0.203546
      27A      0.214803    28A      0.275876    29A      0.276096
      30A      0.398978    31A      0.399477    32A      0.403345
      33A      0.423935    34A      0.424259    35A      0.456593
      36A      0.495339    37A      0.495441    38A      0.512147
      39A      0.513993    40A      0.578763    41A      0.578871
      42A      0.591490    43A      0.591775    44A      0.602569
      45A      0.624717    46A      0.631771    47A      0.635965
      48A      0.636579    49A      0.663202    50A      0.663622
      51A      0.683656    52A      0.684064    53A      0.734994
      54A      0.825155    55A      0.825661    56A      0.853914
      57A      0.914812    58A      0.915235    59A      0.944010
      60A      0.944713    61A      0.961225    62A      0.961373
      63A      1.003467    64A      1.127825    65A      1.128403
      66A      1.142224    67A      1.163202    68A      1.163336
      69A      1.223323    70A      1.274241    71A      1.274729
      72A      1.279354    73A      1.324142    74A      1.324563
      75A      1.355974    76A      1.365742    77A      1.366359
      78A      1.392464    79A      1.404006    80A      1.404094
      81A      1.416413    82A      1.417813    83A      1.427898
      84A      1.491471    85A      1.499095    86A      1.542813
      87A      1.542857    88A      1.574251    89A      1.574642
      90A      1.669832    91A      1.738716    92A      1.740113
      93A      1.768322    94A      1.830625    95A      1.832149
      96A      1.971752    97A      2.017863    98A      2.018462
      99A      2.020055   100A      2.052106   101A      2.053186
     102A      2.738303   103A      2.738667   104A      2.790917
     105A      2.811427   106A      2.889804   107A      2.890102
     108A      2.894942   109A      2.929478   110A      2.929517
     111A      2.958960   112A      2.964361   113A      2.964430
     114A      3.034009   115A      3.070751   116A      3.071751
     117A      3.084438   118A      3.168369   119A      3.169192
     120A      3.180588   121A      3.285151   122A      3.285469
     123A      3.326786   124A      3.327538   125A      3.375630
     126A      3.489900   127A      3.490435   128A      3.514001
     129A      3.525335   130A      3.567966   131A      3.568817
     132A      3.575127   133A      3.665937   134A      3.666870
     135A      3.679642   136A      3.693910   137A      3.694358
     138A      3.776700   139A      3.776884   140A      3.789127
     141A      3.911640   142A      3.912802   143A      4.034447
     144A      4.110805   145A      4.111873   146A      4.147739
     147A      4.148435   148A      4.173341   149A      4.202287
     150A      4.202673   151A      4.203745   152A      4.210990
     153A      4.315308   154A      4.316630   155A      4.358975
     156A      4.423915   157A      4.425003   158A      4.443446
     159A      4.515795   160A      4.517880   161A      4.578267
     162A      4.578274   163A      4.617548   164A      4.709422
     165A      4.773604   166A      4.775602   167A      4.836908
     168A      4.962864   169A      5.002590   170A      5.003327
     171A      5.227584   172A      5.246867   173A      5.247162
     174A      5.354236   175A      5.356796   176A      5.479412

    Beta Occupied:

       1A    -10.167788     2A    -10.167779     3A    -10.167757
       4A    -10.166519     5A     -0.781091     6A     -0.684053
       7A     -0.683928     8A     -0.511749     9A     -0.431229
      10A     -0.430855    11A     -0.421820    12A     -0.376703
      13A     -0.376666    14A     -0.362596    15A     -0.333279
      16A     -0.332964

    Beta Virtual:

      17A     -0.025742    18A      0.077079    19A      0.134906
      20A      0.135183    21A      0.144266    22A      0.144730
      23A      0.163340    24A      0.182355    25A      0.182542
      26A      0.215032    27A      0.218930    28A      0.282225
      29A      0.282444    30A      0.400144    31A      0.400650
      32A      0.419791    33A      0.426746    34A      0.427070
      35A      0.468501    36A      0.497594    37A      0.497706
      38A      0.513895    39A      0.556326    40A      0.584315
      41A      0.584419    42A      0.597646    43A      0.597976
      44A      0.609993    45A      0.628095    46A      0.631929
      47A      0.639269    48A      0.639843    49A      0.666782
      50A      0.667170    51A      0.686313    52A      0.686676
      53A      0.757518    54A      0.830335    55A      0.830817
      56A      0.855267    57A      0.922804    58A      0.923186
      59A      0.945943    60A      0.953543    61A      0.966514
      62A      0.966697    63A      1.008707    64A      1.131858
      65A      1.132425    66A      1.155603    67A      1.168280
      68A      1.168404    69A      1.232294    70A      1.279821
      71A      1.280342    72A      1.285109    73A      1.329133
      74A      1.329550    75A      1.365384    76A      1.371048
      77A      1.371540    78A      1.393529    79A      1.407452
      80A      1.407577    81A      1.421516    82A      1.422812
      83A      1.428167    84A      1.492534    85A      1.509524
      86A      1.547192    87A      1.547296    88A      1.582118
      89A      1.582515    90A      1.674679    91A      1.744462
      92A      1.745892    93A      1.779100    94A      1.834477
      95A      1.836008    96A      1.972613    97A      2.024890
      98A      2.025963    99A      2.039695   100A      2.058807
     101A      2.059926   102A      2.746627   103A      2.747015
     104A      2.811792   105A      2.816100   106A      2.902449
     107A      2.902833   108A      2.924652   109A      2.931951
     110A      2.932003   111A      2.960036   112A      2.968883
     113A      2.968983   114A      3.041943   115A      3.080662
     116A      3.081515   117A      3.086402   118A      3.184156
     119A      3.184899   120A      3.188277   121A      3.289939
     122A      3.290280   123A      3.330556   124A      3.331377
     125A      3.383448   126A      3.492643   127A      3.493152
     128A      3.512370   129A      3.528375   130A      3.574990
     131A      3.581226   132A      3.582236   133A      3.670815
     134A      3.671480   135A      3.692948   136A      3.725721
     137A      3.725804   138A      3.781193   139A      3.781448
     140A      3.817667   141A      3.921389   142A      3.922685
     143A      4.045335   144A      4.117411   145A      4.118902
     146A      4.154735   147A      4.155869   148A      4.187377
     149A      4.208269   150A      4.209636   151A      4.210627
     152A      4.215484   153A      4.322791   154A      4.324032
     155A      4.362337   156A      4.432145   157A      4.433200
     158A      4.446330   159A      4.523578   160A      4.525676
     161A      4.588837   162A      4.588909   163A      4.624740
     164A      4.719766   165A      4.780584   166A      4.782529
     167A      4.839825   168A      4.967659   169A      5.006631
     170A      5.007364   171A      5.233193   172A      5.248640
     173A      5.249068   174A      5.360724   175A      5.363263
     176A      5.481734

    Final Occupation by Irrep:
              A
    DOCC [    16 ]
    SOCC [     1 ]

  @DF-UKS Final Energy:  -157.81306132239050

   => Energetics <=

    Nuclear Repulsion Energy =            125.3946199703240865
    One-Electron Energy =                -458.7488808957065771
    Two-Electron Energy =                 195.8483450198471871
    DFT Exchange-Correlation Energy =     -20.3071454168551817
    Empirical Dispersion Energy =           0.0000000000000000
    VV10 Nonlocal Energy =                  0.0000000000000000
    Total Energy =                       -157.8130613223904959

  UHF NO Occupations:
  HONO-2 :   15  A 1.9996009
  HONO-1 :   16  A 1.9989805
  HONO-0 :   17  A 1.0000000
  LUNO+0 :   18  A 0.0010195
  LUNO+1 :   19  A 0.0003991
  LUNO+2 :   20  A 0.0001976
  LUNO+3 :   21  A 0.0001975

Computation Completed

Properties will be evaluated at   0.000000,   0.000000,   0.000000 [a0]

Properties computed using the SCF density matrix

  Nuclear Dipole Moment: [e a0]
     X:     0.8272      Y:    -0.0032      Z:     0.0000

  Electronic Dipole Moment: [e a0]
     X:    -0.7493      Y:     0.0050      Z:    -0.0000

  Dipole Moment: [e a0]
     X:     0.0779      Y:     0.0017      Z:    -0.0000     Total:     0.0779

  Dipole Moment: [D]
     X:     0.1980      Y:     0.0044      Z:    -0.0000     Total:     0.1981

*** tstop() called on n089 at Fri Nov  5 14:28:03 2021
Module time:
	user time   =     477.27 seconds =       7.95 minutes
	system time =       4.51 seconds =       0.08 minutes
	total time  =        121 seconds =       2.02 minutes
Total time:
	user time   =     477.27 seconds =       7.95 minutes
	system time =       4.51 seconds =       0.08 minutes
	total time  =        121 seconds =       2.02 minutes
Grab this energy -157.8130613223905
    Psi4 stopped on: Friday, 05 November 2021 02:28PM
    Psi4 wall time for execution: 0:02:01.17

*** Psi4 exiting successfully. Buy a developer a beer!
