                               Psi4 1.4a2.dev629

  ==> Input File <==

--------------------------------------------------------------------------
import os
memory 14 GB

molecule {
 C   -0.3233528362   -0.0000021273    0.0000000178
 C    0.0609565819   -1.4014426236   -2.4241600313
 C    0.0608368541    2.8001201182   -0.0015994981
 C    0.0609563780   -1.3986721426    2.4257593575
 H    2.0868830532   -1.6438086980   -2.8481826398
 H   -0.7650873975   -0.3882603287   -4.0259452376
 H   -0.7656447531   -3.2919198721   -2.3496648602
 H    2.0867441489    3.2886003847    0.0006210791
 H   -0.7653284353    3.6806746250    1.6766983076
 H   -0.7657225319    3.6808000704   -1.6760926627
 H    2.0868830199   -1.6448844657    2.8475616130
 H   -0.7652505712   -3.2923817091    2.3492534214
 H   -0.7654813877   -0.3888475448    4.0257511334
units bohr
0 2
}

basis {

assign 6-31g_2dfp_

[ 6-31g_2dfp_ ]

spherical

!----------------------------------------------------------------------
! Basis Set Exchange
! Version v0.8.13
! https://www.basissetexchange.org
!----------------------------------------------------------------------
!   Basis set: 6-31G(2df,p)
! Description: 6-31G(2df,p)
!        Role: orbital
!     Version: 0  (Data from the original Basis Set Exchange)
!----------------------------------------------------------------------

****
H     0
S    3   1.00
     18.7311370              0.03349460
      2.8253937              0.23472695
      0.6401217              0.81375733
S    1   1.00
      0.1612778              1.00000000
P    1   1.00
      1.5000000              1.0000000
P    1   1.00
      0.3750000              1.0000000
****
B     0
S    6   1.00
   2068.8823000              0.0018663
    310.6495700              0.0142515
     70.6830330              0.0695516
     19.8610800              0.2325729
      6.2993048              0.4670787
      2.1270270              0.3634314
SP   3   1.00
      4.7279710             -0.1303938              0.0745976
      1.1903377             -0.1307889              0.3078467
      0.3594117              1.1309444              0.7434568
SP   1   1.00
      0.1267512              1.0000000              1.0000000
D    1   1.00
      0.8020000              1.0000000
D    1   1.00
      0.2005000              1.0000000
F    1   1.00
      0.5000000              1.0000000
****
C     0
S    6   1.00
   3047.5249000              0.0018347
    457.3695100              0.0140373
    103.9486900              0.0688426
     29.2101550              0.2321844
      9.2866630              0.4679413
      3.1639270              0.3623120
SP   3   1.00
      7.8682724             -0.1193324              0.0689991
      1.8812885             -0.1608542              0.3164240
      0.5442493              1.1434564              0.7443083
SP   1   1.00
      0.1687144              1.0000000              1.0000000
D    1   1.00
      1.2520000              1.0000000
D    1   1.00
      0.3130000              1.0000000
F    1   1.00
      0.8000000              1.0000000
****
N     0
S    6   1.00
   4173.5110000              0.0018348
    627.4579000              0.0139950
    142.9021000              0.0685870
     40.2343300              0.2322410
     12.8202100              0.4690700
      4.3904370              0.3604550
SP   3   1.00
     11.6263580             -0.1149610              0.0675800
      2.7162800             -0.1691180              0.3239070
      0.7722180              1.1458520              0.7408950
SP   1   1.00
      0.2120313              1.0000000              1.0000000
D    1   1.00
      1.8260000              1.0000000
D    1   1.00
      0.4565000              1.0000000
F    1   1.00
      1.0000000              1.0000000
****
O     0
S    6   1.00
   5484.6717000              0.0018311
    825.2349500              0.0139501
    188.0469600              0.0684451
     52.9645000              0.2327143
     16.8975700              0.4701930
      5.7996353              0.3585209
SP   3   1.00
     15.5396160             -0.1107775              0.0708743
      3.5999336             -0.1480263              0.3397528
      1.0137618              1.1307670              0.7271586
SP   1   1.00
      0.2700058              1.0000000              1.0000000
D    1   1.00
      2.5840000              1.0000000
D    1   1.00
      0.6460000              1.0000000
F    1   1.00
      1.4000000              1.0000000
****
F     0
S    6   1.00
   7001.7130900              0.0018196169
   1051.3660900              0.0139160796
    239.2856900              0.0684053245
     67.3974453              0.233185760
     21.5199573              0.471267439
      7.40310130             0.356618546
SP   3   1.00
     20.8479528             -0.108506975            0.0716287243
      4.80830834            -0.146451658            0.3459121030
      1.34406986             1.128688580            0.7224699570
SP   1   1.00
      0.358151393            1.0000000              1.0000000
D    1   1.00
      3.5000000              1.0000000
D    1   1.00
      0.8750000              1.0000000
F    1   1.00
      1.8500000              1.0000000
****
Al     0
S    6   1.00
  13983.1000000              0.00194267
   2098.7500000              0.0148599
    477.7050000              0.0728494
    134.3600000              0.2468300
     42.8709000              0.4872580
     14.5189000              0.3234960
SP   6   1.00
    239.6680000             -0.00292619             0.00460285
     57.4419000             -0.0374080              0.0331990
     18.2859000             -0.1144870              0.1362820
      6.5991400              0.1156350              0.3304760
      2.4904900              0.6125950              0.4491460
      0.9445400              0.3937990              0.2657040
SP   3   1.00
      1.2779000             -0.2276060             -0.0175130
      0.3975900              0.00144583             0.2445330
      0.1600950              1.0927900              0.8049340
SP   1   1.00
      0.0556577              1.0000000              1.0000000
D    1   1.00
      0.6500000              1.0000000
D    1   1.00
      0.1625000              1.0000000
F    1   1.00
      0.2500000              1.0000000
****
Si     0
S    6   1.00
  16115.9000000              0.00195948
   2425.5800000              0.01492880
    553.8670000              0.07284780
    156.3400000              0.24613000
     50.0683000              0.48591400
     17.0178000              0.32500200
SP   6   1.00
    292.7180000             -0.00278094             0.00443826
     69.8731000             -0.03571460             0.03266790
     22.3363000             -0.11498500             0.13472100
      8.1503900              0.09356340             0.32867800
      3.1345800              0.60301700             0.44964000
      1.2254300              0.41895900             0.26137200
SP   3   1.00
      1.7273800             -0.24463000            -0.01779510
      0.5729220              0.00431572             0.25353900
      0.2221920              1.09818000             0.80066900
SP   1   1.00
      0.0778369              1.00000000             1.00000000
D    1   1.00
      0.9000000              1.0000000
D    1   1.00
      0.2250000              1.0000000
F    1   1.00
      0.3200000              1.0000000
****
P     0
S    6   1.00
  19413.3000000              0.0018516
   2909.4200000              0.0142062
    661.3640000              0.0699995
    185.7590000              0.2400790
     59.1943000              0.4847620
     20.0310000              0.3352000
SP   6   1.00
    339.4780000             -0.00278217             0.00456462
     81.0101000             -0.0360499              0.03369360
     25.8780000             -0.1166310              0.13975500
      9.4522100              0.0968328              0.33936200
      3.6656600              0.6144180              0.45092100
      1.4674600              0.4037980              0.23858600
SP   3   1.00
      2.1562300             -0.2529230             -0.01776530
      0.7489970              0.0328517              0.27405800
      0.2831450              1.0812500              0.78542100
SP   1   1.00
      0.0998317              1.0000000              1.00000000
D    1   1.00
      1.1000000              1.0000000
D    1   1.00
      0.2750000              1.0000000
F    1   1.00
      0.4500000              1.0000000
****
S     0
S    6   1.00
  21917.1000000              0.0018690
   3301.4900000              0.0142300
    754.1460000              0.0696960
    212.7110000              0.2384870
     67.9896000              0.4833070
     23.0515000              0.3380740
SP   6   1.00
    423.7350000             -0.0023767              0.0040610
    100.7100000             -0.0316930              0.0306810
     32.1599000             -0.1133170              0.1304520
     11.8079000              0.0560900              0.3272050
      4.6311000              0.5922550              0.4528510
      1.8702500              0.4550060              0.2560420
SP   3   1.00
      2.6158400             -0.2503740             -0.0145110
      0.9221670              0.0669570              0.3102630
      0.3412870              1.0545100              0.7544830
SP   1   1.00
      0.1171670              1.0000000              1.0000000
D    1   1.00
      1.3000000              1.0000000
D    1   1.00
      0.3250000              1.0000000
F    1   1.00
      0.5500000              1.0000000
****
Cl     0
S    6   1.00
  25180.1000000              0.0018330
   3780.3500000              0.0140340
    860.4740000              0.0690970
    242.1450000              0.2374520
     77.3349000              0.4830340
     26.2470000              0.3398560
SP   6   1.00
    491.7650000             -0.0022974              0.0039894
    116.9840000             -0.0307140              0.0303180
     37.4153000             -0.1125280              0.1298800
     13.7834000              0.0450160              0.3279510
      5.4521500              0.5893530              0.4535270
      2.2258800              0.4652060              0.2521540
SP   3   1.00
      3.1864900             -0.2518300             -0.0142990
      1.1442700              0.0615890              0.3235720
      0.4203770              1.0601800              0.7435070
SP   1   1.00
      0.1426570              1.0000000              1.0000000
D    1   1.00
      1.5000000              1.0000000
D    1   1.00
      0.3750000              1.0000000
F    1   1.00
      0.7000000              1.0000000
****
}

set {
reference uhf
freeze_core true
e_convergence 10
d_convergence 10
dft_spherical_points 1202
dft_radial_points 99
}

e = energy('b3lyp')

print_out('Grab this energy {0}'.format(e))
--------------------------------------------------------------------------

    Molecular point group: c1

    Geometry (in Bohr), charge = 0, multiplicity = 2:

       Center              X                  Y                   Z               Mass
    ------------   -----------------  -----------------  -----------------  -----------------
         C           -0.323244391146    -0.000002319039     0.000000047479    12.000000000000
         C            0.061065026954    -1.401442815339    -2.424160001621    12.000000000000
         C            0.060945299154     2.800119926461    -0.001599468421    12.000000000000
         C            0.061064823054    -1.398672334339     2.425759387179    12.000000000000
         H            2.086991498254    -1.643808889739    -2.848182610121     1.007825032230
         H           -0.764978952446    -0.388260520439    -4.025945207921     1.007825032230
         H           -0.765536308046    -3.291920063839    -2.349664830521     1.007825032230
         H            2.086852593954     3.288600192961     0.000621108779     1.007825032230
         H           -0.765219990246     3.680674433261     1.676698337279     1.007825032230
         H           -0.765614086846     3.680799878661    -1.676092633021     1.007825032230
         H            2.086991464954    -1.644884657439     2.847561642679     1.007825032230
         H           -0.765142126146    -3.292381900839     2.349253451079     1.007825032230
         H           -0.765372942646    -0.388847736539     4.025751163079     1.007825032230

  Charge       = 0
  Multiplicity = 2
  Basis Set: ANONYMOUS10DA8703
    Blend: 6-31G_2DFP_
  Basis Set: (ANONYMOUS10DA8703 AUX)
    Blend: DEF2-UNIVERSAL-JKFIT

    Orbital Energies [Eh]
    ---------------------

    Alpha Occupied:

       1A    -10.180290     2A    -10.167083     3A    -10.167083
       4A    -10.167037     5A     -0.798023     6A     -0.686196
       7A     -0.686196     8A     -0.530942     9A     -0.441134
      10A     -0.434740    11A     -0.434740    12A     -0.382462
      13A     -0.382460    14A     -0.363409    15A     -0.338158
      16A     -0.338158    17A     -0.168982

    Alpha Virtual:

      18A      0.076065    19A      0.134097    20A      0.134098
      21A      0.142495    22A      0.142495    23A      0.154985
      24A      0.178613    25A      0.178613    26A      0.203835
      27A      0.214680    28A      0.276225    29A      0.276227
      30A      0.399221    31A      0.399225    32A      0.403252
      33A      0.424043    34A      0.424044    35A      0.456774
      36A      0.495380    37A      0.495381    38A      0.512098
      39A      0.513928    40A      0.578770    41A      0.578779
      42A      0.591533    43A      0.591534    44A      0.602528
      45A      0.624631    46A      0.631559    47A      0.636301
      48A      0.636305    49A      0.663526    50A      0.663527
      51A      0.683839    52A      0.683840    53A      0.734862
      54A      0.825427    55A      0.825429    56A      0.854052
      57A      0.914982    58A      0.914988    59A      0.944172
      60A      0.944926    61A      0.961217    62A      0.961234
      63A      1.003284    64A      1.128180    65A      1.128193
      66A      1.142637    67A      1.162653    68A      1.162665
      69A      1.223751    70A      1.274616    71A      1.274619
      72A      1.279516    73A      1.324555    74A      1.324557
      75A      1.356320    76A      1.366197    77A      1.366201
      78A      1.391971    79A      1.403334    80A      1.403336
      81A      1.417085    82A      1.417092    83A      1.427652
      84A      1.491971    85A      1.498549    86A      1.542984
      87A      1.542986    88A      1.574552    89A      1.574555
      90A      1.669039    91A      1.739915    92A      1.739927
      93A      1.768299    94A      1.830968    95A      1.830969
      96A      1.972328    97A      2.018082    98A      2.019790
      99A      2.019795   100A      2.053073   101A      2.053074
     102A      2.738661   103A      2.738662   104A      2.791139
     105A      2.811521   106A      2.890055   107A      2.890061
     108A      2.895346   109A      2.929335   110A      2.929343
     111A      2.958947   112A      2.964342   113A      2.964356
     114A      3.034183   115A      3.071226   116A      3.071240
     117A      3.084753   118A      3.168882   119A      3.168890
     120A      3.181180   121A      3.284981   122A      3.284981
     123A      3.327404   124A      3.327410   125A      3.375519
     126A      3.490239   127A      3.490258   128A      3.514131
     129A      3.525700   130A      3.568622   131A      3.568643
     132A      3.575011   133A      3.665584   134A      3.665592
     135A      3.679085   136A      3.694026   137A      3.694042
     138A      3.776853   139A      3.776879   140A      3.788823
     141A      3.913320   142A      3.913327   143A      4.035016
     144A      4.111095   145A      4.111100   146A      4.148122
     147A      4.148130   148A      4.173923   149A      4.203520
     150A      4.203738   151A      4.203742   152A      4.211206
     153A      4.315818   154A      4.315838   155A      4.358336
     156A      4.423282   157A      4.423285   158A      4.441460
     159A      4.517182   160A      4.517183   161A      4.578989
     162A      4.579001   163A      4.617908   164A      4.710740
     165A      4.775381   166A      4.775389   167A      4.838228
     168A      4.961554   169A      5.002065   170A      5.002077
     171A      5.227515   172A      5.246533   173A      5.246533
     174A      5.355658   175A      5.355671   176A      5.480571

    Beta Occupied:

       1A    -10.167838     2A    -10.167837     3A    -10.167811
       4A    -10.166478     5A     -0.781333     6A     -0.683993
       7A     -0.683993     8A     -0.511960     9A     -0.431092
      10A     -0.431092    11A     -0.421789    12A     -0.376531
      13A     -0.376529    14A     -0.362389    15A     -0.333296
      16A     -0.333296

    Beta Virtual:

      17A     -0.025912    18A      0.077077    19A      0.134995
      20A      0.134996    21A      0.144367    22A      0.144368
      23A      0.163486    24A      0.182299    25A      0.182300
      26A      0.214905    27A      0.219174    28A      0.282554
      29A      0.282556    30A      0.400397    31A      0.400401
      32A      0.419708    33A      0.426856    34A      0.426856
      35A      0.468758    36A      0.497648    37A      0.497648
      38A      0.513849    39A      0.556236    40A      0.584319
      41A      0.584328    42A      0.597703    43A      0.597704
      44A      0.609945    45A      0.628037    46A      0.631725
      47A      0.639604    48A      0.639608    49A      0.667092
      50A      0.667092    51A      0.686484    52A      0.686486
      53A      0.757309    54A      0.830611    55A      0.830613
      56A      0.855417    57A      0.922950    58A      0.922956
      59A      0.946016    60A      0.953867    61A      0.966532
      62A      0.966548    63A      1.008514    64A      1.132202
      65A      1.132213    66A      1.156055    67A      1.167716
      68A      1.167729    69A      1.232666    70A      1.280245
      71A      1.280249    72A      1.285245    73A      1.329566
      74A      1.329568    75A      1.365745    76A      1.371377
      77A      1.371381    78A      1.393040    79A      1.406833
      80A      1.406836    81A      1.422137    82A      1.422144
      83A      1.427909    84A      1.493056    85A      1.508989
      86A      1.547415    87A      1.547415    88A      1.582407
      89A      1.582407    90A      1.673880    91A      1.745674
      92A      1.745685    93A      1.779120    94A      1.834848
      95A      1.834849    96A      1.973195    97A      2.026253
      98A      2.026257    99A      2.039464   100A      2.059748
     101A      2.059748   102A      2.746965   103A      2.746966
     104A      2.811891   105A      2.816282   106A      2.902702
     107A      2.902708   108A      2.925095   109A      2.931844
     110A      2.931853   111A      2.960007   112A      2.968918
     113A      2.968932   114A      3.042160   115A      3.081182
     116A      3.081194   117A      3.086577   118A      3.184544
     119A      3.184548   120A      3.188827   121A      3.289828
     122A      3.289829   123A      3.331203   124A      3.331209
     125A      3.383370   126A      3.492978   127A      3.492997
     128A      3.512500   129A      3.528699   130A      3.574877
     131A      3.581890   132A      3.581912   133A      3.670158
     134A      3.670168   135A      3.692378   136A      3.725763
     137A      3.725779   138A      3.781440   139A      3.781467
     140A      3.817315   141A      3.923098   142A      3.923106
     143A      4.045824   144A      4.118007   145A      4.118010
     146A      4.155277   147A      4.155286   148A      4.188039
     149A      4.209675   150A      4.209679   151A      4.211524
     152A      4.215698   153A      4.323165   154A      4.323186
     155A      4.361720   156A      4.431565   157A      4.431569
     158A      4.444341   159A      4.525035   160A      4.525036
     161A      4.589609   162A      4.589621   163A      4.625120
     164A      4.721088   165A      4.782332   166A      4.782340
     167A      4.841142   168A      4.966371   169A      5.006126
     170A      5.006140   171A      5.233248   172A      5.248327
     173A      5.248327   174A      5.362166   175A      5.362180
     176A      5.482900

    Final Occupation by Irrep:
              A
    DOCC [    16 ]
    SOCC [     1 ]

  @DF-UKS Final Energy:  -157.81309182351700

   => Energetics <=

    Nuclear Repulsion Energy =            125.4225591409363858
    One-Electron Energy =                -458.8038817575231860
    Two-Electron Energy =                 195.8752573172754126
    DFT Exchange-Correlation Energy =     -20.3070265242056394
    Empirical Dispersion Energy =           0.0000000000000000
    VV10 Nonlocal Energy =                  0.0000000000000000
    Total Energy =                       -157.8130918235169986

  UHF NO Occupations:
  HONO-2 :   15  A 1.9995993
  HONO-1 :   16  A 1.9989827
  HONO-0 :   17  A 1.0000000
  LUNO+0 :   18  A 0.0010173
  LUNO+1 :   19  A 0.0004007
  LUNO+2 :   20  A 0.0001968
  LUNO+3 :   21  A 0.0001968

Computation Completed

Properties will be evaluated at   0.000000,   0.000000,   0.000000 [a0]

Properties computed using the SCF density matrix

  Nuclear Dipole Moment: [e a0]
     X:     0.8280      Y:    -0.0000      Z:     0.0000

  Electronic Dipole Moment: [e a0]
     X:    -0.7502      Y:     0.0000      Z:    -0.0000

  Dipole Moment: [e a0]
     X:     0.0778      Y:     0.0000      Z:     0.0000     Total:     0.0778

  Dipole Moment: [D]
     X:     0.1977      Y:     0.0000      Z:     0.0000     Total:     0.1977

*** tstop() called on n082 at Fri Nov  5 12:42:08 2021
Module time:
	user time   =     497.78 seconds =       8.30 minutes
	system time =       4.59 seconds =       0.08 minutes
	total time  =        126 seconds =       2.10 minutes
Total time:
	user time   =     497.78 seconds =       8.30 minutes
	system time =       4.59 seconds =       0.08 minutes
	total time  =        126 seconds =       2.10 minutes
Grab this energy -157.813091823517
    Psi4 stopped on: Friday, 05 November 2021 12:42PM
    Psi4 wall time for execution: 0:02:06.31

*** Psi4 exiting successfully. Buy a developer a beer!
