                               Psi4 1.4a2.dev629

  ==> Input File <==

--------------------------------------------------------------------------
import os
memory 14 GB

molecule {
 C   -0.3233319042   -0.0050089645   -0.0019989000
 C    0.0607039307   -1.3973204311   -2.4321468249
 C    0.0616258593    2.7938386195   -0.0011512717
 C    0.0609732636   -1.3990457995    2.4328370295
 H    2.0867358875   -1.6342717220   -2.8537932889
 H   -0.7685752464   -0.3821753089   -4.0294118390
 H   -0.7625841535   -3.2887237622   -2.3600041714
 H    2.0875752868    3.2789441069   -0.0040933447
 H   -0.7632119320    3.6666947938    1.6770965071
 H   -0.7659585879    3.6779478237   -1.6754952563
 H    2.0863495125   -1.6417728948    2.8586411774
 H   -0.7648359879   -3.2917832892    2.3642724321
 H   -0.7680738053   -0.3773474854    4.0252477507
units bohr
0 2
}

basis {

assign 6-31g_2dfp_

[ 6-31g_2dfp_ ]

spherical

!----------------------------------------------------------------------
! Basis Set Exchange
! Version v0.8.13
! https://www.basissetexchange.org
!----------------------------------------------------------------------
!   Basis set: 6-31G(2df,p)
! Description: 6-31G(2df,p)
!        Role: orbital
!     Version: 0  (Data from the original Basis Set Exchange)
!----------------------------------------------------------------------

****
H     0
S    3   1.00
     18.7311370              0.03349460
      2.8253937              0.23472695
      0.6401217              0.81375733
S    1   1.00
      0.1612778              1.00000000
P    1   1.00
      1.5000000              1.0000000
P    1   1.00
      0.3750000              1.0000000
****
B     0
S    6   1.00
   2068.8823000              0.0018663
    310.6495700              0.0142515
     70.6830330              0.0695516
     19.8610800              0.2325729
      6.2993048              0.4670787
      2.1270270              0.3634314
SP   3   1.00
      4.7279710             -0.1303938              0.0745976
      1.1903377             -0.1307889              0.3078467
      0.3594117              1.1309444              0.7434568
SP   1   1.00
      0.1267512              1.0000000              1.0000000
D    1   1.00
      0.8020000              1.0000000
D    1   1.00
      0.2005000              1.0000000
F    1   1.00
      0.5000000              1.0000000
****
C     0
S    6   1.00
   3047.5249000              0.0018347
    457.3695100              0.0140373
    103.9486900              0.0688426
     29.2101550              0.2321844
      9.2866630              0.4679413
      3.1639270              0.3623120
SP   3   1.00
      7.8682724             -0.1193324              0.0689991
      1.8812885             -0.1608542              0.3164240
      0.5442493              1.1434564              0.7443083
SP   1   1.00
      0.1687144              1.0000000              1.0000000
D    1   1.00
      1.2520000              1.0000000
D    1   1.00
      0.3130000              1.0000000
F    1   1.00
      0.8000000              1.0000000
****
N     0
S    6   1.00
   4173.5110000              0.0018348
    627.4579000              0.0139950
    142.9021000              0.0685870
     40.2343300              0.2322410
     12.8202100              0.4690700
      4.3904370              0.3604550
SP   3   1.00
     11.6263580             -0.1149610              0.0675800
      2.7162800             -0.1691180              0.3239070
      0.7722180              1.1458520              0.7408950
SP   1   1.00
      0.2120313              1.0000000              1.0000000
D    1   1.00
      1.8260000              1.0000000
D    1   1.00
      0.4565000              1.0000000
F    1   1.00
      1.0000000              1.0000000
****
O     0
S    6   1.00
   5484.6717000              0.0018311
    825.2349500              0.0139501
    188.0469600              0.0684451
     52.9645000              0.2327143
     16.8975700              0.4701930
      5.7996353              0.3585209
SP   3   1.00
     15.5396160             -0.1107775              0.0708743
      3.5999336             -0.1480263              0.3397528
      1.0137618              1.1307670              0.7271586
SP   1   1.00
      0.2700058              1.0000000              1.0000000
D    1   1.00
      2.5840000              1.0000000
D    1   1.00
      0.6460000              1.0000000
F    1   1.00
      1.4000000              1.0000000
****
F     0
S    6   1.00
   7001.7130900              0.0018196169
   1051.3660900              0.0139160796
    239.2856900              0.0684053245
     67.3974453              0.233185760
     21.5199573              0.471267439
      7.40310130             0.356618546
SP   3   1.00
     20.8479528             -0.108506975            0.0716287243
      4.80830834            -0.146451658            0.3459121030
      1.34406986             1.128688580            0.7224699570
SP   1   1.00
      0.358151393            1.0000000              1.0000000
D    1   1.00
      3.5000000              1.0000000
D    1   1.00
      0.8750000              1.0000000
F    1   1.00
      1.8500000              1.0000000
****
Al     0
S    6   1.00
  13983.1000000              0.00194267
   2098.7500000              0.0148599
    477.7050000              0.0728494
    134.3600000              0.2468300
     42.8709000              0.4872580
     14.5189000              0.3234960
SP   6   1.00
    239.6680000             -0.00292619             0.00460285
     57.4419000             -0.0374080              0.0331990
     18.2859000             -0.1144870              0.1362820
      6.5991400              0.1156350              0.3304760
      2.4904900              0.6125950              0.4491460
      0.9445400              0.3937990              0.2657040
SP   3   1.00
      1.2779000             -0.2276060             -0.0175130
      0.3975900              0.00144583             0.2445330
      0.1600950              1.0927900              0.8049340
SP   1   1.00
      0.0556577              1.0000000              1.0000000
D    1   1.00
      0.6500000              1.0000000
D    1   1.00
      0.1625000              1.0000000
F    1   1.00
      0.2500000              1.0000000
****
Si     0
S    6   1.00
  16115.9000000              0.00195948
   2425.5800000              0.01492880
    553.8670000              0.07284780
    156.3400000              0.24613000
     50.0683000              0.48591400
     17.0178000              0.32500200
SP   6   1.00
    292.7180000             -0.00278094             0.00443826
     69.8731000             -0.03571460             0.03266790
     22.3363000             -0.11498500             0.13472100
      8.1503900              0.09356340             0.32867800
      3.1345800              0.60301700             0.44964000
      1.2254300              0.41895900             0.26137200
SP   3   1.00
      1.7273800             -0.24463000            -0.01779510
      0.5729220              0.00431572             0.25353900
      0.2221920              1.09818000             0.80066900
SP   1   1.00
      0.0778369              1.00000000             1.00000000
D    1   1.00
      0.9000000              1.0000000
D    1   1.00
      0.2250000              1.0000000
F    1   1.00
      0.3200000              1.0000000
****
P     0
S    6   1.00
  19413.3000000              0.0018516
   2909.4200000              0.0142062
    661.3640000              0.0699995
    185.7590000              0.2400790
     59.1943000              0.4847620
     20.0310000              0.3352000
SP   6   1.00
    339.4780000             -0.00278217             0.00456462
     81.0101000             -0.0360499              0.03369360
     25.8780000             -0.1166310              0.13975500
      9.4522100              0.0968328              0.33936200
      3.6656600              0.6144180              0.45092100
      1.4674600              0.4037980              0.23858600
SP   3   1.00
      2.1562300             -0.2529230             -0.01776530
      0.7489970              0.0328517              0.27405800
      0.2831450              1.0812500              0.78542100
SP   1   1.00
      0.0998317              1.0000000              1.00000000
D    1   1.00
      1.1000000              1.0000000
D    1   1.00
      0.2750000              1.0000000
F    1   1.00
      0.4500000              1.0000000
****
S     0
S    6   1.00
  21917.1000000              0.0018690
   3301.4900000              0.0142300
    754.1460000              0.0696960
    212.7110000              0.2384870
     67.9896000              0.4833070
     23.0515000              0.3380740
SP   6   1.00
    423.7350000             -0.0023767              0.0040610
    100.7100000             -0.0316930              0.0306810
     32.1599000             -0.1133170              0.1304520
     11.8079000              0.0560900              0.3272050
      4.6311000              0.5922550              0.4528510
      1.8702500              0.4550060              0.2560420
SP   3   1.00
      2.6158400             -0.2503740             -0.0145110
      0.9221670              0.0669570              0.3102630
      0.3412870              1.0545100              0.7544830
SP   1   1.00
      0.1171670              1.0000000              1.0000000
D    1   1.00
      1.3000000              1.0000000
D    1   1.00
      0.3250000              1.0000000
F    1   1.00
      0.5500000              1.0000000
****
Cl     0
S    6   1.00
  25180.1000000              0.0018330
   3780.3500000              0.0140340
    860.4740000              0.0690970
    242.1450000              0.2374520
     77.3349000              0.4830340
     26.2470000              0.3398560
SP   6   1.00
    491.7650000             -0.0022974              0.0039894
    116.9840000             -0.0307140              0.0303180
     37.4153000             -0.1125280              0.1298800
     13.7834000              0.0450160              0.3279510
      5.4521500              0.5893530              0.4535270
      2.2258800              0.4652060              0.2521540
SP   3   1.00
      3.1864900             -0.2518300             -0.0142990
      1.1442700              0.0615890              0.3235720
      0.4203770              1.0601800              0.7435070
SP   1   1.00
      0.1426570              1.0000000              1.0000000
D    1   1.00
      1.5000000              1.0000000
D    1   1.00
      0.3750000              1.0000000
F    1   1.00
      0.7000000              1.0000000
****
}

set {
reference uhf
freeze_core true
e_convergence 10
d_convergence 10
dft_spherical_points 1202
dft_radial_points 99
}

e = energy('b3lyp')

print_out('Grab this energy {0}'.format(e))
--------------------------------------------------------------------------

    Molecular point group: c1

    Geometry (in Bohr), charge = 0, multiplicity = 2:

       Center              X                  Y                   Z               Mass
    ------------   -----------------  -----------------  -----------------  -----------------
         C           -0.323334048734    -0.003556936393    -0.001525092617    12.000000000000
         C            0.060701786166    -1.395868402993    -2.431673017517    12.000000000000
         C            0.061623714766     2.795290647607    -0.000677464317    12.000000000000
         C            0.060971119066    -1.397593771393     2.433310836883    12.000000000000
         H            2.086733742966    -1.632819693893    -2.853319481517     1.007825032230
         H           -0.768577390934    -0.380723280793    -4.028938031617     1.007825032230
         H           -0.762586298034    -3.287271734093    -2.359530364017     1.007825032230
         H            2.087573142266     3.280396135007    -0.003619537317     1.007825032230
         H           -0.763214076534     3.668146821907     1.677570314483     1.007825032230
         H           -0.765960732434     3.679399851807    -1.675021448917     1.007825032230
         H            2.086347367966    -1.640320866693     2.859114984783     1.007825032230
         H           -0.764838132434    -3.290331261093     2.364746239483     1.007825032230
         H           -0.768075949834    -0.375895457293     4.025721558083     1.007825032230

  Charge       = 0
  Multiplicity = 2
  Basis Set: ANONYMOUS36D31ADD
    Blend: 6-31G_2DFP_
  Basis Set: (ANONYMOUS36D31ADD AUX)
    Blend: DEF2-UNIVERSAL-JKFIT

    Orbital Energies [Eh]
    ---------------------

    Alpha Occupied:

       1A    -10.180342     2A    -10.167330     3A    -10.167013
       4A    -10.166702     5A     -0.797770     6A     -0.686437
       7A     -0.685934     8A     -0.530776     9A     -0.441131
      10A     -0.434941    11A     -0.434398    12A     -0.382746
      13A     -0.382451    14A     -0.363611    15A     -0.338275
      16A     -0.337718    17A     -0.168961

    Alpha Virtual:

      18A      0.076072    19A      0.133914    20A      0.134397
      21A      0.142476    22A      0.142776    23A      0.154880
      24A      0.178553    25A      0.179005    26A      0.203545
      27A      0.214809    28A      0.275668    29A      0.276304
      30A      0.399067    31A      0.399315    32A      0.403424
      33A      0.423959    34A      0.424247    35A      0.456595
      36A      0.494982    37A      0.495788    38A      0.512171
      39A      0.513987    40A      0.578426    41A      0.579181
      42A      0.591345    43A      0.591926    44A      0.602579
      45A      0.624764    46A      0.631769    47A      0.636031
      48A      0.636479    49A      0.663194    50A      0.663632
      51A      0.683613    52A      0.684098    53A      0.734993
      54A      0.824548    55A      0.826251    56A      0.853915
      57A      0.914742    58A      0.915299    59A      0.944053
      60A      0.944513    61A      0.960674    62A      0.962124
      63A      1.003479    64A      1.126941    65A      1.129282
      66A      1.142215    67A      1.162783    68A      1.163765
      69A      1.223334    70A      1.273958    71A      1.275031
      72A      1.279350    73A      1.324273    74A      1.324435
      75A      1.355994    76A      1.365250    77A      1.366801
      78A      1.392426    79A      1.403237    80A      1.404946
      81A      1.416480    82A      1.417765    83A      1.427928
      84A      1.491434    85A      1.499063    86A      1.542399
      87A      1.543273    88A      1.572666    89A      1.576331
      90A      1.669826    91A      1.738301    92A      1.740500
      93A      1.768346    94A      1.830704    95A      1.832106
      96A      1.971725    97A      2.017333    98A      2.018569
      99A      2.020459   100A      2.050022   101A      2.055357
     102A      2.738099   103A      2.738866   104A      2.790926
     105A      2.811429   106A      2.889635   107A      2.890230
     108A      2.894992   109A      2.929323   110A      2.929667
     111A      2.958985   112A      2.963499   113A      2.965284
     114A      3.034012   115A      3.070248   116A      3.072294
     117A      3.084380   118A      3.168025   119A      3.169585
     120A      3.180558   121A      3.284595   122A      3.286018
     123A      3.326158   124A      3.328169   125A      3.375667
     126A      3.489577   127A      3.490643   128A      3.514044
     129A      3.525285   130A      3.567044   131A      3.569551
     132A      3.575440   133A      3.666163   134A      3.666575
     135A      3.679631   136A      3.693482   137A      3.694777
     138A      3.775238   139A      3.778287   140A      3.789317
     141A      3.910796   142A      3.913676   143A      4.034470
     144A      4.109517   145A      4.113223   146A      4.146206
     147A      4.149971   148A      4.173268   149A      4.201341
     150A      4.202656   151A      4.204771   152A      4.210953
     153A      4.315172   154A      4.316681   155A      4.359053
     156A      4.424073   157A      4.424723   158A      4.443560
     159A      4.515938   160A      4.517752   161A      4.577122
     162A      4.579386   163A      4.617530   164A      4.709445
     165A      4.772896   166A      4.776303   167A      4.836990
     168A      4.962856   169A      5.001913   170A      5.004013
     171A      5.228021   172A      5.246318   173A      5.247331
     174A      5.354497   175A      5.356502   176A      5.479337

    Beta Occupied:

       1A    -10.168087     2A    -10.167772     3A    -10.167467
       4A    -10.166518     5A     -0.781096     6A     -0.684240
       7A     -0.683737     8A     -0.511748     9A     -0.431326
      10A     -0.430763    11A     -0.421820    12A     -0.376840
      13A     -0.376528    14A     -0.362595    15A     -0.333401
      16A     -0.332838

    Beta Virtual:

      17A     -0.025743    18A      0.077081    19A      0.134794
      20A      0.135296    21A      0.144352    22A      0.144642
      23A      0.163340    24A      0.182217    25A      0.182683
      26A      0.215039    27A      0.218927    28A      0.282017
      29A      0.282650    30A      0.400276    31A      0.400511
      32A      0.419798    33A      0.426757    34A      0.427073
      35A      0.468505    36A      0.497239    37A      0.498057
      38A      0.513906    39A      0.556327    40A      0.583994
      41A      0.584715    42A      0.597538    43A      0.598091
      44A      0.609997    45A      0.628147    46A      0.631927
      47A      0.639297    48A      0.639782    49A      0.666731
      50A      0.667220    51A      0.686195    52A      0.686788
      53A      0.757515    54A      0.829701    55A      0.831435
      56A      0.855268    57A      0.922718    58A      0.923262
      59A      0.945912    60A      0.953420    61A      0.966036
      62A      0.967379    63A      1.008717    64A      1.130960
      65A      1.133325    66A      1.155587    67A      1.167832
      68A      1.168865    69A      1.232303    70A      1.279551
      71A      1.280633    72A      1.285104    73A      1.329247
      74A      1.329440    75A      1.365412    76A      1.370391
      77A      1.372138    78A      1.393490    79A      1.406725
      80A      1.408393    81A      1.421527    82A      1.422809
      83A      1.428202    84A      1.492486    85A      1.509507
      86A      1.546725    87A      1.547759    88A      1.580678
      89A      1.584064    90A      1.674672    91A      1.744064
      92A      1.746264    93A      1.779123    94A      1.834549
      95A      1.835973    96A      1.972587    97A      2.023953
      98A      2.026923    99A      2.039655   100A      2.056814
     101A      2.061999   102A      2.746413   103A      2.747226
     104A      2.811842   105A      2.816059   106A      2.902413
     107A      2.902861   108A      2.924662   109A      2.931899
     110A      2.932060   111A      2.960054   112A      2.968070
     113A      2.969794   114A      3.041947   115A      3.079958
     116A      3.082307   117A      3.086302   118A      3.183866
     119A      3.185229   120A      3.188242   121A      3.289464
     122A      3.290753   123A      3.329961   124A      3.331977
     125A      3.383483   126A      3.492310   127A      3.493361
     128A      3.512423   129A      3.528346   130A      3.574634
     131A      3.580906   132A      3.583017   133A      3.670985
     134A      3.671279   135A      3.692929   136A      3.725309
     137A      3.726174   138A      3.779843   139A      3.782805
     140A      3.817792   141A      3.920617   142A      3.923489
     143A      4.045357   144A      4.116413   145A      4.119959
     146A      4.153458   147A      4.157145   148A      4.187321
     149A      4.207244   150A      4.210457   151A      4.210891
     152A      4.215446   153A      4.322586   154A      4.324140
     155A      4.362421   156A      4.432294   157A      4.432886
     158A      4.446495   159A      4.523812   160A      4.525449
     161A      4.587645   162A      4.590063   163A      4.624726
     164A      4.719790   165A      4.779845   166A      4.783258
     167A      4.839911   168A      4.967649   169A      5.005950
     170A      5.008055   171A      5.233734   172A      5.248096
     173A      5.249124   174A      5.360949   175A      5.363010
     176A      5.481659

    Final Occupation by Irrep:
              A
    DOCC [    16 ]
    SOCC [     1 ]

  @DF-UKS Final Energy:  -157.81306025849292

   => Energetics <=

    Nuclear Repulsion Energy =            125.3948730254776081
    One-Electron Energy =                -458.7493875094810392
    Two-Electron Energy =                 195.8486004532053073
    DFT Exchange-Correlation Energy =     -20.3071462276948260
    Empirical Dispersion Energy =           0.0000000000000000
    VV10 Nonlocal Energy =                  0.0000000000000000
    Total Energy =                       -157.8130602584929250

  UHF NO Occupations:
  HONO-2 :   15  A 1.9996009
  HONO-1 :   16  A 1.9989804
  HONO-0 :   17  A 1.0000000
  LUNO+0 :   18  A 0.0010196
  LUNO+1 :   19  A 0.0003991
  LUNO+2 :   20  A 0.0001980
  LUNO+3 :   21  A 0.0001971

Computation Completed

Properties will be evaluated at   0.000000,   0.000000,   0.000000 [a0]

Properties computed using the SCF density matrix

  Nuclear Dipole Moment: [e a0]
     X:     0.8272      Y:     0.0102      Z:     0.0033

  Electronic Dipole Moment: [e a0]
     X:    -0.7493      Y:    -0.0110      Z:    -0.0034

  Dipole Moment: [e a0]
     X:     0.0779      Y:    -0.0007      Z:    -0.0000     Total:     0.0779

  Dipole Moment: [D]
     X:     0.1980      Y:    -0.0019      Z:    -0.0001     Total:     0.1981

*** tstop() called on n091 at Fri Nov  5 15:38:08 2021
Module time:
	user time   =     496.24 seconds =       8.27 minutes
	system time =       4.51 seconds =       0.08 minutes
	total time  =        126 seconds =       2.10 minutes
Total time:
	user time   =     496.24 seconds =       8.27 minutes
	system time =       4.51 seconds =       0.08 minutes
	total time  =        126 seconds =       2.10 minutes
Grab this energy -157.81306025849292
    Psi4 stopped on: Friday, 05 November 2021 03:38PM
    Psi4 wall time for execution: 0:02:05.91

*** Psi4 exiting successfully. Buy a developer a beer!
