                               Psi4 1.4a2.dev629

  ==> Input File <==

--------------------------------------------------------------------------
import os
memory 14 GB

molecule {
 C   -0.3233385062    0.0053435667   -0.0000000000
 C    0.0612136824   -1.4000343363   -2.4268318116
 C    0.0608726462    2.8018179661   -0.0000000000
 C    0.0612136824   -1.4000343363    2.4268318116
 H    2.0868176821   -1.6449993215   -2.8472660639
 H   -0.7661579174   -0.3887763469   -4.0247784116
 H   -0.7648711248   -3.2929604225   -2.3497651855
 H    2.0870367412    3.2875029701    0.0000000000
 H   -0.7655917011    3.6794260190    1.6768906492
 H   -0.7655917011    3.6794260190   -1.6768906492
 H    2.0868176821   -1.6449993215    2.8472660639
 H   -0.7648711248   -3.2929604225    2.3497651855
 H   -0.7661579174   -0.3887763469    4.0247784116
units bohr
0 2
}

basis {

assign 6-31g_2dfp_

[ 6-31g_2dfp_ ]

spherical

!----------------------------------------------------------------------
! Basis Set Exchange
! Version v0.8.13
! https://www.basissetexchange.org
!----------------------------------------------------------------------
!   Basis set: 6-31G(2df,p)
! Description: 6-31G(2df,p)
!        Role: orbital
!     Version: 0  (Data from the original Basis Set Exchange)
!----------------------------------------------------------------------

****
H     0
S    3   1.00
     18.7311370              0.03349460
      2.8253937              0.23472695
      0.6401217              0.81375733
S    1   1.00
      0.1612778              1.00000000
P    1   1.00
      1.5000000              1.0000000
P    1   1.00
      0.3750000              1.0000000
****
B     0
S    6   1.00
   2068.8823000              0.0018663
    310.6495700              0.0142515
     70.6830330              0.0695516
     19.8610800              0.2325729
      6.2993048              0.4670787
      2.1270270              0.3634314
SP   3   1.00
      4.7279710             -0.1303938              0.0745976
      1.1903377             -0.1307889              0.3078467
      0.3594117              1.1309444              0.7434568
SP   1   1.00
      0.1267512              1.0000000              1.0000000
D    1   1.00
      0.8020000              1.0000000
D    1   1.00
      0.2005000              1.0000000
F    1   1.00
      0.5000000              1.0000000
****
C     0
S    6   1.00
   3047.5249000              0.0018347
    457.3695100              0.0140373
    103.9486900              0.0688426
     29.2101550              0.2321844
      9.2866630              0.4679413
      3.1639270              0.3623120
SP   3   1.00
      7.8682724             -0.1193324              0.0689991
      1.8812885             -0.1608542              0.3164240
      0.5442493              1.1434564              0.7443083
SP   1   1.00
      0.1687144              1.0000000              1.0000000
D    1   1.00
      1.2520000              1.0000000
D    1   1.00
      0.3130000              1.0000000
F    1   1.00
      0.8000000              1.0000000
****
N     0
S    6   1.00
   4173.5110000              0.0018348
    627.4579000              0.0139950
    142.9021000              0.0685870
     40.2343300              0.2322410
     12.8202100              0.4690700
      4.3904370              0.3604550
SP   3   1.00
     11.6263580             -0.1149610              0.0675800
      2.7162800             -0.1691180              0.3239070
      0.7722180              1.1458520              0.7408950
SP   1   1.00
      0.2120313              1.0000000              1.0000000
D    1   1.00
      1.8260000              1.0000000
D    1   1.00
      0.4565000              1.0000000
F    1   1.00
      1.0000000              1.0000000
****
O     0
S    6   1.00
   5484.6717000              0.0018311
    825.2349500              0.0139501
    188.0469600              0.0684451
     52.9645000              0.2327143
     16.8975700              0.4701930
      5.7996353              0.3585209
SP   3   1.00
     15.5396160             -0.1107775              0.0708743
      3.5999336             -0.1480263              0.3397528
      1.0137618              1.1307670              0.7271586
SP   1   1.00
      0.2700058              1.0000000              1.0000000
D    1   1.00
      2.5840000              1.0000000
D    1   1.00
      0.6460000              1.0000000
F    1   1.00
      1.4000000              1.0000000
****
F     0
S    6   1.00
   7001.7130900              0.0018196169
   1051.3660900              0.0139160796
    239.2856900              0.0684053245
     67.3974453              0.233185760
     21.5199573              0.471267439
      7.40310130             0.356618546
SP   3   1.00
     20.8479528             -0.108506975            0.0716287243
      4.80830834            -0.146451658            0.3459121030
      1.34406986             1.128688580            0.7224699570
SP   1   1.00
      0.358151393            1.0000000              1.0000000
D    1   1.00
      3.5000000              1.0000000
D    1   1.00
      0.8750000              1.0000000
F    1   1.00
      1.8500000              1.0000000
****
Al     0
S    6   1.00
  13983.1000000              0.00194267
   2098.7500000              0.0148599
    477.7050000              0.0728494
    134.3600000              0.2468300
     42.8709000              0.4872580
     14.5189000              0.3234960
SP   6   1.00
    239.6680000             -0.00292619             0.00460285
     57.4419000             -0.0374080              0.0331990
     18.2859000             -0.1144870              0.1362820
      6.5991400              0.1156350              0.3304760
      2.4904900              0.6125950              0.4491460
      0.9445400              0.3937990              0.2657040
SP   3   1.00
      1.2779000             -0.2276060             -0.0175130
      0.3975900              0.00144583             0.2445330
      0.1600950              1.0927900              0.8049340
SP   1   1.00
      0.0556577              1.0000000              1.0000000
D    1   1.00
      0.6500000              1.0000000
D    1   1.00
      0.1625000              1.0000000
F    1   1.00
      0.2500000              1.0000000
****
Si     0
S    6   1.00
  16115.9000000              0.00195948
   2425.5800000              0.01492880
    553.8670000              0.07284780
    156.3400000              0.24613000
     50.0683000              0.48591400
     17.0178000              0.32500200
SP   6   1.00
    292.7180000             -0.00278094             0.00443826
     69.8731000             -0.03571460             0.03266790
     22.3363000             -0.11498500             0.13472100
      8.1503900              0.09356340             0.32867800
      3.1345800              0.60301700             0.44964000
      1.2254300              0.41895900             0.26137200
SP   3   1.00
      1.7273800             -0.24463000            -0.01779510
      0.5729220              0.00431572             0.25353900
      0.2221920              1.09818000             0.80066900
SP   1   1.00
      0.0778369              1.00000000             1.00000000
D    1   1.00
      0.9000000              1.0000000
D    1   1.00
      0.2250000              1.0000000
F    1   1.00
      0.3200000              1.0000000
****
P     0
S    6   1.00
  19413.3000000              0.0018516
   2909.4200000              0.0142062
    661.3640000              0.0699995
    185.7590000              0.2400790
     59.1943000              0.4847620
     20.0310000              0.3352000
SP   6   1.00
    339.4780000             -0.00278217             0.00456462
     81.0101000             -0.0360499              0.03369360
     25.8780000             -0.1166310              0.13975500
      9.4522100              0.0968328              0.33936200
      3.6656600              0.6144180              0.45092100
      1.4674600              0.4037980              0.23858600
SP   3   1.00
      2.1562300             -0.2529230             -0.01776530
      0.7489970              0.0328517              0.27405800
      0.2831450              1.0812500              0.78542100
SP   1   1.00
      0.0998317              1.0000000              1.00000000
D    1   1.00
      1.1000000              1.0000000
D    1   1.00
      0.2750000              1.0000000
F    1   1.00
      0.4500000              1.0000000
****
S     0
S    6   1.00
  21917.1000000              0.0018690
   3301.4900000              0.0142300
    754.1460000              0.0696960
    212.7110000              0.2384870
     67.9896000              0.4833070
     23.0515000              0.3380740
SP   6   1.00
    423.7350000             -0.0023767              0.0040610
    100.7100000             -0.0316930              0.0306810
     32.1599000             -0.1133170              0.1304520
     11.8079000              0.0560900              0.3272050
      4.6311000              0.5922550              0.4528510
      1.8702500              0.4550060              0.2560420
SP   3   1.00
      2.6158400             -0.2503740             -0.0145110
      0.9221670              0.0669570              0.3102630
      0.3412870              1.0545100              0.7544830
SP   1   1.00
      0.1171670              1.0000000              1.0000000
D    1   1.00
      1.3000000              1.0000000
D    1   1.00
      0.3250000              1.0000000
F    1   1.00
      0.5500000              1.0000000
****
Cl     0
S    6   1.00
  25180.1000000              0.0018330
   3780.3500000              0.0140340
    860.4740000              0.0690970
    242.1450000              0.2374520
     77.3349000              0.4830340
     26.2470000              0.3398560
SP   6   1.00
    491.7650000             -0.0022974              0.0039894
    116.9840000             -0.0307140              0.0303180
     37.4153000             -0.1125280              0.1298800
     13.7834000              0.0450160              0.3279510
      5.4521500              0.5893530              0.4535270
      2.2258800              0.4652060              0.2521540
SP   3   1.00
      3.1864900             -0.2518300             -0.0142990
      1.1442700              0.0615890              0.3235720
      0.4203770              1.0601800              0.7435070
SP   1   1.00
      0.1426570              1.0000000              1.0000000
D    1   1.00
      1.5000000              1.0000000
D    1   1.00
      0.3750000              1.0000000
F    1   1.00
      0.7000000              1.0000000
****
}

set {
reference uhf
freeze_core true
e_convergence 10
d_convergence 10
dft_spherical_points 1202
dft_radial_points 99
}

e = energy('b3lyp')

print_out('Grab this energy {0}'.format(e))
--------------------------------------------------------------------------

    Molecular point group: cs

    Geometry (in Bohr), charge = 0, multiplicity = 2:

       Center              X                  Y                   Z               Mass
    ------------   -----------------  -----------------  -----------------  -----------------
         C           -0.323338793122     0.003977860098     0.000000000000    12.000000000000
         C            0.061213395478    -1.401400042902    -2.426831811600    12.000000000000
         C            0.060872359278     2.800452259498     0.000000000000    12.000000000000
         C            0.061213395478    -1.401400042902     2.426831811600    12.000000000000
         H            2.086817395178    -1.646365028102    -2.847266063900     1.007825032230
         H           -0.766158204322    -0.390142053502    -4.024778411600     1.007825032230
         H           -0.764871411722    -3.294326129102    -2.349765185500     1.007825032230
         H            2.087036454278     3.286137263498     0.000000000000     1.007825032230
         H           -0.765591988022     3.678060312398     1.676890649200     1.007825032230
         H           -0.765591988022     3.678060312398    -1.676890649200     1.007825032230
         H            2.086817395178    -1.646365028102     2.847266063900     1.007825032230
         H           -0.764871411722    -3.294326129102     2.349765185500     1.007825032230
         H           -0.766158204322    -0.390142053502     4.024778411600     1.007825032230

  Charge       = 0
  Multiplicity = 2
  Basis Set: ANONYMOUSE3EE3C35
    Blend: 6-31G_2DFP_
  Basis Set: (ANONYMOUSE3EE3C35 AUX)
    Blend: DEF2-UNIVERSAL-JKFIT

    Orbital Energies [Eh]
    ---------------------

    Alpha Occupied:

       1Ap   -10.180341     1App  -10.167047     2Ap   -10.167026
       3Ap   -10.166971     4Ap    -0.797769     5Ap    -0.686375
       2App   -0.685998     6Ap    -0.530775     7Ap    -0.441130
       3App   -0.434886     8Ap    -0.434451     9Ap    -0.382716
       4App   -0.382485     5App   -0.363609    10Ap    -0.338518
       6App   -0.337478    11Ap    -0.168960

    Alpha Virtual:

      12Ap     0.076072    13Ap     0.134141     7App    0.134171
       8App    0.142452    14Ap     0.142802    15Ap     0.154879
       9App    0.178772    16Ap     0.178785    17Ap     0.203543
      10App    0.214803    11App    0.275695    18Ap     0.276275
      12App    0.399107    19Ap     0.399352    20Ap     0.403344
      21Ap     0.424097    13App    0.424097    22Ap     0.456593
      14App    0.495342    23Ap     0.495437    15App    0.512160
      24Ap     0.513977    16App    0.578624    25Ap     0.579005
      26Ap     0.591640    17App    0.591644    27Ap     0.602573
      28Ap     0.624752    18App    0.631775    19App    0.636094
      29Ap     0.636414    30Ap     0.663346    20App    0.663479
      31Ap     0.683801    21App    0.683903    32Ap     0.734994
      22App    0.825298    33Ap     0.825516    23App    0.853916
      34Ap     0.914908    24App    0.915136    25App    0.944126
      35Ap     0.944620    26App    0.961110    36Ap     0.961475
      37Ap     1.003454    27App    1.127872    38Ap     1.128308
      39Ap     1.142264    28App    1.162887    40Ap     1.163648
      41Ap     1.223328    42Ap     1.274024    29App    1.274961
      43Ap     1.279349    30App    1.324261    44Ap     1.324453
      45Ap     1.355995    31App    1.365780    46Ap     1.366334
      32App    1.392443    33App    1.403995    47Ap     1.404101
      48Ap     1.416793    34App    1.417426    35App    1.427923
      36App    1.491491    49Ap     1.499078    37App    1.542828
      50Ap     1.542835    51Ap     1.574421    38App    1.574470
      52Ap     1.669822    39App    1.739221    53Ap     1.739624
      54Ap     1.768311    40App    1.831130    55Ap     1.831654
      41App    1.971730    56Ap     2.018263    57Ap     2.018513
      42App    2.019619    43App    2.052108    58Ap     2.053180
      44App    2.738247    59Ap     2.738725    60Ap     2.790924
      45App    2.811423    46App    2.889393    61Ap     2.890510
      62Ap     2.894937    47App    2.929109    63Ap     2.929881
      48App    2.958990    64Ap     2.964214    49App    2.964543
      65Ap     3.034001    50App    3.070775    66Ap     3.071807
      51App    3.084349    67Ap     3.168654    52App    3.168857
      68Ap     3.180653    53App    3.285013    69Ap     3.285611
      70Ap     3.326769    54App    3.327544    71Ap     3.375605
      55App    3.489606    72Ap     3.490693    56App    3.514025
      73Ap     3.525337    74Ap     3.568163    57App    3.568615
      58App    3.575145    75Ap     3.666075    59App    3.666698
      76Ap     3.679658    77Ap     3.694087    60App    3.694139
      61App    3.776084    78Ap     3.777492    79Ap     3.789172
      62App    3.911761    80Ap     3.912688    81Ap     4.034437
      63App    4.111053    82Ap     4.111685    64App    4.147135
      83Ap     4.149104    84Ap     4.173260    85Ap     4.202350
      65App    4.202624    86Ap     4.203811    66App    4.210874
      67App    4.315410    87Ap     4.316527    68App    4.358981
      69App    4.424381    88Ap     4.424515    70App    4.443440
      71App    4.516715    89Ap     4.516964    90Ap     4.577839
      72App    4.578412    91Ap     4.617831    92Ap     4.709463
      73App    4.774033    93Ap     4.775174    74App    4.836888
      94Ap     4.962824    95Ap     5.002736    75App    5.003217
      96Ap     5.228041    76App    5.246783    97Ap     5.246849
      77App    5.354947    98Ap     5.356058    78App    5.479348

    Beta Occupied:

       1App  -10.167798     1Ap   -10.167784     2Ap   -10.167741
       3Ap   -10.166519     4Ap    -0.781094     5Ap    -0.684166
       2App   -0.683812     6Ap    -0.511747     3App   -0.431253
       7Ap    -0.430835     8Ap    -0.421818     9Ap    -0.376760
       4App   -0.376611     5App   -0.362592    10Ap    -0.333651
       6App   -0.332592

    Beta Virtual:

      11Ap    -0.025742    12Ap     0.077081     7App    0.135043
      13Ap     0.135048     8App    0.144333    14Ap     0.144663
      15Ap     0.163339     9App    0.182431    16Ap     0.182468
      10App    0.215032    17Ap     0.218926    11App    0.282077
      18Ap     0.282588    12App    0.400279    19Ap     0.400518
      20Ap     0.419791    13App    0.426897    21Ap     0.426919
      22Ap     0.468500    14App    0.497599    23Ap     0.497700
      15App    0.513895    24Ap     0.556321    16App    0.584151
      25Ap     0.584581    17App    0.597813    26Ap     0.597828
      27Ap     0.609998    28Ap     0.628125    18App    0.631930
      19App    0.639366    29Ap     0.639716    30Ap     0.666916
      20App    0.667037    31Ap     0.686435    21App    0.686539
      32Ap     0.757517    22App    0.830471    33Ap     0.830681
      23App    0.855269    34Ap     0.922853    24App    0.923133
      25App    0.945963    35Ap     0.953548    26App    0.966408
      36Ap     0.966789    37Ap     1.008694    27App    1.131924
      38Ap     1.132331    39Ap     1.155625    28App    1.167966
      40Ap     1.168714    41Ap     1.232300    42Ap     1.279675
      29App    1.280506    43Ap     1.285102    30App    1.329263
      44Ap     1.329430    45Ap     1.365410    31App    1.371072
      46Ap     1.371530    32App    1.393502    33App    1.407403
      47Ap     1.407621    48Ap     1.421851    34App    1.422467
      35App    1.428194    36App    1.492539    49Ap     1.509522
      37App    1.547231    50Ap     1.547247    38App    1.582314
      51Ap     1.582322    52Ap     1.674669    39App    1.744978
      53Ap     1.745390    54Ap     1.779091    40App    1.834970
      55Ap     1.835523    41App    1.972589    56Ap     2.024887
      42App    2.026008    57Ap     2.039675    43App    2.058836
      58Ap     2.059887    44App    2.746551    59Ap     2.747092
      45App    2.811836    60Ap     2.816060    46App    2.902168
      61Ap     2.903110    62Ap     2.924645    47App    2.931536
      63Ap     2.932418    48App    2.960054    64Ap     2.968761
      49App    2.969083    65Ap     3.041936    50App    3.080762
      66Ap     3.081638    51App    3.086165    67Ap     3.184377
      52App    3.184521    68Ap     3.188450    53App    3.289852
      69Ap     3.290369    70Ap     3.330572    54App    3.331349
      71Ap     3.383425    55App    3.492323    72Ap     3.493431
      56App    3.512393    73Ap     3.528383    57App    3.574997
      74Ap     3.581552    58App    3.581918    75Ap     3.670893
      59App    3.671365    76Ap     3.692953    77Ap     3.725598
      60App    3.725900    61App    3.780617    78Ap     3.782036
      79Ap     3.817683    62App    3.921580    80Ap     3.922508
      81Ap     4.045324    63App    4.117913    82Ap     4.118458
      64App    4.154369    83Ap     4.156286    84Ap     4.187320
      65App    4.208569    85Ap     4.209174    86Ap     4.210881
      66App    4.215352    67App    4.322785    87Ap     4.324032
      68App    4.362344    69App    4.432594    88Ap     4.432726
      70App    4.446328    71App    4.524460    89Ap     4.524801
      90Ap     4.588420    72App    4.589011    91Ap     4.625046
      92Ap     4.719810    73App    4.780950    93Ap     4.782165
      74App    4.839804    94Ap     4.967616    95Ap     5.006793
      75App    5.007241    96Ap     5.233757    76App    5.248573
      97Ap     5.248628    77App    5.361402    98Ap     5.362565
      78App    5.481669

    Final Occupation by Irrep:
             Ap   App
    DOCC [    10,    6 ]
    SOCC [     1,    0 ]

  @DF-UKS Final Energy:  -157.81306554890114

   => Energetics <=

    Nuclear Repulsion Energy =            125.3946662161232268
    One-Electron Energy =                -458.7489858793895223
    Two-Electron Energy =                 195.8483991288514403
    DFT Exchange-Correlation Energy =     -20.3071450144862453
    Empirical Dispersion Energy =           0.0000000000000000
    VV10 Nonlocal Energy =                  0.0000000000000000
    Total Energy =                       -157.8130655489011360

  UHF NO Occupations:
  HONO-2 :    9 Ap 1.9996009
  HONO-1 :   10 Ap 1.9989805
  HONO-0 :   11 Ap 1.0000000
  LUNO+0 :   12 Ap 0.0010195
  LUNO+1 :   13 Ap 0.0003991
  LUNO+2 :    7App 0.0001986
  LUNO+3 :   14 Ap 0.0001965

Computation Completed

Properties will be evaluated at   0.000000,   0.000000,   0.000000 [a0]

Properties computed using the SCF density matrix

  Nuclear Dipole Moment: [e a0]
     X:     0.8272      Y:    -0.0096      Z:     0.0000

  Electronic Dipole Moment: [e a0]
     X:    -0.7493      Y:     0.0109      Z:     0.0000

  Dipole Moment: [e a0]
     X:     0.0779      Y:     0.0012      Z:     0.0000     Total:     0.0779

  Dipole Moment: [D]
     X:     0.1980      Y:     0.0031      Z:     0.0000     Total:     0.1981

*** tstop() called on n036 at Fri Nov  5 13:41:59 2021
Module time:
	user time   =     630.19 seconds =      10.50 minutes
	system time =      11.94 seconds =       0.20 minutes
	total time  =        161 seconds =       2.68 minutes
Total time:
	user time   =     630.19 seconds =      10.50 minutes
	system time =      11.94 seconds =       0.20 minutes
	total time  =        161 seconds =       2.68 minutes
Grab this energy -157.81306554890114
    Psi4 stopped on: Friday, 05 November 2021 01:41PM
    Psi4 wall time for execution: 0:02:41.45

*** Psi4 exiting successfully. Buy a developer a beer!
