                               Psi4 1.4a2.dev629

  ==> Input File <==

--------------------------------------------------------------------------
import os
memory 14 GB

molecule {
 C   -0.3233394804   -0.0004359407    0.0004936915
 C    0.0612121425   -1.4015396554   -2.4250804684
 C    0.0607106433    2.8018651703    0.0000402438
 C    0.0613802099   -1.4022473563    2.4263860767
 H    2.0901035711   -1.6464970361   -2.8455643445
 H   -0.7698481467   -0.3835575868   -4.0297918010
 H   -0.7645452697   -3.2931676471   -2.3475592318
 H    2.0877102425    3.2880925183   -0.0000282232
 H   -0.7660862912    3.6799061261    1.6752561494
 H   -0.7659052098    3.6808954260   -1.6759122712
 H    2.0828606980   -1.6469453807    2.8462984552
 H   -0.7606929074   -3.2871821281    2.3505388725
 H   -0.7661680789   -0.3892108231    4.0249228510
units bohr
0 2
}

basis {

assign 6-31g_2dfp_

[ 6-31g_2dfp_ ]

spherical

!----------------------------------------------------------------------
! Basis Set Exchange
! Version v0.8.13
! https://www.basissetexchange.org
!----------------------------------------------------------------------
!   Basis set: 6-31G(2df,p)
! Description: 6-31G(2df,p)
!        Role: orbital
!     Version: 0  (Data from the original Basis Set Exchange)
!----------------------------------------------------------------------

****
H     0
S    3   1.00
     18.7311370              0.03349460
      2.8253937              0.23472695
      0.6401217              0.81375733
S    1   1.00
      0.1612778              1.00000000
P    1   1.00
      1.5000000              1.0000000
P    1   1.00
      0.3750000              1.0000000
****
B     0
S    6   1.00
   2068.8823000              0.0018663
    310.6495700              0.0142515
     70.6830330              0.0695516
     19.8610800              0.2325729
      6.2993048              0.4670787
      2.1270270              0.3634314
SP   3   1.00
      4.7279710             -0.1303938              0.0745976
      1.1903377             -0.1307889              0.3078467
      0.3594117              1.1309444              0.7434568
SP   1   1.00
      0.1267512              1.0000000              1.0000000
D    1   1.00
      0.8020000              1.0000000
D    1   1.00
      0.2005000              1.0000000
F    1   1.00
      0.5000000              1.0000000
****
C     0
S    6   1.00
   3047.5249000              0.0018347
    457.3695100              0.0140373
    103.9486900              0.0688426
     29.2101550              0.2321844
      9.2866630              0.4679413
      3.1639270              0.3623120
SP   3   1.00
      7.8682724             -0.1193324              0.0689991
      1.8812885             -0.1608542              0.3164240
      0.5442493              1.1434564              0.7443083
SP   1   1.00
      0.1687144              1.0000000              1.0000000
D    1   1.00
      1.2520000              1.0000000
D    1   1.00
      0.3130000              1.0000000
F    1   1.00
      0.8000000              1.0000000
****
N     0
S    6   1.00
   4173.5110000              0.0018348
    627.4579000              0.0139950
    142.9021000              0.0685870
     40.2343300              0.2322410
     12.8202100              0.4690700
      4.3904370              0.3604550
SP   3   1.00
     11.6263580             -0.1149610              0.0675800
      2.7162800             -0.1691180              0.3239070
      0.7722180              1.1458520              0.7408950
SP   1   1.00
      0.2120313              1.0000000              1.0000000
D    1   1.00
      1.8260000              1.0000000
D    1   1.00
      0.4565000              1.0000000
F    1   1.00
      1.0000000              1.0000000
****
O     0
S    6   1.00
   5484.6717000              0.0018311
    825.2349500              0.0139501
    188.0469600              0.0684451
     52.9645000              0.2327143
     16.8975700              0.4701930
      5.7996353              0.3585209
SP   3   1.00
     15.5396160             -0.1107775              0.0708743
      3.5999336             -0.1480263              0.3397528
      1.0137618              1.1307670              0.7271586
SP   1   1.00
      0.2700058              1.0000000              1.0000000
D    1   1.00
      2.5840000              1.0000000
D    1   1.00
      0.6460000              1.0000000
F    1   1.00
      1.4000000              1.0000000
****
F     0
S    6   1.00
   7001.7130900              0.0018196169
   1051.3660900              0.0139160796
    239.2856900              0.0684053245
     67.3974453              0.233185760
     21.5199573              0.471267439
      7.40310130             0.356618546
SP   3   1.00
     20.8479528             -0.108506975            0.0716287243
      4.80830834            -0.146451658            0.3459121030
      1.34406986             1.128688580            0.7224699570
SP   1   1.00
      0.358151393            1.0000000              1.0000000
D    1   1.00
      3.5000000              1.0000000
D    1   1.00
      0.8750000              1.0000000
F    1   1.00
      1.8500000              1.0000000
****
Al     0
S    6   1.00
  13983.1000000              0.00194267
   2098.7500000              0.0148599
    477.7050000              0.0728494
    134.3600000              0.2468300
     42.8709000              0.4872580
     14.5189000              0.3234960
SP   6   1.00
    239.6680000             -0.00292619             0.00460285
     57.4419000             -0.0374080              0.0331990
     18.2859000             -0.1144870              0.1362820
      6.5991400              0.1156350              0.3304760
      2.4904900              0.6125950              0.4491460
      0.9445400              0.3937990              0.2657040
SP   3   1.00
      1.2779000             -0.2276060             -0.0175130
      0.3975900              0.00144583             0.2445330
      0.1600950              1.0927900              0.8049340
SP   1   1.00
      0.0556577              1.0000000              1.0000000
D    1   1.00
      0.6500000              1.0000000
D    1   1.00
      0.1625000              1.0000000
F    1   1.00
      0.2500000              1.0000000
****
Si     0
S    6   1.00
  16115.9000000              0.00195948
   2425.5800000              0.01492880
    553.8670000              0.07284780
    156.3400000              0.24613000
     50.0683000              0.48591400
     17.0178000              0.32500200
SP   6   1.00
    292.7180000             -0.00278094             0.00443826
     69.8731000             -0.03571460             0.03266790
     22.3363000             -0.11498500             0.13472100
      8.1503900              0.09356340             0.32867800
      3.1345800              0.60301700             0.44964000
      1.2254300              0.41895900             0.26137200
SP   3   1.00
      1.7273800             -0.24463000            -0.01779510
      0.5729220              0.00431572             0.25353900
      0.2221920              1.09818000             0.80066900
SP   1   1.00
      0.0778369              1.00000000             1.00000000
D    1   1.00
      0.9000000              1.0000000
D    1   1.00
      0.2250000              1.0000000
F    1   1.00
      0.3200000              1.0000000
****
P     0
S    6   1.00
  19413.3000000              0.0018516
   2909.4200000              0.0142062
    661.3640000              0.0699995
    185.7590000              0.2400790
     59.1943000              0.4847620
     20.0310000              0.3352000
SP   6   1.00
    339.4780000             -0.00278217             0.00456462
     81.0101000             -0.0360499              0.03369360
     25.8780000             -0.1166310              0.13975500
      9.4522100              0.0968328              0.33936200
      3.6656600              0.6144180              0.45092100
      1.4674600              0.4037980              0.23858600
SP   3   1.00
      2.1562300             -0.2529230             -0.01776530
      0.7489970              0.0328517              0.27405800
      0.2831450              1.0812500              0.78542100
SP   1   1.00
      0.0998317              1.0000000              1.00000000
D    1   1.00
      1.1000000              1.0000000
D    1   1.00
      0.2750000              1.0000000
F    1   1.00
      0.4500000              1.0000000
****
S     0
S    6   1.00
  21917.1000000              0.0018690
   3301.4900000              0.0142300
    754.1460000              0.0696960
    212.7110000              0.2384870
     67.9896000              0.4833070
     23.0515000              0.3380740
SP   6   1.00
    423.7350000             -0.0023767              0.0040610
    100.7100000             -0.0316930              0.0306810
     32.1599000             -0.1133170              0.1304520
     11.8079000              0.0560900              0.3272050
      4.6311000              0.5922550              0.4528510
      1.8702500              0.4550060              0.2560420
SP   3   1.00
      2.6158400             -0.2503740             -0.0145110
      0.9221670              0.0669570              0.3102630
      0.3412870              1.0545100              0.7544830
SP   1   1.00
      0.1171670              1.0000000              1.0000000
D    1   1.00
      1.3000000              1.0000000
D    1   1.00
      0.3250000              1.0000000
F    1   1.00
      0.5500000              1.0000000
****
Cl     0
S    6   1.00
  25180.1000000              0.0018330
   3780.3500000              0.0140340
    860.4740000              0.0690970
    242.1450000              0.2374520
     77.3349000              0.4830340
     26.2470000              0.3398560
SP   6   1.00
    491.7650000             -0.0022974              0.0039894
    116.9840000             -0.0307140              0.0303180
     37.4153000             -0.1125280              0.1298800
     13.7834000              0.0450160              0.3279510
      5.4521500              0.5893530              0.4535270
      2.2258800              0.4652060              0.2521540
SP   3   1.00
      3.1864900             -0.2518300             -0.0142990
      1.1442700              0.0615890              0.3235720
      0.4203770              1.0601800              0.7435070
SP   1   1.00
      0.1426570              1.0000000              1.0000000
D    1   1.00
      1.5000000              1.0000000
D    1   1.00
      0.3750000              1.0000000
F    1   1.00
      0.7000000              1.0000000
****
}

set {
reference uhf
freeze_core true
e_convergence 10
d_convergence 10
dft_spherical_points 1202
dft_radial_points 99
}

e = energy('b3lyp')

print_out('Grab this energy {0}'.format(e))
--------------------------------------------------------------------------

    Molecular point group: c1

    Geometry (in Bohr), charge = 0, multiplicity = 2:

       Center              X                  Y                   Z               Mass
    ------------   -----------------  -----------------  -----------------  -----------------
         C           -0.323340154551     0.000018614476     0.000139382153    12.000000000000
         C            0.061211468349    -1.401085100224    -2.425434777747    12.000000000000
         C            0.060709969149     2.802319725476    -0.000314065547    12.000000000000
         C            0.061379535749    -1.401792801124     2.426031767353    12.000000000000
         H            2.090102896949    -1.646042480924    -2.845918653847     1.007825032230
         H           -0.769848820851    -0.383103031624    -4.030146110347     1.007825032230
         H           -0.764545943851    -3.292713091924    -2.347913541147     1.007825032230
         H            2.087709568349     3.288547073476    -0.000382532547     1.007825032230
         H           -0.766086965351     3.680360681276     1.674901840053     1.007825032230
         H           -0.765905883951     3.681349981176    -1.676266580547     1.007825032230
         H            2.082860023849    -1.646490825524     2.845944145853     1.007825032230
         H           -0.760693581551    -3.286727572924     2.350184563153     1.007825032230
         H           -0.766168753051    -0.388756267924     4.024568541653     1.007825032230

  Charge       = 0
  Multiplicity = 2
  Basis Set: ANONYMOUS84F8BF65
    Blend: 6-31G_2DFP_
  Basis Set: (ANONYMOUS84F8BF65 AUX)
    Blend: DEF2-UNIVERSAL-JKFIT

    Orbital Energies [Eh]
    ---------------------

    Alpha Occupied:

       1A    -10.180342     2A    -10.167599     3A    -10.167008
       4A    -10.166437     5A     -0.797767     6A     -0.686516
       7A     -0.685862     8A     -0.530777     9A     -0.441127
      10A     -0.434878    11A     -0.434462    12A     -0.382822
      13A     -0.382376    14A     -0.363613    15A     -0.338163
      16A     -0.337832    17A     -0.168961

    Alpha Virtual:

      18A      0.076068    19A      0.134033    20A      0.134259
      21A      0.142402    22A      0.142864    23A      0.154878
      24A      0.178443    25A      0.179117    26A      0.203547
      27A      0.214807    28A      0.275868    29A      0.276104
      30A      0.398970    31A      0.399483    32A      0.403345
      33A      0.423909    34A      0.424285    35A      0.456592
      36A      0.495304    37A      0.495476    38A      0.512162
      39A      0.513978    40A      0.578677    41A      0.578952
      42A      0.591295    43A      0.591949    44A      0.602592
      45A      0.624719    46A      0.631687    47A      0.635861
      48A      0.636770    49A      0.663132    50A      0.663697
      51A      0.683499    52A      0.684238    53A      0.734994
      54A      0.824931    55A      0.825873    56A      0.853916
      57A      0.914809    58A      0.915243    59A      0.944129
      60A      0.944606    61A      0.961027    62A      0.961569
      63A      1.003457    64A      1.127684    65A      1.128539
      66A      1.142222    67A      1.163165    68A      1.163371
      69A      1.223322    70A      1.274186    71A      1.274788
      72A      1.279354    73A      1.323933    74A      1.324762
      75A      1.355977    76A      1.365654    77A      1.366452
      78A      1.392447    79A      1.403656    80A      1.404431
      81A      1.416342    82A      1.417873    83A      1.427906
      84A      1.491496    85A      1.499077    86A      1.542784
      87A      1.542895    88A      1.574097    89A      1.574808
      90A      1.669805    91A      1.738691    92A      1.740107
      93A      1.768334    94A      1.829650    95A      1.833195
      96A      1.971727    97A      2.017460    98A      2.019028
      99A      2.019879   100A      2.052150   101A      2.053202
     102A      2.738002   103A      2.738967   104A      2.790924
     105A      2.811429   106A      2.889625   107A      2.890232
     108A      2.894980   109A      2.929388   110A      2.929604
     111A      2.958975   112A      2.963861   113A      2.964943
     114A      3.034022   115A      3.070644   116A      3.071857
     117A      3.084465   118A      3.168343   119A      3.169217
     120A      3.180597   121A      3.285137   122A      3.285490
     123A      3.326769   124A      3.327558   125A      3.375620
     126A      3.489281   127A      3.491047   128A      3.514019
     129A      3.525342   130A      3.567943   131A      3.568789
     132A      3.575174   133A      3.665505   134A      3.667208
     135A      3.679648   136A      3.693613   137A      3.694698
     138A      3.776204   139A      3.777404   140A      3.789131
     141A      3.911488   142A      3.912943   143A      4.034427
     144A      4.110352   145A      4.112197   146A      4.145995
     147A      4.150076   148A      4.173404   149A      4.200365
     150A      4.203699   151A      4.204554   152A      4.211327
     153A      4.315018   154A      4.316907   155A      4.358947
     156A      4.423784   157A      4.425042   158A      4.443565
     159A      4.515763   160A      4.517884   161A      4.577827
     162A      4.578751   163A      4.617548   164A      4.709462
     165A      4.773636   166A      4.775584   167A      4.836880
     168A      4.962868   169A      5.002292   170A      5.003670
     171A      5.227315   172A      5.243534   173A      5.250537
     174A      5.352308   175A      5.358922   176A      5.479497

    Beta Occupied:

       1A    -10.168360     2A    -10.167768     3A    -10.167198
       4A    -10.166516     5A     -0.781093     6A     -0.684318
       7A     -0.683664     8A     -0.511749     9A     -0.431254
      10A     -0.430831    11A     -0.421822    12A     -0.376916
      13A     -0.376452    14A     -0.362596    15A     -0.333281
      16A     -0.332961

    Beta Virtual:

      17A     -0.025743    18A      0.077077    19A      0.134886
      20A      0.135187    21A      0.144263    22A      0.144743
      23A      0.163336    24A      0.182123    25A      0.182780
      26A      0.215036    27A      0.218930    28A      0.282216
      29A      0.282452    30A      0.400135    31A      0.400659
      32A      0.419790    33A      0.426718    34A      0.427098
      35A      0.468500    36A      0.497562    37A      0.497739
      38A      0.513897    39A      0.556323    40A      0.584221
      41A      0.584507    42A      0.597483    43A      0.598122
      44A      0.610011    45A      0.628098    46A      0.631883
      47A      0.639153    48A      0.640010    49A      0.666697
      50A      0.667260    51A      0.686175    52A      0.686831
      53A      0.757518    54A      0.830083    55A      0.831058
      56A      0.855271    57A      0.922800    58A      0.923194
      59A      0.945966    60A      0.953532    61A      0.966352
      62A      0.966858    63A      1.008697    64A      1.131703
      65A      1.132578    66A      1.155597    67A      1.168229
      68A      1.168455    69A      1.232295    70A      1.279766
      71A      1.280401    72A      1.285108    73A      1.328882
      74A      1.329791    75A      1.365386    76A      1.370951
      77A      1.371647    78A      1.393508    79A      1.407100
      80A      1.407917    81A      1.421417    82A      1.422899
      83A      1.428175    84A      1.492546    85A      1.509520
      86A      1.547140    87A      1.547356    88A      1.581975
      89A      1.582670    90A      1.674651    91A      1.744442
      92A      1.745887    93A      1.779107    94A      1.833530
      95A      1.837027    96A      1.972592    97A      2.024849
      98A      2.025985    99A      2.039686   100A      2.058859
     101A      2.059942   102A      2.746321   103A      2.747321
     104A      2.811841   105A      2.816060   106A      2.902359
     107A      2.902902   108A      2.924655   109A      2.931923
     110A      2.932033   111A      2.960051   112A      2.968362
     113A      2.969519   114A      3.041955   115A      3.080451
     116A      3.081712   117A      3.086442   118A      3.184096
     119A      3.184935   120A      3.188308   121A      3.289915
     122A      3.290311   123A      3.330541   124A      3.331394
     125A      3.383438   126A      3.492046   127A      3.493743
     128A      3.512383   129A      3.528386   130A      3.574936
     131A      3.581205   132A      3.582304   133A      3.670269
     134A      3.671954   135A      3.692974   136A      3.725289
     137A      3.726238   138A      3.780759   139A      3.781910
     140A      3.817670   141A      3.921259   142A      3.922805
     143A      4.045310   144A      4.117160   145A      4.119002
     146A      4.153390   147A      4.157146   148A      4.187431
     149A      4.206963   150A      4.209725   151A      4.211745
     152A      4.215841   153A      4.322577   154A      4.324228
     155A      4.362312   156A      4.431993   157A      4.433213
     158A      4.446497   159A      4.523557   160A      4.525671
     161A      4.588474   162A      4.589304   163A      4.624739
     164A      4.719806   165A      4.780613   166A      4.782514
     167A      4.839797   168A      4.967663   169A      5.006347
     170A      5.007693   171A      5.232878   172A      5.245460
     173A      5.252342   174A      5.358801   175A      5.365380
     176A      5.481819

    Final Occupation by Irrep:
              A
    DOCC [    16 ]
    SOCC [     1 ]

  @DF-UKS Final Energy:  -157.81304540127323

   => Energetics <=

    Nuclear Repulsion Energy =            125.3946948335382103
    One-Electron Energy =                -458.7489841963215440
    Two-Electron Energy =                 195.8483952037259712
    DFT Exchange-Correlation Energy =     -20.3071512422158627
    Empirical Dispersion Energy =           0.0000000000000000
    VV10 Nonlocal Energy =                  0.0000000000000000
    Total Energy =                       -157.8130454012732287

  UHF NO Occupations:
  HONO-2 :   15  A 1.9996009
  HONO-1 :   16  A 1.9989805
  HONO-0 :   17  A 1.0000000
  LUNO+0 :   18  A 0.0010195
  LUNO+1 :   19  A 0.0003991
  LUNO+2 :   20  A 0.0001976
  LUNO+3 :   21  A 0.0001975

Computation Completed

Properties will be evaluated at   0.000000,   0.000000,   0.000000 [a0]

Properties computed using the SCF density matrix

  Nuclear Dipole Moment: [e a0]
     X:     0.8272      Y:     0.0032      Z:    -0.0025

  Electronic Dipole Moment: [e a0]
     X:    -0.7493      Y:    -0.0049      Z:     0.0049

  Dipole Moment: [e a0]
     X:     0.0779      Y:    -0.0017      Z:     0.0025     Total:     0.0780

  Dipole Moment: [D]
     X:     0.1980      Y:    -0.0044      Z:     0.0062     Total:     0.1982

*** tstop() called on n065 at Fri Nov  5 14:25:06 2021
Module time:
	user time   =     539.83 seconds =       9.00 minutes
	system time =      11.86 seconds =       0.20 minutes
	total time  =        139 seconds =       2.32 minutes
Total time:
	user time   =     539.83 seconds =       9.00 minutes
	system time =      11.86 seconds =       0.20 minutes
	total time  =        139 seconds =       2.32 minutes
Grab this energy -157.81304540127323
    Psi4 stopped on: Friday, 05 November 2021 02:25PM
    Psi4 wall time for execution: 0:02:18.74

*** Psi4 exiting successfully. Buy a developer a beer!
